# vtk DataFile Version 2.0
LBE two cylinders
ASCII
DATASET STRUCTURED_POINTS
DIMENSIONS 400 100 1
ASPECT_RATIO 1 1 1
ORIGIN 0 0 0
POINT_DATA 40000
SCALARS rho double 1
LOOKUP_TABLE default
1.67859
1.7343
1.74833
1.72729
1.72831
1.73731
1.73592
1.73262
1.73411
1.73548
1.73465
1.73426
1.73481
1.73496
1.73473
1.73476
1.73492
1.73492
1.73489
1.73493
1.73498
1.73498
1.735
1.73502
1.73504
1.73504
1.73505
1.73506
1.73506
1.73506
1.73505
1.73505
1.73504
1.73502
1.735
1.73498
1.73496
1.73493
1.7349
1.73487
1.73483
1.73479
1.73475
1.73471
1.73466
1.73462
1.73457
1.73452
1.73447
1.73442
1.73437
1.73432
1.73427
1.73422
1.73418
1.73413
1.73408
1.73403
1.73399
1.73395
1.73391
1.73387
1.73384
1.7338
1.73377
1.73375
1.73372
1.7337
1.73368
1.73367
1.73366
1.73365
1.73365
1.73365
1.73365
1.73366
1.73367
1.73368
1.7337
1.73372
1.73375
1.73378
1.73382
1.73385
1.73389
1.73394
1.73399
1.73404
1.73409
1.73415
1.73421
1.73427
1.73433
1.73439
1.73446
1.73453
1.73459
1.73466
1.73473
1.7348
1.73486
1.73493
1.735
1.73506
1.73513
1.73519
1.73525
1.73531
1.73537
1.73543
1.73548
1.73553
1.73559
1.73563
1.73568
1.73573
1.73577
1.73582
1.73586
1.7359
1.73593
1.73597
1.736
1.73603
1.73606
1.73609
1.73612
1.73615
1.73617
1.73619
1.73622
1.73624
1.73626
1.73628
1.73629
1.73631
1.73633
1.73634
1.73635
1.73637
1.73638
1.7364
1.73641
1.73642
1.73644
1.73645
1.73646
1.73648
1.7365
1.73651
1.73653
1.73655
1.73656
1.73658
1.7366
1.73662
1.73665
1.73667
1.73669
1.73672
1.73674
1.73677
1.73679
1.73682
1.73685
1.73687
1.7369
1.73692
1.73695
1.73697
1.737
1.73702
1.73704
1.73706
1.73709
1.7371
1.73712
1.73714
1.73715
1.73717
1.73718
1.73719
1.7372
1.73721
1.73721
1.73722
1.73722
1.73722
1.73722
1.73722
1.73722
1.73722
1.73722
1.73722
1.73721
1.73721
1.73721
1.73721
1.7372
1.7372
1.7372
1.7372
1.7372
1.7372
1.7372
1.7372
1.7372
1.7372
1.73721
1.73721
1.73721
1.73722
1.73722
1.73723
1.73724
1.73724
1.73725
1.73725
1.73726
1.73726
1.73727
1.73727
1.73727
1.73727
1.73727
1.73727
1.73727
1.73727
1.73726
1.73726
1.73725
1.73724
1.73723
1.73721
1.7372
1.73718
1.73717
1.73715
1.73713
1.73711
1.73709
1.73707
1.73704
1.73702
1.737
1.73698
1.73695
1.73693
1.73691
1.73689
1.73687
1.73685
1.73683
1.73682
1.73681
1.73679
1.73679
1.73678
1.73678
1.73678
1.73678
1.73678
1.73679
1.73681
1.73682
1.73685
1.73687
1.7369
1.73694
1.73698
1.73702
1.73707
1.73713
1.73719
1.73725
1.73732
1.7374
1.73748
1.73756
1.73766
1.73775
1.73785
1.73796
1.73807
1.73819
1.73831
1.73843
1.73856
1.73869
1.73882
1.73896
1.7391
1.73924
1.73938
1.73952
1.73966
1.73981
1.73995
1.74009
1.74023
1.74037
1.7405
1.74064
1.74077
1.74089
1.74101
1.74113
1.74124
1.74135
1.74145
1.74155
1.74164
1.74172
1.7418
1.74187
1.74193
1.74198
1.74203
1.74207
1.7421
1.74213
1.74214
1.74215
1.74215
1.74214
1.74212
1.7421
1.74207
1.74203
1.74198
1.74193
1.74187
1.7418
1.74173
1.74165
1.74157
1.74149
1.7414
1.74131
1.74121
1.74112
1.74102
1.74092
1.74083
1.74073
1.74064
1.74055
1.74047
1.74038
1.74031
1.74024
1.74017
1.74012
1.74007
1.74003
1.74
1.73998
1.73996
1.73996
1.73997
1.73999
1.74003
1.74007
1.74013
1.7402
1.74029
1.74039
1.7405
1.74064
1.74079
1.74096
1.74115
1.74136
1.7416
1.74185
1.74214
1.74247
1.74281
1.74319
1.74364
1.74412
1.74458
1.74518
1.74588
1.74644
1.74712
1.74827
1.74908
1.7495
1.75129
1.75319
1.75267
1.75431
1.7602
1.75871
1.75543
1.77094
1.77791
1.74934
1.78504
1.69821
1.72156
1.73648
1.73028
1.73078
1.73416
1.73437
1.7334
1.73395
1.73454
1.73441
1.73432
1.73454
1.73465
1.73463
1.73466
1.73475
1.73478
1.7348
1.73484
1.73488
1.7349
1.73492
1.73494
1.73497
1.73498
1.73499
1.735
1.73501
1.735
1.735
1.735
1.73499
1.73498
1.73496
1.73494
1.73492
1.73489
1.73487
1.73483
1.7348
1.73476
1.73472
1.73468
1.73464
1.73459
1.73455
1.7345
1.73445
1.7344
1.73435
1.7343
1.73425
1.7342
1.73416
1.73411
1.73406
1.73402
1.73398
1.73393
1.73389
1.73386
1.73382
1.73379
1.73376
1.73373
1.73371
1.73369
1.73367
1.73366
1.73365
1.73364
1.73364
1.73363
1.73364
1.73365
1.73366
1.73367
1.73369
1.73372
1.73374
1.73377
1.73381
1.73385
1.73389
1.73393
1.73398
1.73403
1.73409
1.73415
1.73421
1.73427
1.73433
1.73439
1.73446
1.73453
1.73459
1.73466
1.73473
1.7348
1.73486
1.73493
1.735
1.73506
1.73513
1.73519
1.73525
1.73531
1.73537
1.73543
1.73548
1.73553
1.73559
1.73563
1.73568
1.73573
1.73577
1.73582
1.73586
1.73589
1.73593
1.73597
1.736
1.73603
1.73606
1.73609
1.73612
1.73615
1.73617
1.73619
1.73622
1.73624
1.73626
1.73627
1.73629
1.73631
1.73633
1.73634
1.73636
1.73637
1.73638
1.7364
1.73641
1.73642
1.73644
1.73645
1.73647
1.73648
1.7365
1.73651
1.73653
1.73655
1.73657
1.73659
1.73661
1.73663
1.73665
1.73667
1.7367
1.73672
1.73675
1.73677
1.7368
1.73682
1.73685
1.73688
1.7369
1.73693
1.73695
1.73698
1.737
1.73703
1.73705
1.73707
1.73709
1.73711
1.73713
1.73714
1.73716
1.73717
1.73718
1.73719
1.7372
1.73721
1.73722
1.73722
1.73722
1.73723
1.73723
1.73723
1.73723
1.73723
1.73723
1.73722
1.73722
1.73722
1.73722
1.73721
1.73721
1.73721
1.73721
1.7372
1.7372
1.7372
1.7372
1.73721
1.73721
1.73721
1.73721
1.73722
1.73722
1.73723
1.73723
1.73724
1.73724
1.73725
1.73726
1.73726
1.73727
1.73727
1.73728
1.73728
1.73728
1.73728
1.73728
1.73728
1.73728
1.73727
1.73727
1.73726
1.73725
1.73724
1.73723
1.73722
1.73721
1.73719
1.73717
1.73715
1.73714
1.73711
1.73709
1.73707
1.73705
1.73703
1.737
1.73698
1.73696
1.73694
1.73692
1.73689
1.73688
1.73686
1.73684
1.73682
1.73681
1.7368
1.73679
1.73679
1.73678
1.73678
1.73678
1.73679
1.7368
1.73681
1.73683
1.73685
1.73688
1.73691
1.73694
1.73698
1.73703
1.73708
1.73713
1.73719
1.73726
1.73733
1.73741
1.73749
1.73757
1.73767
1.73776
1.73786
1.73797
1.73808
1.7382
1.73832
1.73844
1.73857
1.7387
1.73883
1.73897
1.73911
1.73925
1.73939
1.73953
1.73967
1.73982
1.73996
1.7401
1.74024
1.74037
1.74051
1.74064
1.74077
1.7409
1.74102
1.74113
1.74124
1.74135
1.74145
1.74155
1.74164
1.74172
1.74179
1.74186
1.74192
1.74198
1.74202
1.74206
1.74209
1.74212
1.74213
1.74214
1.74214
1.74213
1.74211
1.74209
1.74205
1.74201
1.74197
1.74191
1.74185
1.74179
1.74171
1.74164
1.74156
1.74147
1.74138
1.74129
1.74119
1.7411
1.741
1.74091
1.74081
1.74072
1.74062
1.74054
1.74045
1.74037
1.74029
1.74022
1.74016
1.74011
1.74006
1.74002
1.73999
1.73997
1.73996
1.73996
1.73997
1.73999
1.74002
1.74007
1.74013
1.7402
1.74029
1.74039
1.74051
1.74064
1.74079
1.74096
1.74116
1.74137
1.74161
1.74187
1.74216
1.74248
1.74284
1.74323
1.74366
1.74413
1.74466
1.74524
1.74584
1.74653
1.74735
1.74815
1.74897
1.75009
1.75136
1.7523
1.75358
1.75585
1.75768
1.75809
1.7617
1.76787
1.76882
1.76549
1.78998
1.75031
1.72253
1.71278
1.73583
1.73855
1.72931
1.73109
1.73562
1.73442
1.73291
1.73406
1.73476
1.73426
1.73418
1.73457
1.73464
1.73455
1.73462
1.73474
1.73475
1.73476
1.73481
1.73485
1.73487
1.73489
1.73491
1.73493
1.73494
1.73495
1.73495
1.73495
1.73495
1.73494
1.73493
1.73492
1.7349
1.73488
1.73485
1.73483
1.7348
1.73477
1.73473
1.73469
1.73465
1.73461
1.73456
1.73452
1.73447
1.73443
1.73438
1.73433
1.73428
1.73423
1.73418
1.73414
1.73409
1.73404
1.734
1.73396
1.73391
1.73388
1.73384
1.73381
1.73377
1.73374
1.73372
1.73369
1.73367
1.73366
1.73364
1.73363
1.73362
1.73362
1.73362
1.73363
1.73363
1.73365
1.73366
1.73368
1.7337
1.73373
1.73376
1.7338
1.73384
1.73388
1.73393
1.73398
1.73403
1.73408
1.73414
1.7342
1.73426
1.73433
1.73439
1.73446
1.73453
1.73459
1.73466
1.73473
1.7348
1.73487
1.73493
1.735
1.73507
1.73513
1.73519
1.73526
1.73532
1.73538
1.73543
1.73549
1.73554
1.73559
1.73564
1.73569
1.73573
1.73578
1.73582
1.73586
1.7359
1.73594
1.73597
1.73601
1.73604
1.73607
1.7361
1.73613
1.73615
1.73618
1.7362
1.73622
1.73624
1.73626
1.73628
1.7363
1.73631
1.73633
1.73635
1.73636
1.73638
1.73639
1.7364
1.73642
1.73643
1.73645
1.73646
1.73648
1.73649
1.73651
1.73652
1.73654
1.73656
1.73658
1.7366
1.73662
1.73664
1.73666
1.73668
1.73671
1.73673
1.73676
1.73678
1.73681
1.73683
1.73686
1.73689
1.73691
1.73694
1.73696
1.73699
1.73701
1.73704
1.73706
1.73708
1.7371
1.73712
1.73714
1.73715
1.73717
1.73718
1.73719
1.7372
1.73721
1.73722
1.73723
1.73723
1.73724
1.73724
1.73724
1.73724
1.73724
1.73724
1.73724
1.73724
1.73723
1.73723
1.73723
1.73723
1.73723
1.73722
1.73722
1.73722
1.73722
1.73722
1.73722
1.73722
1.73722
1.73723
1.73723
1.73723
1.73724
1.73724
1.73725
1.73726
1.73726
1.73727
1.73727
1.73728
1.73728
1.73729
1.73729
1.7373
1.7373
1.7373
1.7373
1.7373
1.7373
1.73729
1.73729
1.73728
1.73727
1.73726
1.73725
1.73724
1.73722
1.73721
1.73719
1.73717
1.73715
1.73713
1.73711
1.73709
1.73706
1.73704
1.73702
1.73699
1.73697
1.73695
1.73693
1.73691
1.73689
1.73687
1.73685
1.73683
1.73682
1.73681
1.7368
1.73679
1.73679
1.73679
1.73679
1.7368
1.73681
1.73682
1.73684
1.73686
1.73688
1.73691
1.73695
1.73699
1.73703
1.73708
1.73714
1.7372
1.73727
1.73734
1.73741
1.73749
1.73758
1.73767
1.73777
1.73787
1.73798
1.73809
1.73821
1.73833
1.73845
1.73858
1.73871
1.73884
1.73898
1.73912
1.73926
1.7394
1.73954
1.73969
1.73983
1.73997
1.74011
1.74025
1.74039
1.74052
1.74065
1.74078
1.7409
1.74102
1.74114
1.74125
1.74136
1.74146
1.74155
1.74164
1.74172
1.74179
1.74186
1.74192
1.74198
1.74202
1.74206
1.74209
1.74211
1.74212
1.74213
1.74213
1.74212
1.7421
1.74208
1.74204
1.742
1.74195
1.7419
1.74184
1.74177
1.7417
1.74162
1.74154
1.74145
1.74136
1.74127
1.74118
1.74108
1.74098
1.74088
1.74079
1.74069
1.7406
1.74051
1.74043
1.74035
1.74027
1.7402
1.74014
1.74008
1.74003
1.73999
1.73996
1.73994
1.73993
1.73993
1.73994
1.73996
1.74
1.74004
1.7401
1.74017
1.74026
1.74036
1.74048
1.74062
1.74077
1.74094
1.74113
1.74134
1.74158
1.74185
1.74214
1.74245
1.74282
1.74322
1.74362
1.7441
1.74466
1.7452
1.74576
1.74658
1.74737
1.74792
1.74898
1.75046
1.75089
1.75169
1.75483
1.75587
1.75432
1.76007
1.76666
1.75797
1.76112
1.78938
1.77918
1.73301
1.72964
1.72998
1.73261
1.73086
1.73227
1.73399
1.73333
1.73309
1.73392
1.73418
1.73395
1.73409
1.73435
1.73438
1.73438
1.73449
1.73457
1.7346
1.73464
1.7347
1.73474
1.73476
1.73479
1.73482
1.73485
1.73486
1.73488
1.73489
1.7349
1.7349
1.7349
1.7349
1.73489
1.73487
1.73486
1.73484
1.73482
1.73479
1.73476
1.73473
1.7347
1.73466
1.73462
1.73458
1.73454
1.73449
1.73445
1.7344
1.73435
1.73431
1.73426
1.73421
1.73416
1.73411
1.73407
1.73402
1.73398
1.73394
1.7339
1.73386
1.73382
1.73379
1.73375
1.73372
1.7337
1.73367
1.73365
1.73364
1.73362
1.73361
1.7336
1.7336
1.7336
1.73361
1.73361
1.73363
1.73364
1.73366
1.73369
1.73372
1.73375
1.73378
1.73382
1.73387
1.73391
1.73396
1.73402
1.73407
1.73413
1.73419
1.73426
1.73432
1.73439
1.73446
1.73452
1.73459
1.73466
1.73473
1.7348
1.73487
1.73494
1.73501
1.73507
1.73514
1.7352
1.73526
1.73532
1.73538
1.73544
1.7355
1.73555
1.7356
1.73565
1.7357
1.73574
1.73579
1.73583
1.73587
1.73591
1.73595
1.73598
1.73602
1.73605
1.73608
1.73611
1.73613
1.73616
1.73619
1.73621
1.73623
1.73625
1.73627
1.73629
1.73631
1.73633
1.73634
1.73636
1.73637
1.73639
1.7364
1.73642
1.73643
1.73645
1.73646
1.73647
1.73649
1.73651
1.73652
1.73654
1.73656
1.73657
1.73659
1.73661
1.73664
1.73666
1.73668
1.7367
1.73673
1.73675
1.73678
1.7368
1.73683
1.73685
1.73688
1.7369
1.73693
1.73696
1.73698
1.73701
1.73703
1.73705
1.73708
1.7371
1.73712
1.73714
1.73716
1.73717
1.73719
1.7372
1.73721
1.73722
1.73723
1.73724
1.73725
1.73725
1.73726
1.73726
1.73726
1.73726
1.73726
1.73726
1.73726
1.73726
1.73726
1.73725
1.73725
1.73725
1.73725
1.73725
1.73725
1.73725
1.73725
1.73725
1.73725
1.73725
1.73725
1.73725
1.73726
1.73726
1.73727
1.73727
1.73728
1.73728
1.73729
1.73729
1.7373
1.73731
1.73731
1.73732
1.73732
1.73732
1.73732
1.73733
1.73733
1.73732
1.73732
1.73732
1.73731
1.7373
1.7373
1.73729
1.73727
1.73726
1.73725
1.73723
1.73721
1.73719
1.73717
1.73715
1.73713
1.73711
1.73709
1.73706
1.73704
1.73702
1.73699
1.73697
1.73695
1.73692
1.7369
1.73688
1.73687
1.73685
1.73684
1.73682
1.73681
1.73681
1.7368
1.7368
1.7368
1.73681
1.73681
1.73683
1.73684
1.73686
1.73689
1.73692
1.73695
1.73699
1.73704
1.73709
1.73714
1.7372
1.73727
1.73734
1.73742
1.7375
1.73758
1.73768
1.73777
1.73788
1.73798
1.7381
1.73821
1.73833
1.73846
1.73859
1.73872
1.73885
1.73899
1.73913
1.73927
1.73941
1.73956
1.7397
1.73984
1.73998
1.74012
1.74026
1.7404
1.74053
1.74067
1.74079
1.74092
1.74104
1.74115
1.74126
1.74137
1.74147
1.74156
1.74165
1.74173
1.7418
1.74187
1.74193
1.74198
1.74202
1.74206
1.74209
1.74211
1.74212
1.74213
1.74212
1.74211
1.7421
1.74207
1.74203
1.74199
1.74194
1.74189
1.74183
1.74176
1.74169
1.74161
1.74152
1.74144
1.74134
1.74125
1.74115
1.74106
1.74096
1.74086
1.74076
1.74067
1.74057
1.74048
1.7404
1.74031
1.74024
1.74017
1.7401
1.74004
1.74
1.73995
1.73992
1.7399
1.73989
1.73989
1.7399
1.73992
1.73995
1.74
1.74006
1.74013
1.74021
1.74031
1.74043
1.74057
1.74072
1.74089
1.74108
1.74129
1.74153
1.74179
1.74208
1.7424
1.74275
1.74313
1.74357
1.74403
1.74454
1.74512
1.74575
1.7464
1.74715
1.74802
1.74887
1.74982
1.75102
1.75218
1.75336
1.75506
1.75668
1.75805
1.76073
1.76356
1.76462
1.77057
1.769
1.72159
1.73388
1.73947
1.72791
1.72822
1.73595
1.73432
1.73131
1.73332
1.73473
1.7337
1.73348
1.73425
1.73438
1.73413
1.73426
1.73448
1.73448
1.73447
1.73457
1.73464
1.73465
1.73469
1.73473
1.73476
1.73478
1.7348
1.73482
1.73484
1.73484
1.73485
1.73485
1.73485
1.73484
1.73483
1.73482
1.7348
1.73478
1.73475
1.73473
1.7347
1.73466
1.73463
1.73459
1.73455
1.73451
1.73446
1.73442
1.73437
1.73433
1.73428
1.73423
1.73419
1.73414
1.73409
1.73405
1.734
1.73396
1.73392
1.73387
1.73384
1.7338
1.73376
1.73373
1.7337
1.73368
1.73365
1.73363
1.73361
1.7336
1.73359
1.73358
1.73358
1.73358
1.73358
1.73359
1.7336
1.73362
1.73364
1.73367
1.7337
1.73373
1.73377
1.73381
1.73385
1.7339
1.73395
1.734
1.73406
1.73412
1.73418
1.73425
1.73431
1.73438
1.73445
1.73452
1.73459
1.73466
1.73473
1.7348
1.73488
1.73494
1.73501
1.73508
1.73515
1.73521
1.73527
1.73533
1.73539
1.73545
1.73551
1.73556
1.73561
1.73566
1.73571
1.73576
1.7358
1.73584
1.73588
1.73592
1.73596
1.73599
1.73603
1.73606
1.73609
1.73612
1.73615
1.73617
1.7362
1.73622
1.73625
1.73627
1.73629
1.73631
1.73632
1.73634
1.73636
1.73637
1.73639
1.7364
1.73642
1.73643
1.73645
1.73646
1.73648
1.73649
1.73651
1.73652
1.73654
1.73656
1.73658
1.7366
1.73662
1.73663
1.73666
1.73668
1.7367
1.73672
1.73675
1.73677
1.7368
1.73682
1.73685
1.73688
1.7369
1.73693
1.73695
1.73698
1.73701
1.73703
1.73705
1.73708
1.7371
1.73712
1.73714
1.73716
1.73718
1.7372
1.73721
1.73722
1.73724
1.73725
1.73726
1.73727
1.73727
1.73728
1.73728
1.73729
1.73729
1.73729
1.73729
1.73729
1.73729
1.73729
1.73729
1.73728
1.73728
1.73728
1.73728
1.73728
1.73728
1.73728
1.73728
1.73728
1.73728
1.73728
1.73728
1.73729
1.73729
1.7373
1.7373
1.73731
1.73731
1.73732
1.73732
1.73733
1.73734
1.73734
1.73735
1.73735
1.73735
1.73736
1.73736
1.73736
1.73736
1.73736
1.73736
1.73735
1.73735
1.73734
1.73733
1.73732
1.73731
1.73729
1.73728
1.73726
1.73724
1.73723
1.73721
1.73718
1.73716
1.73714
1.73712
1.73709
1.73707
1.73704
1.73702
1.73699
1.73697
1.73695
1.73693
1.73691
1.73689
1.73687
1.73685
1.73684
1.73683
1.73682
1.73682
1.73681
1.73681
1.73682
1.73682
1.73683
1.73685
1.73687
1.73689
1.73692
1.73696
1.737
1.73704
1.73709
1.73714
1.7372
1.73727
1.73734
1.73742
1.7375
1.73758
1.73768
1.73778
1.73788
1.73799
1.7381
1.73822
1.73834
1.73847
1.73859
1.73873
1.73886
1.739
1.73914
1.73928
1.73943
1.73957
1.73971
1.73986
1.74
1.74014
1.74028
1.74042
1.74055
1.74068
1.74081
1.74093
1.74105
1.74117
1.74128
1.74138
1.74148
1.74157
1.74166
1.74174
1.74181
1.74188
1.74193
1.74198
1.74203
1.74206
1.74209
1.74211
1.74212
1.74213
1.74212
1.74211
1.74209
1.74207
1.74203
1.74199
1.74194
1.74188
1.74182
1.74175
1.74167
1.74159
1.74151
1.74142
1.74133
1.74123
1.74113
1.74103
1.74093
1.74083
1.74073
1.74063
1.74054
1.74045
1.74036
1.74027
1.7402
1.74012
1.74006
1.74
1.73995
1.7399
1.73987
1.73985
1.73983
1.73983
1.73984
1.73986
1.73989
1.73994
1.73999
1.74006
1.74015
1.74025
1.74036
1.74049
1.74064
1.74081
1.74099
1.7412
1.74144
1.74169
1.74198
1.7423
1.74264
1.74301
1.74345
1.74391
1.74438
1.74497
1.74563
1.74618
1.74689
1.74795
1.74867
1.74922
1.75089
1.75239
1.75207
1.75386
1.75823
1.75707
1.75493
1.76488
1.7688
1.75672
1.76248
1.73408
1.73172
1.73007
1.73233
1.73483
1.73244
1.73161
1.73396
1.73424
1.73313
1.7335
1.73426
1.73409
1.7339
1.73419
1.73437
1.73431
1.73435
1.73448
1.73453
1.73454
1.73459
1.73465
1.73467
1.7347
1.73473
1.73476
1.73477
1.73479
1.7348
1.7348
1.73481
1.73481
1.7348
1.73479
1.73478
1.73476
1.73474
1.73472
1.73469
1.73466
1.73463
1.7346
1.73456
1.73452
1.73448
1.73444
1.73439
1.73435
1.7343
1.73426
1.73421
1.73416
1.73412
1.73407
1.73402
1.73398
1.73394
1.73389
1.73385
1.73382
1.73378
1.73374
1.73371
1.73368
1.73365
1.73363
1.73361
1.73359
1.73358
1.73357
1.73356
1.73355
1.73355
1.73356
1.73357
1.73358
1.7336
1.73362
1.73364
1.73367
1.73371
1.73374
1.73378
1.73383
1.73388
1.73393
1.73399
1.73405
1.73411
1.73417
1.73424
1.73431
1.73438
1.73445
1.73452
1.73459
1.73466
1.73474
1.73481
1.73488
1.73495
1.73502
1.73509
1.73516
1.73522
1.73529
1.73535
1.73541
1.73547
1.73552
1.73558
1.73563
1.73568
1.73573
1.73577
1.73582
1.73586
1.7359
1.73594
1.73598
1.73601
1.73605
1.73608
1.73611
1.73614
1.73617
1.73619
1.73622
1.73624
1.73626
1.73628
1.7363
1.73632
1.73634
1.73636
1.73638
1.73639
1.73641
1.73642
1.73644
1.73646
1.73647
1.73649
1.7365
1.73652
1.73653
1.73655
1.73657
1.73658
1.7366
1.73662
1.73664
1.73666
1.73668
1.7367
1.73673
1.73675
1.73678
1.7368
1.73683
1.73685
1.73688
1.7369
1.73693
1.73696
1.73698
1.73701
1.73703
1.73706
1.73708
1.73711
1.73713
1.73715
1.73717
1.73719
1.73721
1.73723
1.73724
1.73726
1.73727
1.73728
1.73729
1.7373
1.73731
1.73731
1.73732
1.73732
1.73732
1.73732
1.73733
1.73733
1.73733
1.73732
1.73732
1.73732
1.73732
1.73732
1.73732
1.73732
1.73732
1.73732
1.73732
1.73732
1.73732
1.73732
1.73733
1.73733
1.73733
1.73734
1.73734
1.73735
1.73735
1.73736
1.73737
1.73737
1.73738
1.73738
1.73739
1.73739
1.7374
1.7374
1.7374
1.7374
1.7374
1.7374
1.7374
1.73739
1.73739
1.73738
1.73737
1.73736
1.73735
1.73733
1.73732
1.7373
1.73728
1.73726
1.73724
1.73722
1.7372
1.73718
1.73715
1.73713
1.7371
1.73708
1.73705
1.73703
1.737
1.73698
1.73696
1.73693
1.73691
1.73689
1.73688
1.73686
1.73685
1.73684
1.73683
1.73683
1.73683
1.73683
1.73683
1.73684
1.73686
1.73688
1.7369
1.73693
1.73696
1.737
1.73704
1.73709
1.73714
1.7372
1.73727
1.73734
1.73741
1.73749
1.73758
1.73767
1.73777
1.73788
1.73799
1.7381
1.73822
1.73834
1.73847
1.7386
1.73873
1.73887
1.73901
1.73915
1.73929
1.73944
1.73958
1.73973
1.73987
1.74001
1.74016
1.74029
1.74043
1.74057
1.7407
1.74083
1.74095
1.74107
1.74118
1.74129
1.7414
1.74149
1.74159
1.74167
1.74175
1.74182
1.74189
1.74194
1.74199
1.74204
1.74207
1.7421
1.74212
1.74213
1.74213
1.74213
1.74211
1.74209
1.74206
1.74203
1.74198
1.74193
1.74187
1.74181
1.74174
1.74166
1.74158
1.74149
1.7414
1.74131
1.74121
1.74111
1.74101
1.7409
1.7408
1.7407
1.7406
1.7405
1.74041
1.74031
1.74023
1.74015
1.74007
1.74
1.73994
1.73989
1.73985
1.73981
1.73978
1.73977
1.73976
1.73977
1.73979
1.73982
1.73986
1.73991
1.73998
1.74006
1.74016
1.74027
1.7404
1.74054
1.74071
1.74089
1.74109
1.74132
1.74157
1.74185
1.74215
1.7425
1.74287
1.74327
1.74373
1.74423
1.74474
1.74534
1.74605
1.74669
1.7474
1.7484
1.74932
1.74997
1.7513
1.75293
1.75337
1.7543
1.75743
1.75857
1.75804
1.76109
1.76207
1.76268
1.7371
1.7316
1.72949
1.735
1.73441
1.73089
1.733
1.73478
1.73325
1.73297
1.73414
1.73418
1.73373
1.73398
1.73431
1.73423
1.7342
1.73437
1.73445
1.73444
1.73449
1.73456
1.7346
1.73462
1.73466
1.73469
1.73471
1.73473
1.73474
1.73475
1.73476
1.73476
1.73476
1.73476
1.73475
1.73474
1.73473
1.73471
1.73468
1.73466
1.73463
1.7346
1.73457
1.73453
1.73449
1.73445
1.73441
1.73437
1.73432
1.73428
1.73423
1.73419
1.73414
1.73409
1.73405
1.734
1.73396
1.73392
1.73387
1.73383
1.73379
1.73376
1.73372
1.73369
1.73366
1.73363
1.73361
1.73359
1.73357
1.73355
1.73354
1.73353
1.73353
1.73353
1.73353
1.73354
1.73356
1.73357
1.73359
1.73362
1.73365
1.73368
1.73372
1.73376
1.73381
1.73386
1.73391
1.73397
1.73403
1.73409
1.73416
1.73423
1.7343
1.73437
1.73444
1.73451
1.73459
1.73466
1.73474
1.73481
1.73488
1.73496
1.73503
1.7351
1.73517
1.73523
1.7353
1.73536
1.73542
1.73548
1.73554
1.73559
1.73564
1.73569
1.73574
1.73579
1.73583
1.73588
1.73592
1.73596
1.73599
1.73603
1.73606
1.7361
1.73613
1.73616
1.73618
1.73621
1.73624
1.73626
1.73628
1.7363
1.73633
1.73634
1.73636
1.73638
1.7364
1.73642
1.73643
1.73645
1.73646
1.73648
1.7365
1.73651
1.73653
1.73654
1.73656
1.73658
1.73659
1.73661
1.73663
1.73665
1.73667
1.73669
1.73671
1.73673
1.73676
1.73678
1.73681
1.73683
1.73686
1.73688
1.73691
1.73694
1.73696
1.73699
1.73701
1.73704
1.73707
1.73709
1.73712
1.73714
1.73716
1.73718
1.73721
1.73722
1.73724
1.73726
1.73728
1.73729
1.7373
1.73732
1.73733
1.73733
1.73734
1.73735
1.73735
1.73736
1.73736
1.73736
1.73737
1.73737
1.73737
1.73737
1.73737
1.73737
1.73736
1.73736
1.73736
1.73736
1.73736
1.73736
1.73736
1.73737
1.73737
1.73737
1.73737
1.73738
1.73738
1.73739
1.73739
1.7374
1.7374
1.73741
1.73742
1.73742
1.73743
1.73743
1.73744
1.73744
1.73745
1.73745
1.73745
1.73745
1.73745
1.73745
1.73745
1.73744
1.73744
1.73743
1.73742
1.73741
1.73739
1.73738
1.73737
1.73735
1.73733
1.73731
1.73729
1.73727
1.73724
1.73722
1.73719
1.73717
1.73714
1.73711
1.73709
1.73706
1.73704
1.73701
1.73699
1.73696
1.73694
1.73692
1.7369
1.73689
1.73687
1.73686
1.73685
1.73685
1.73684
1.73684
1.73685
1.73685
1.73687
1.73688
1.73691
1.73693
1.73696
1.737
1.73704
1.73709
1.73714
1.7372
1.73726
1.73733
1.73741
1.73749
1.73758
1.73767
1.73777
1.73787
1.73798
1.7381
1.73822
1.73834
1.73847
1.7386
1.73874
1.73888
1.73902
1.73916
1.7393
1.73945
1.73959
1.73974
1.73988
1.74003
1.74017
1.74031
1.74045
1.74059
1.74072
1.74084
1.74097
1.74109
1.7412
1.74131
1.74141
1.74151
1.7416
1.74169
1.74176
1.74184
1.7419
1.74196
1.742
1.74205
1.74208
1.74211
1.74212
1.74213
1.74214
1.74213
1.74211
1.74209
1.74206
1.74202
1.74198
1.74193
1.74187
1.7418
1.74173
1.74165
1.74156
1.74148
1.74138
1.74128
1.74118
1.74108
1.74098
1.74087
1.74077
1.74066
1.74056
1.74046
1.74036
1.74027
1.74018
1.74009
1.74001
1.73994
1.73988
1.73982
1.73978
1.73974
1.73971
1.73969
1.73968
1.73969
1.7397
1.73973
1.73977
1.73982
1.73989
1.73996
1.74006
1.74017
1.74029
1.74043
1.74059
1.74077
1.74096
1.74118
1.74143
1.7417
1.74199
1.74232
1.74269
1.74307
1.7435
1.74402
1.74451
1.74502
1.74575
1.74647
1.74696
1.74786
1.74912
1.74958
1.75011
1.75237
1.75361
1.75249
1.75496
1.75929
1.7564
1.75566
1.76294
1.7606
1.73129
1.73351
1.73494
1.73249
1.73142
1.73409
1.73451
1.73259
1.73307
1.7344
1.73395
1.73346
1.734
1.7343
1.73406
1.73408
1.73432
1.73437
1.73433
1.73441
1.7345
1.73451
1.73454
1.73459
1.73462
1.73464
1.73467
1.73469
1.7347
1.73471
1.73472
1.73473
1.73473
1.73472
1.73472
1.73471
1.73469
1.73467
1.73465
1.73463
1.7346
1.73457
1.73454
1.7345
1.73447
1.73443
1.73439
1.73434
1.7343
1.73426
1.73421
1.73417
1.73412
1.73407
1.73403
1.73398
1.73394
1.7339
1.73385
1.73381
1.73377
1.73374
1.7337
1.73367
1.73364
1.73361
1.73359
1.73356
1.73354
1.73353
1.73352
1.73351
1.73351
1.7335
1.73351
1.73352
1.73353
1.73355
1.73357
1.73359
1.73362
1.73366
1.7337
1.73374
1.73379
1.73384
1.73389
1.73395
1.73401
1.73408
1.73414
1.73421
1.73429
1.73436
1.73443
1.73451
1.73458
1.73466
1.73474
1.73481
1.73489
1.73496
1.73503
1.73511
1.73518
1.73524
1.73531
1.73537
1.73543
1.73549
1.73555
1.73561
1.73566
1.73571
1.73576
1.73581
1.73585
1.7359
1.73594
1.73598
1.73601
1.73605
1.73608
1.73612
1.73615
1.73618
1.73621
1.73623
1.73626
1.73628
1.73631
1.73633
1.73635
1.73637
1.73639
1.73641
1.73642
1.73644
1.73646
1.73647
1.73649
1.73651
1.73652
1.73654
1.73656
1.73657
1.73659
1.73661
1.73662
1.73664
1.73666
1.73668
1.7367
1.73672
1.73675
1.73677
1.73679
1.73682
1.73684
1.73687
1.73689
1.73692
1.73694
1.73697
1.737
1.73702
1.73705
1.73708
1.7371
1.73713
1.73715
1.73718
1.7372
1.73722
1.73724
1.73726
1.73728
1.7373
1.73732
1.73733
1.73734
1.73736
1.73737
1.73738
1.73738
1.73739
1.7374
1.7374
1.73741
1.73741
1.73741
1.73741
1.73741
1.73741
1.73741
1.73741
1.73741
1.73741
1.73741
1.73741
1.73741
1.73741
1.73742
1.73742
1.73742
1.73742
1.73743
1.73743
1.73743
1.73744
1.73745
1.73745
1.73746
1.73746
1.73747
1.73747
1.73748
1.73749
1.73749
1.7375
1.7375
1.7375
1.7375
1.7375
1.7375
1.7375
1.7375
1.73749
1.73749
1.73748
1.73747
1.73746
1.73745
1.73743
1.73742
1.7374
1.73738
1.73736
1.73734
1.73731
1.73729
1.73726
1.73724
1.73721
1.73719
1.73716
1.73713
1.7371
1.73708
1.73705
1.73702
1.737
1.73698
1.73695
1.73693
1.73692
1.7369
1.73688
1.73687
1.73687
1.73686
1.73686
1.73686
1.73687
1.73688
1.73689
1.73691
1.73694
1.73697
1.737
1.73704
1.73709
1.73714
1.73719
1.73726
1.73733
1.7374
1.73748
1.73757
1.73767
1.73776
1.73787
1.73798
1.73809
1.73822
1.73834
1.73847
1.7386
1.73874
1.73888
1.73902
1.73916
1.73931
1.73946
1.7396
1.73975
1.7399
1.74004
1.74019
1.74033
1.74047
1.7406
1.74073
1.74086
1.74099
1.7411
1.74122
1.74133
1.74143
1.74153
1.74162
1.7417
1.74178
1.74185
1.74191
1.74197
1.74201
1.74206
1.74209
1.74211
1.74213
1.74214
1.74214
1.74213
1.74212
1.74209
1.74206
1.74202
1.74197
1.74192
1.74186
1.74179
1.74172
1.74163
1.74155
1.74146
1.74136
1.74126
1.74116
1.74105
1.74094
1.74084
1.74073
1.74062
1.74051
1.74041
1.74031
1.74021
1.74012
1.74003
1.73995
1.73988
1.73981
1.73975
1.7397
1.73966
1.73963
1.73961
1.7396
1.7396
1.73961
1.73963
1.73967
1.73972
1.73978
1.73985
1.73994
1.74005
1.74017
1.7403
1.74045
1.74062
1.74082
1.74103
1.74126
1.74152
1.74181
1.74212
1.74247
1.74286
1.74326
1.7437
1.74425
1.74479
1.74529
1.74602
1.74683
1.74734
1.7481
1.74944
1.75015
1.75036
1.75214
1.75397
1.7534
1.75422
1.75714
1.75694
1.75645
1.75685
1.73197
1.73381
1.73433
1.73222
1.73305
1.73447
1.73319
1.7329
1.73414
1.73404
1.73344
1.73386
1.73424
1.73402
1.73399
1.73424
1.7343
1.73425
1.73433
1.73443
1.73444
1.73446
1.73452
1.73456
1.73458
1.73461
1.73464
1.73465
1.73467
1.73468
1.73469
1.73469
1.73469
1.73469
1.73468
1.73467
1.73466
1.73464
1.73462
1.7346
1.73457
1.73454
1.73451
1.73448
1.73444
1.7344
1.73436
1.73432
1.73428
1.73423
1.73419
1.73414
1.7341
1.73405
1.73401
1.73396
1.73392
1.73388
1.73383
1.73379
1.73375
1.73372
1.73368
1.73365
1.73362
1.73359
1.73356
1.73354
1.73352
1.73351
1.73349
1.73349
1.73348
1.73348
1.73348
1.73349
1.73351
1.73352
1.73354
1.73357
1.7336
1.73363
1.73367
1.73372
1.73377
1.73382
1.73387
1.73393
1.73399
1.73406
1.73413
1.7342
1.73427
1.73435
1.73442
1.7345
1.73458
1.73466
1.73474
1.73481
1.73489
1.73496
1.73504
1.73511
1.73518
1.73525
1.73532
1.73538
1.73545
1.73551
1.73557
1.73562
1.73568
1.73573
1.73578
1.73582
1.73587
1.73591
1.73596
1.73599
1.73603
1.73607
1.7361
1.73614
1.73617
1.7362
1.73623
1.73625
1.73628
1.7363
1.73633
1.73635
1.73637
1.73639
1.73641
1.73643
1.73645
1.73647
1.73648
1.7365
1.73652
1.73653
1.73655
1.73657
1.73658
1.7366
1.73662
1.73664
1.73666
1.73667
1.73669
1.73671
1.73674
1.73676
1.73678
1.7368
1.73683
1.73685
1.73688
1.7369
1.73693
1.73695
1.73698
1.73701
1.73703
1.73706
1.73709
1.73711
1.73714
1.73717
1.73719
1.73721
1.73724
1.73726
1.73728
1.7373
1.73732
1.73734
1.73736
1.73737
1.73739
1.7374
1.73741
1.73742
1.73743
1.73743
1.73744
1.73745
1.73745
1.73745
1.73746
1.73746
1.73746
1.73746
1.73746
1.73746
1.73746
1.73746
1.73746
1.73747
1.73747
1.73747
1.73747
1.73747
1.73747
1.73748
1.73748
1.73749
1.73749
1.7375
1.7375
1.73751
1.73751
1.73752
1.73753
1.73753
1.73754
1.73754
1.73755
1.73755
1.73756
1.73756
1.73756
1.73756
1.73756
1.73756
1.73756
1.73755
1.73754
1.73754
1.73753
1.73752
1.7375
1.73749
1.73747
1.73745
1.73743
1.73741
1.73739
1.73737
1.73734
1.73732
1.73729
1.73726
1.73723
1.7372
1.73718
1.73715
1.73712
1.73709
1.73706
1.73704
1.73701
1.73699
1.73697
1.73695
1.73693
1.73691
1.7369
1.73689
1.73688
1.73688
1.73688
1.73688
1.73689
1.7369
1.73692
1.73694
1.73697
1.737
1.73704
1.73709
1.73714
1.73719
1.73725
1.73732
1.7374
1.73748
1.73757
1.73766
1.73776
1.73786
1.73797
1.73809
1.73821
1.73834
1.73847
1.7386
1.73874
1.73888
1.73902
1.73917
1.73932
1.73946
1.73961
1.73976
1.73991
1.74005
1.7402
1.74034
1.74048
1.74062
1.74075
1.74088
1.741
1.74112
1.74123
1.74134
1.74145
1.74154
1.74163
1.74171
1.74179
1.74186
1.74192
1.74198
1.74202
1.74206
1.74209
1.74212
1.74213
1.74214
1.74214
1.74213
1.74212
1.74209
1.74206
1.74202
1.74197
1.74191
1.74185
1.74178
1.7417
1.74162
1.74153
1.74144
1.74134
1.74123
1.74113
1.74102
1.74091
1.7408
1.74069
1.74057
1.74046
1.74036
1.74025
1.74015
1.74006
1.73996
1.73988
1.7398
1.73973
1.73967
1.73962
1.73957
1.73954
1.73951
1.7395
1.7395
1.73951
1.73953
1.73956
1.7396
1.73966
1.73973
1.73982
1.73992
1.74003
1.74016
1.74031
1.74047
1.74065
1.74086
1.74108
1.74133
1.74161
1.74191
1.74223
1.74261
1.74301
1.74341
1.7439
1.74449
1.74497
1.7455
1.74636
1.74707
1.74744
1.74845
1.74983
1.75
1.75042
1.75275
1.75338
1.75228
1.75492
1.75655
1.75365
1.75494
1.73493
1.73316
1.73225
1.73405
1.73449
1.73276
1.733
1.73445
1.73394
1.7332
1.73391
1.73431
1.73388
1.73387
1.73424
1.73426
1.73414
1.73426
1.73438
1.73438
1.73439
1.73446
1.73451
1.73452
1.73455
1.73459
1.7346
1.73462
1.73464
1.73465
1.73466
1.73466
1.73466
1.73466
1.73465
1.73464
1.73463
1.73461
1.73459
1.73457
1.73454
1.73452
1.73449
1.73445
1.73442
1.73438
1.73434
1.7343
1.73426
1.73421
1.73417
1.73413
1.73408
1.73404
1.73399
1.73395
1.7339
1.73386
1.73382
1.73378
1.73374
1.7337
1.73366
1.73363
1.7336
1.73357
1.73355
1.73352
1.7335
1.73349
1.73347
1.73346
1.73346
1.73346
1.73346
1.73347
1.73348
1.7335
1.73352
1.73355
1.73358
1.73361
1.73365
1.73369
1.73374
1.7338
1.73385
1.73391
1.73398
1.73404
1.73411
1.73419
1.73426
1.73434
1.73441
1.73449
1.73457
1.73465
1.73473
1.73481
1.73489
1.73497
1.73504
1.73512
1.73519
1.73526
1.73533
1.73539
1.73546
1.73552
1.73558
1.73563
1.73569
1.73574
1.73579
1.73584
1.73589
1.73593
1.73597
1.73601
1.73605
1.73609
1.73612
1.73616
1.73619
1.73622
1.73625
1.73627
1.7363
1.73633
1.73635
1.73637
1.73639
1.73642
1.73644
1.73646
1.73647
1.73649
1.73651
1.73653
1.73655
1.73656
1.73658
1.7366
1.73661
1.73663
1.73665
1.73667
1.73669
1.73671
1.73673
1.73675
1.73677
1.73679
1.73681
1.73684
1.73686
1.73689
1.73691
1.73694
1.73696
1.73699
1.73702
1.73705
1.73707
1.7371
1.73713
1.73715
1.73718
1.73721
1.73723
1.73725
1.73728
1.7373
1.73732
1.73734
1.73736
1.73738
1.7374
1.73741
1.73743