# vtk DataFile Version 2.0
LBE two cylinders
ASCII
DATASET STRUCTURED_POINTS
DIMENSIONS 400 100 1
ASPECT_RATIO 1 1 1
ORIGIN 0 0 0
POINT_DATA 40000
SCALARS rho double 1
LOOKUP_TABLE default
1.67028
1.72573
1.73974
1.71885
1.71994
1.72895
1.72765
1.72444
1.72601
1.72746
1.72673
1.72644
1.72709
1.72734
1.72723
1.72737
1.72765
1.72777
1.72787
1.72804
1.72822
1.72835
1.72849
1.72864
1.72878
1.72891
1.72904
1.72916
1.72928
1.72938
1.72948
1.72957
1.72965
1.72972
1.72979
1.72984
1.72988
1.72991
1.72993
1.72994
1.72995
1.72994
1.72992
1.72989
1.72985
1.7298
1.72975
1.72968
1.72961
1.72953
1.72945
1.72935
1.72926
1.72915
1.72905
1.72894
1.72882
1.7287
1.72859
1.72846
1.72834
1.72821
1.72809
1.72795
1.72782
1.72769
1.72756
1.72742
1.72729
1.72715
1.72701
1.72687
1.72673
1.72659
1.72646
1.72632
1.72618
1.72604
1.72591
1.72577
1.72564
1.72551
1.72538
1.72526
1.72515
1.72503
1.72493
1.72483
1.72474
1.72466
1.72459
1.72453
1.72448
1.72444
1.72442
1.72441
1.72441
1.72443
1.72447
1.72453
1.7246
1.72469
1.72479
1.72492
1.72506
1.72522
1.7254
1.7256
1.72581
1.72603
1.72628
1.72653
1.7268
1.72708
1.72737
1.72766
1.72797
1.72829
1.72861
1.72894
1.72927
1.7296
1.72994
1.73028
1.73062
1.73095
1.7313
1.73163
1.73197
1.73231
1.73264
1.73297
1.7333
1.73362
1.73394
1.73425
1.73456
1.73486
1.73515
1.73543
1.73571
1.73597
1.73622
1.73646
1.73669
1.73691
1.73712
1.73731
1.73749
1.73765
1.7378
1.73794
1.73806
1.73817
1.73827
1.73836
1.73843
1.73849
1.73854
1.73858
1.73861
1.73863
1.73864
1.73864
1.73864
1.73862
1.7386
1.73857
1.73854
1.73849
1.73845
1.73839
1.73833
1.73826
1.73819
1.73811
1.73802
1.73794
1.73784
1.73775
1.73765
1.73754
1.73744
1.73734
1.73723
1.73713
1.73703
1.73693
1.73684
1.73676
1.73668
1.73661
1.73655
1.7365
1.73646
1.73643
1.73641
1.73641
1.73643
1.73645
1.73649
1.73655
1.73661
1.73669
1.73679
1.73689
1.73701
1.73713
1.73726
1.73741
1.73755
1.73771
1.73786
1.73802
1.73818
1.73835
1.73851
1.73867
1.73882
1.73897
1.73912
1.73927
1.7394
1.73953
1.73965
1.73977
1.73987
1.73996
1.74005
1.74012
1.74018
1.74023
1.74027
1.7403
1.74031
1.74032
1.74031
1.74028
1.74024
1.74019
1.74013
1.74005
1.73996
1.73986
1.73974
1.73961
1.73947
1.73932
1.73915
1.73898
1.73879
1.73859
1.73838
1.73816
1.73794
1.73771
1.73747
1.73722
1.73697
1.73672
1.73646
1.7362
1.73594
1.73567
1.73541
1.73514
1.73488
1.73462
1.73436
1.7341
1.73384
1.73359
1.73334
1.73309
1.73285
1.73262
1.73238
1.73216
1.73194
1.73172
1.73152
1.73132
1.73114
1.73096
1.7308
1.73065
1.73052
1.7304
1.73029
1.7302
1.73013
1.73007
1.73003
1.73001
1.73
1.73001
1.73004
1.73008
1.73013
1.7302
1.73028
1.73037
1.73048
1.73059
1.73072
1.73085
1.731
1.73115
1.73131
1.73147
1.73165
1.73183
1.73201
1.73221
1.7324
1.73261
1.73281
1.73303
1.73325
1.73347
1.73369
1.73392
1.73415
1.73438
1.73461
1.73484
1.73507
1.7353
1.73553
1.73576
1.73598
1.7362
1.73642
1.73663
1.73683
1.73703
1.73722
1.7374
1.73758
1.73774
1.7379
1.73805
1.73818
1.73831
1.73843
1.73853
1.73862
1.7387
1.73877
1.73883
1.73887
1.73891
1.73893
1.73893
1.73893
1.73891
1.73888
1.73884
1.73879
1.73873
1.73866
1.73858
1.73849
1.73839
1.73829
1.73818
1.73807
1.73796
1.73785
1.73774
1.73763
1.73753
1.73744
1.73737
1.73731
1.73728
1.73728
1.73729
1.73734
1.73747
1.73763
1.73778
1.73808
1.73851
1.7388
1.73923
1.74015
1.74076
1.74101
1.74263
1.74442
1.74381
1.74537
1.75119
1.74968
1.74641
1.76184
1.76879
1.74034
1.77589
1.68984
1.71308
1.72798
1.72185
1.72241
1.72584
1.72612
1.72523
1.72586
1.72654
1.7265
1.72651
1.72683
1.72705
1.72714
1.72729
1.72749
1.72765
1.7278
1.72796
1.72812
1.72827
1.72842
1.72857
1.72871
1.72885
1.72898
1.7291
1.72922
1.72933
1.72943
1.72952
1.72961
1.72967
1.72974
1.72979
1.72984
1.72987
1.72989
1.7299
1.72991
1.7299
1.72988
1.72985
1.72982
1.72977
1.72971
1.72965
1.72958
1.7295
1.72942
1.72932
1.72923
1.72913
1.72902
1.72891
1.7288
1.72868
1.72857
1.72844
1.72832
1.72819
1.72807
1.72794
1.72781
1.72767
1.72754
1.7274
1.72727
1.72713
1.727
1.72686
1.72672
1.72658
1.72644
1.7263
1.72617
1.72603
1.72589
1.72576
1.72563
1.7255
1.72538
1.72526
1.72514
1.72503
1.72493
1.72483
1.72474
1.72466
1.72459
1.72453
1.72449
1.72445
1.72443
1.72442
1.72443
1.72445
1.72449
1.72454
1.72462
1.7247
1.72481
1.72494
1.72508
1.72524
1.72542
1.72561
1.72583
1.72605
1.72629
1.72654
1.72681
1.72709
1.72738
1.72768
1.72798
1.7283
1.72862
1.72894
1.72927
1.7296
1.72994
1.73028
1.73062
1.73095
1.73129
1.73163
1.73197
1.7323
1.73264
1.73297
1.73329
1.73361
1.73393
1.73424
1.73455
1.73485
1.73514
1.73542
1.73569
1.73595
1.73621
1.73645
1.73668
1.73689
1.7371
1.73729
1.73747
1.73763
1.73778
1.73792
1.73805
1.73816
1.73825
1.73834
1.73841
1.73847
1.73853
1.73857
1.7386
1.73862
1.73863
1.73863
1.73862
1.73861
1.73859
1.73856
1.73852
1.73848
1.73843
1.73838
1.73831
1.73825
1.73817
1.7381
1.73801
1.73792
1.73783
1.73774
1.73764
1.73754
1.73744
1.73733
1.73723
1.73713
1.73703
1.73693
1.73684
1.73676
1.73668
1.73661
1.73655
1.7365
1.73646
1.73644
1.73642
1.73642
1.73644
1.73646
1.7365
1.73656
1.73663
1.73671
1.7368
1.7369
1.73702
1.73714
1.73727
1.73741
1.73756
1.73771
1.73787
1.73803
1.73819
1.73835
1.73851
1.73866
1.73882
1.73897
1.73912
1.73926
1.7394
1.73953
1.73965
1.73976
1.73986
1.73996
1.74004
1.74011
1.74017
1.74022
1.74026
1.74029
1.7403
1.74031
1.74029
1.74027
1.74023
1.74018
1.74012
1.74004
1.73995
1.73985
1.73973
1.7396
1.73946
1.73931
1.73915
1.73897
1.73878
1.73858
1.73838
1.73816
1.73794
1.7377
1.73747
1.73722
1.73697
1.73672
1.73646
1.7362
1.73594
1.73568
1.73541
1.73515
1.73489
1.73463
1.73437
1.73411
1.73385
1.7336
1.73335
1.7331
1.73286
1.73263
1.73239
1.73217
1.73195
1.73174
1.73153
1.73134
1.73115
1.73098
1.73082
1.73067
1.73053
1.73041
1.73031
1.73022
1.73015
1.73009
1.73005
1.73003
1.73002
1.73003
1.73006
1.7301
1.73015
1.73022
1.7303
1.73039
1.7305
1.73061
1.73074
1.73087
1.73101
1.73116
1.73132
1.73149
1.73166
1.73184
1.73202
1.73221
1.73241
1.73261
1.73282
1.73303
1.73325
1.73347
1.73369
1.73392
1.73414
1.73437
1.7346
1.73483
1.73507
1.73529
1.73552
1.73575
1.73597
1.73619
1.7364
1.73661
1.73682
1.73701
1.7372
1.73738
1.73756
1.73772
1.73788
1.73803
1.73816
1.73829
1.73841
1.73851
1.7386
1.73868
1.73875
1.73881
1.73885
1.73888
1.7389
1.73891
1.73891
1.73889
1.73886
1.73882
1.73877
1.73871
1.73863
1.73855
1.73846
1.73837
1.73827
1.73816
1.73805
1.73793
1.73782
1.73771
1.73761
1.73751
1.73743
1.73736
1.7373
1.73728
1.73727
1.7373
1.73737
1.73748
1.73762
1.73785
1.73814
1.73846
1.73888
1.73945
1.74003
1.74065
1.7416
1.74272
1.74354
1.74473
1.74692
1.7487
1.74909
1.75267
1.7588
1.75975
1.75644
1.7808
1.74171
1.71409
1.70441
1.7274
1.73017
1.72104
1.72288
1.72746
1.72635
1.72493
1.72618
1.72697
1.72658
1.7266
1.7271
1.72729
1.72731
1.7275
1.72775
1.72788
1.72802
1.72819
1.72836
1.7285
1.72864
1.72879
1.72892
1.72904
1.72917
1.72928
1.72938
1.72947
1.72956
1.72963
1.72969
1.72975
1.72979
1.72982
1.72985
1.72986
1.72987
1.72986
1.72984
1.72981
1.72978
1.72973
1.72968
1.72962
1.72955
1.72947
1.72939
1.7293
1.7292
1.7291
1.729
1.72889
1.72878
1.72866
1.72854
1.72842
1.7283
1.72817
1.72805
1.72791
1.72779
1.72765
1.72752
1.72738
1.72725
1.72711
1.72697
1.72683
1.7267
1.72656
1.72642
1.72628
1.72614
1.72601
1.72587
1.72574
1.72561
1.72548
1.72536
1.72524
1.72513
1.72502
1.72492
1.72482
1.72474
1.72466
1.72459
1.72453
1.72449
1.72445
1.72443
1.72442
1.72443
1.72446
1.7245
1.72455
1.72463
1.72472
1.72483
1.72495
1.7251
1.72526
1.72544
1.72563
1.72584
1.72607
1.72631
1.72656
1.72683
1.7271
1.72739
1.72769
1.72799
1.72831
1.72863
1.72895
1.72928
1.72961
1.72994
1.73028
1.73062
1.73095
1.73129
1.73163
1.73197
1.7323
1.73263
1.73296
1.73328
1.7336
1.73392
1.73423
1.73454
1.73483
1.73512
1.7354
1.73568
1.73594
1.73619
1.73643
1.73666
1.73687
1.73708
1.73727
1.73745
1.73761
1.73776
1.7379
1.73802
1.73813
1.73823
1.73832
1.73839
1.73845
1.73851
1.73855
1.73858
1.7386
1.73861
1.73861
1.7386
1.73859
1.73857
1.73854
1.73851
1.73846
1.73841
1.73836
1.7383
1.73823
1.73816
1.73808
1.738
1.73791
1.73782
1.73773
1.73763
1.73753
1.73743
1.73732
1.73722
1.73712
1.73703
1.73693
1.73684
1.73676
1.73668
1.73662
1.73656
1.73651
1.73647
1.73645
1.73643
1.73643
1.73645
1.73647
1.73652
1.73657
1.73664
1.73672
1.73681
1.73691
1.73703
1.73715
1.73728
1.73742
1.73757
1.73772
1.73787
1.73803
1.73819
1.73835
1.73851
1.73867
1.73882
1.73897
1.73912
1.73926
1.7394
1.73952
1.73964
1.73976
1.73986
1.73995
1.74004
1.74011
1.74017
1.74022
1.74026
1.74028
1.7403
1.7403
1.74029
1.74026
1.74023
1.74018
1.74011
1.74004
1.73995
1.73985
1.73973
1.7396
1.73946
1.73931
1.73914
1.73897
1.73878
1.73858
1.73838
1.73816
1.73794
1.73771
1.73747
1.73723
1.73698
1.73673
1.73647
1.73621
1.73595
1.73569
1.73542
1.73516
1.7349
1.73464
1.73438
1.73412
1.73386
1.73361
1.73336
1.73311
1.73287
1.73263
1.7324
1.73218
1.73196
1.73174
1.73154
1.73135
1.73116
1.73099
1.73083
1.73068
1.73055
1.73043
1.73032
1.73023
1.73016
1.73011
1.73007
1.73004
1.73004
1.73005
1.73007
1.73011
1.73017
1.73024
1.73032
1.73041
1.73051
1.73063
1.73075
1.73088
1.73102
1.73117
1.73133
1.7315
1.73167
1.73184
1.73203
1.73222
1.73241
1.73261
1.73282
1.73303
1.73325
1.73346
1.73369
1.73391
1.73414
1.73436
1.73459
1.73482
1.73505
1.73528
1.73551
1.73573
1.73595
1.73617
1.73639
1.73659
1.7368
1.73699
1.73718
1.73737
1.73754
1.73771
1.73786
1.73801
1.73815
1.73827
1.73839
1.73849
1.73858
1.73866
1.73873
1.73879
1.73883
1.73886
1.73888
1.73889
1.73888
1.73887
1.73884
1.73879
1.73874
1.73868
1.7386
1.73852
1.73843
1.73833
1.73823
1.73812
1.73801
1.73789
1.73778
1.73767
1.73756
1.73747
1.73738
1.73731
1.73726
1.73723
1.73722
1.73726
1.73733
1.73742
1.73758
1.73784
1.73808
1.73836
1.73891
1.73946
1.73979
1.74065
1.74195
1.74225
1.74292
1.74597
1.74694
1.74536
1.75106
1.75762
1.74896
1.75209
1.78021
1.77002
1.72452
1.72119
1.72156
1.72424
1.72256
1.72401
1.7258
1.72522
1.72506
1.72598
1.72633
1.72619
1.72643
1.7268
1.72694
1.72705
1.72727
1.72748
1.72763
1.72779
1.72797
1.72813
1.72829
1.72844
1.72859
1.72873
1.72887
1.72899
1.72912
1.72923
1.72933
1.72942
1.72951
1.72958
1.72965
1.7297
1.72975
1.72978
1.72981
1.72982
1.72983
1.72982
1.7298
1.72978
1.72974
1.7297
1.72965
1.72959
1.72952
1.72944
1.72936
1.72927
1.72918
1.72908
1.72898
1.72887
1.72876
1.72864
1.72852
1.7284
1.72828
1.72815
1.72802
1.72789
1.72776
1.72763
1.72749
1.72736
1.72722
1.72708
1.72694
1.7268
1.72667
1.72652
1.72639
1.72625
1.72611
1.72597
1.72584
1.72571
1.72558
1.72545
1.72533
1.72521
1.7251
1.72499
1.72489
1.7248
1.72472
1.72464
1.72458
1.72452
1.72448
1.72445
1.72443
1.72442
1.72444
1.72446
1.7245
1.72456
1.72464
1.72473
1.72484
1.72497
1.72511
1.72527
1.72545
1.72565
1.72586
1.72608
1.72633
1.72658
1.72684
1.72712
1.72741
1.7277
1.72801
1.72832
1.72863
1.72896
1.72928
1.72961
1.72995
1.73028
1.73062
1.73095
1.73129
1.73163
1.73196
1.73229
1.73262
1.73295
1.73328
1.73359
1.73391
1.73422
1.73452
1.73482
1.73511
1.73539
1.73566
1.73592
1.73617
1.73641
1.73664
1.73685
1.73706
1.73725
1.73743
1.73759
1.73774
1.73788
1.738
1.73811
1.73821
1.7383
1.73837
1.73843
1.73849
1.73853
1.73856
1.73858
1.73859
1.73859
1.73859
1.73857
1.73855
1.73852
1.73849
1.73844
1.7384
1.73834
1.73828
1.73822
1.73814
1.73807
1.73799
1.7379
1.73781
1.73771
1.73762
1.73752
1.73742
1.73732
1.73722
1.73712
1.73702
1.73693
1.73684
1.73676
1.73669
1.73662
1.73656
1.73651
1.73648
1.73645
1.73644
1.73644
1.73646
1.73648
1.73653
1.73658
1.73665
1.73673
1.73682
1.73692
1.73704
1.73716
1.73729
1.73743
1.73757
1.73772
1.73788
1.73803
1.73819
1.73835
1.73851
1.73867
1.73882
1.73897
1.73912
1.73926
1.73939
1.73952
1.73964
1.73975
1.73986
1.73995
1.74003
1.7401
1.74017
1.74022
1.74025
1.74028
1.7403
1.7403
1.74029
1.74026
1.74023
1.74018
1.74011
1.74004
1.73995
1.73985
1.73973
1.7396
1.73946
1.73931
1.73915
1.73897
1.73879
1.73859
1.73839
1.73817
1.73795
1.73772
1.73748
1.73724
1.73699
1.73674
1.73648
1.73622
1.73596
1.7357
1.73544
1.73517
1.73491
1.73465
1.73439
1.73413
1.73387
1.73362
1.73337
1.73312
1.73288
1.73264
1.73241
1.73218
1.73196
1.73175
1.73154
1.73135
1.73117
1.73099
1.73083
1.73069
1.73055
1.73043
1.73033
1.73024
1.73017
1.73012
1.73008
1.73006
1.73005
1.73006
1.73009
1.73013
1.73018
1.73025
1.73033
1.73042
1.73053
1.73064
1.73076
1.73089
1.73104
1.73118
1.73134
1.7315
1.73167
1.73185
1.73203
1.73222
1.73242
1.73261
1.73282
1.73303
1.73324
1.73346
1.73368
1.7339
1.73412
1.73435
1.73458
1.73481
1.73503
1.73526
1.73549
1.73571
1.73593
1.73615
1.73636
1.73657
1.73677
1.73697
1.73716
1.73734
1.73752
1.73768
1.73784
1.73799
1.73813
1.73825
1.73837
1.73847
1.73857
1.73865
1.73872
1.73877
1.73881
1.73885
1.73886
1.73887
1.73886
1.73884
1.73881
1.73877
1.73871
1.73865
1.73857
1.73849
1.73839
1.73829
1.73818
1.73807
1.73796
1.73784
1.73772
1.73761
1.7375
1.7374
1.73731
1.73724
1.73718
1.73715
1.73715
1.73717
1.73724
1.73735
1.7375
1.7377
1.73798
1.73833
1.73872
1.73922
1.73987
1.74052
1.74129
1.74235
1.74338
1.74448
1.74612
1.74769
1.74904
1.7517
1.75451
1.75555
1.76144
1.75986
1.71321
1.72545
1.73105
1.7196
1.71996
1.72772
1.72617
1.72325
1.72533
1.72682
1.72589
1.72576
1.72663
1.72685
1.72671
1.72696
1.7273
1.72741
1.72753
1.72774
1.72794
1.72807
1.72823
1.7284
1.72855
1.72868
1.72882
1.72895
1.72907
1.72918
1.72929
1.72938
1.72947
1.72954
1.72961
1.72966
1.72971
1.72974
1.72977
1.72978
1.72979
1.72978
1.72977
1.72974
1.72971
1.72967
1.72962
1.72956
1.72949
1.72941
1.72933
1.72925
1.72915
1.72905
1.72895
1.72884
1.72873
1.72862
1.7285
1.72838
1.72825
1.72813
1.728
1.72787
1.72773
1.7276
1.72746
1.72733
1.72719
1.72705
1.72691
1.72677
1.72663
1.72649
1.72635
1.72621
1.72607
1.72593
1.7258
1.72567
1.72554
1.72541
1.72529
1.72517
1.72506
1.72496
1.72486
1.72477
1.72469
1.72462
1.72455
1.7245
1.72446
1.72443
1.72442
1.72442
1.72443
1.72446
1.72451
1.72457
1.72464
1.72474
1.72485
1.72498
1.72513
1.72529
1.72547
1.72567
1.72588
1.7261
1.72634
1.72659
1.72686
1.72713
1.72742
1.72771
1.72802
1.72833
1.72864
1.72896
1.72929
1.72962
1.72995
1.73028
1.73062
1.73095
1.73129
1.73162
1.73196
1.73229
1.73262
1.73294
1.73327
1.73358
1.7339
1.73421
1.73451
1.7348
1.73509
1.73537
1.73564
1.7359
1.73615
1.73639
1.73662
1.73683
1.73704
1.73723
1.7374
1.73757
1.73772
1.73785
1.73798
1.73809
1.73819
1.73827
1.73835
1.73841
1.73846
1.7385
1.73853
1.73855
1.73857
1.73857
1.73856
1.73855
1.73853
1.7385
1.73847
1.73842
1.73838
1.73832
1.73826
1.7382
1.73813
1.73805
1.73797
1.73788
1.73779
1.7377
1.73761
1.73751
1.73741
1.73731
1.73721
1.73711
1.73702
1.73693
1.73684
1.73676
1.73669
1.73662
1.73657
1.73652
1.73649
1.73646
1.73645
1.73645
1.73647
1.73649
1.73654
1.73659
1.73666
1.73674
1.73683
1.73693
1.73704
1.73717
1.7373
1.73744
1.73758
1.73773
1.73788
1.73804
1.7382
1.73835
1.73851
1.73867
1.73882
1.73897
1.73912
1.73926
1.73939
1.73952
1.73964
1.73975
1.73985
1.73995
1.74003
1.7401
1.74016
1.74022
1.74025
1.74028
1.7403
1.7403
1.74029
1.74027
1.74023
1.74018
1.74012
1.74004
1.73996
1.73985
1.73974
1.73961
1.73947
1.73932
1.73916
1.73898
1.7388
1.7386
1.7384
1.73819
1.73796
1.73773
1.7375
1.73725
1.73701
1.73675
1.7365
1.73624
1.73598
1.73572
1.73545
1.73519
1.73492
1.73466
1.7344
1.73414
1.73388
1.73363
1.73337
1.73313
1.73288
1.73264
1.73241
1.73218
1.73196
1.73175
1.73155
1.73135
1.73117
1.73099
1.73083
1.73069
1.73055
1.73044
1.73033
1.73025
1.73018
1.73012
1.73008
1.73006
1.73006
1.73007
1.7301
1.73014
1.73019
1.73026
1.73034
1.73043
1.73054
1.73065
1.73077
1.7309
1.73104
1.73119
1.73135
1.73151
1.73168
1.73185
1.73203
1.73222
1.73241
1.73261
1.73281
1.73302
1.73323
1.73344
1.73366
1.73388
1.73411
1.73433
1.73456
1.73478
1.73501
1.73524
1.73546
1.73568
1.7359
1.73612
1.73633
1.73654
1.73675
1.73694
1.73713
1.73732
1.73749
1.73766
1.73782
1.73797
1.7381
1.73823
1.73835
1.73845
1.73855
1.73863
1.7387
1.73875
1.7388
1.73883
1.73885
1.73885
1.73884
1.73882
1.73879
1.73874
1.73868
1.73862
1.73854
1.73845
1.73835
1.73824
1.73813
1.73802
1.7379
1.73777
1.73765
1.73754
1.73742
1.73732
1.73723
1.73715
1.73709
1.73705
1.73705
1.73706
1.73711
1.73723
1.73737
1.73753
1.73783
1.73821
1.73849
1.73895
1.73978
1.7403
1.74067
1.74219
1.74357
1.74317
1.74489
1.74921
1.74804
1.74589
1.75579
1.75967
1.74764
1.75336
1.72568
1.72336
1.72176
1.72404
1.72659
1.72428
1.72352
1.72593
1.72629
1.72527
1.72573
1.72658
1.72651
1.72643
1.72682
1.72711
1.72716
1.72732
1.72756
1.72773
1.72787
1.72804
1.72822
1.72836
1.7285
1.72865
1.72879
1.72891
1.72903
1.72915
1.72925
1.72934
1.72943
1.72951
1.72957
1.72963
1.72967
1.72971
1.72973
1.72975
1.72975
1.72975
1.72973
1.72971
1.72968
1.72964
1.72959
1.72953
1.72946
1.72939
1.72931
1.72922
1.72913
1.72903
1.72893
1.72882
1.72871
1.7286
1.72848
1.72836
1.72823
1.7281
1.72797
1.72784
1.72771
1.72757
1.72743
1.72729
1.72715
1.72701
1.72687
1.72673
1.72659
1.72644
1.7263
1.72616
1.72602
1.72589
1.72575
1.72562
1.72549
1.72536
1.72525
1.72513
1.72502
1.72492
1.72482
1.72473
1.72465
1.72458
1.72452
1.72447
1.72444
1.72441
1.7244
1.7244
1.72442
1.72445
1.7245
1.72457
1.72465
1.72474
1.72486
1.72499
1.72514
1.7253
1.72549
1.72568
1.72589
1.72612
1.72636
1.72661
1.72688
1.72715
1.72743
1.72773
1.72803
1.72834
1.72865
1.72897
1.7293
1.72962
1.72995
1.73028
1.73062
1.73095
1.73129
1.73162
1.73195
1.73228
1.73261
1.73293
1.73326
1.73357
1.73389
1.73419
1.73449
1.73479
1.73508
1.73535
1.73562
1.73588
1.73613
1.73637
1.7366
1.73681
1.73701
1.7372
1.73738
1.73754
1.7377
1.73783
1.73796
1.73807
1.73817
1.73825
1.73833
1.73839
1.73844
1.73848
1.73851
1.73853
1.73854
1.73855
1.73854
1.73853
1.73851
1.73848
1.73845
1.7384
1.73836
1.7383
1.73824
1.73818
1.73811
1.73803
1.73795
1.73786
1.73778
1.73768
1.73759
1.73749
1.7374
1.7373
1.7372
1.7371
1.73701
1.73692
1.73684
1.73676
1.73669
1.73662
1.73657
1.73652
1.73649
1.73647
1.73646
1.73646
1.73647
1.7365
1.73654
1.7366
1.73666
1.73674
1.73683
1.73694
1.73705
1.73717
1.7373
1.73744
1.73758
1.73773
1.73788
1.73804
1.73819
1.73835
1.73851
1.73866
1.73882
1.73897
1.73911
1.73925
1.73939
1.73951
1.73963
1.73974
1.73985
1.73994
1.74003
1.7401
1.74016
1.74021
1.74025
1.74028
1.7403
1.7403
1.74029
1.74027
1.74023
1.74019
1.74012
1.74005
1.73996
1.73986
1.73975
1.73962
1.73948
1.73933
1.73917
1.739
1.73881
1.73862
1.73842
1.7382
1.73798
1.73775
1.73752
1.73727
1.73703
1.73678
1.73652
1.73626
1.736
1.73574
1.73547
1.73521
1.73494
1.73468
1.73441
1.73415
1.73389
1.73364
1.73338
1.73313
1.73289
1.73265
1.73241
1.73218
1.73196
1.73175
1.73154
1.73135
1.73116
1.73099
1.73083
1.73068
1.73055
1.73043
1.73033
1.73024
1.73018
1.73012
1.73009
1.73006
1.73006
1.73007
1.7301
1.73014
1.7302
1.73027
1.73035
1.73044
1.73054
1.73066
1.73078
1.73091
1.73105
1.7312
1.73135
1.73151
1.73168
1.73185
1.73203
1.73222
1.73241
1.7326
1.7328
1.73301
1.73322
1.73343
1.73364
1.73386
1.73408
1.73431
1.73453
1.73476
1.73498
1.73521
1.73543
1.73565
1.73587
1.73609
1.7363
1.73651
1.73672
1.73691
1.7371
1.73729
1.73746
1.73763
1.73779
1.73794
1.73808
1.73821
1.73833
1.73843
1.73853
1.73861
1.73868
1.73874
1.73878
1.73881
1.73883
1.73883
1.73882
1.7388
1.73876
1.73871
1.73865
1.73858
1.7385
1.73841
1.7383
1.73819
1.73808
1.73795
1.73783
1.7377
1.73757
1.73745
1.73733
1.73722
1.73712
1.73704
1.73698
1.73693
1.73691
1.73693
1.73697
1.73705
1.7372
1.73739
1.7376
1.73791
1.73835
1.73875
1.73922
1.74002
1.74075
1.74126
1.74246
1.74399
1.74436
1.74526
1.74835
1.74947
1.74895
1.75197
1.75294
1.75354
1.72876
1.72331
1.72124
1.72677
1.72624
1.72279
1.72495
1.72681
1.72536
1.72516
1.72641
1.72655
1.7262
1.72655
1.72698
1.72702
1.7271
1.72738
1.72757
1.72769
1.72785
1.72804
1.7282
1.72833
1.72849
1.72863
1.72876
1.72889
1.72901
1.72912
1.72922
1.72931
1.7294
1.72947
1.72954
1.72959
1.72964
1.72967
1.7297
1.72971
1.72972
1.72972
1.7297
1.72968
1.72965
1.72961
1.72956
1.7295
1.72944
1.72936
1.72929
1.7292
1.72911
1.72901
1.72891
1.7288
1.72869
1.72858
1.72846
1.72834
1.72821
1.72808
1.72795
1.72782
1.72768
1.72754
1.7274
1.72726
1.72712
1.72698
1.72683
1.72669
1.72654
1.7264
1.72626
1.72611
1.72597
1.72583
1.7257
1.72557
1.72544
1.72531
1.72519
1.72508
1.72497
1.72487
1.72477
1.72469
1.72461
1.72454
1.72449
1.72444
1.72441
1.72439
1.72438
1.72439
1.72441
1.72444
1.72449
1.72456
1.72465
1.72475
1.72486
1.725
1.72515
1.72531
1.7255
1.72569
1.72591
1.72613
1.72637
1.72662
1.72689
1.72716
1.72745
1.72774
1.72804
1.72835
1.72866
1.72898
1.7293
1.72963
1.72995
1.73028
1.73062
1.73095
1.73128
1.73161
1.73194
1.73227
1.7326
1.73292
1.73324
1.73356
1.73387
1.73418
1.73448
1.73477
1.73506
1.73534
1.7356
1.73586
1.73611
1.73635
1.73658
1.73679
1.73699
1.73718
1.73736
1.73752
1.73767
1.73781
1.73793
1.73804
1.73814
1.73823
1.7383
1.73836
1.73841
1.73845
1.73849
1.73851
1.73852
1.73852
1.73852
1.7385
1.73848
1.73845
1.73842
1.73838
1.73833
1.73828
1.73822
1.73815
1.73808
1.73801
1.73793
1.73784
1.73776
1.73766
1.73757
1.73748
1.73738
1.73728
1.73719
1.73709
1.737
1.73691
1.73683
1.73675
1.73668
1.73662
1.73656
1.73652
1.73649
1.73647
1.73646
1.73646
1.73648
1.7365
1.73655
1.7366
1.73667
1.73675
1.73684
1.73694
1.73705
1.73717
1.7373
1.73744
1.73758
1.73773
1.73788
1.73803
1.73819
1.73835
1.7385
1.73866
1.73881
1.73896
1.7391
1.73924
1.73938
1.73951
1.73963
1.73974
1.73984
1.73994
1.74002
1.74009
1.74016
1.74021
1.74025
1.74028
1.7403
1.7403
1.74029
1.74027
1.74024
1.74019
1.74013
1.74006
1.73997
1.73987
1.73976
1.73964
1.7395
1.73935
1.73919
1.73902
1.73883
1.73864
1.73844
1.73823
1.738
1.73778
1.73754
1.7373
1.73705
1.7368
1.73654
1.73628
1.73602
1.73576
1.73549
1.73523
1.73496
1.73469
1.73443
1.73417
1.7339
1.73365
1.73339
1.73314
1.73289
1.73265
1.73241
1.73218
1.73196
1.73174
1.73154
1.73134
1.73116
1.73098
1.73082
1.73068
1.73054
1.73043
1.73033
1.73024
1.73017
1.73012
1.73008
1.73006
1.73006
1.73007
1.7301
1.73014
1.7302
1.73027
1.73035
1.73044
1.73054
1.73066
1.73078
1.73091
1.73105
1.73119
1.73135
1.73151
1.73167
1.73185
1.73202
1.73221
1.73239
1.73259
1.73279
1.73299
1.73319
1.73341
1.73362
1.73384
1.73405
1.73428
1.7345
1.73472
1.73495
1.73517
1.73539
1.73562
1.73584
1.73605
1.73627
1.73648
1.73668
1.73688
1.73707
1.73726
1.73743
1.7376
1.73776
1.73792
1.73806
1.73819
1.73831
1.73841
1.73851
1.73859
1.73866
1.73872
1.73876
1.73879
1.73881
1.73881
1.7388
1.73878
1.73874
1.73869
1.73862
1.73855
1.73846
1.73836
1.73825
1.73814
1.73801
1.73789
1.73775
1.73762
1.73749
1.73736
1.73723
1.73712
1.73701
1.73692
1.73685
1.73679
1.73676
1.73677
1.73681
1.73687
1.73699
1.7372
1.73739
1.73761
1.73807
1.73853
1.7388
1.73948
1.74056
1.74086
1.74126
1.74342
1.74459
1.74343
1.74586
1.75016
1.74729
1.74655
1.75379
1.75146
1.72306
1.72529
1.72675
1.72435
1.72333
1.72605
1.72653
1.72469
1.72525
1.72666
1.72629
1.72589
1.72653
1.72693
1.7268
1.72692
1.72727
1.72743
1.7275
1.7277
1.7279
1.72804
1.72817
1.72834
1.72849
1.72862
1.72875
1.72888
1.72899
1.7291
1.7292
1.72929
1.72938
1.72945
1.72951
1.72957
1.72961
1.72965
1.72967
1.72969
1.72969
1.72969
1.72967
1.72965
1.72962
1.72958
1.72953
1.72948
1.72941
1.72934
1.72927
1.72918
1.72909
1.72899
1.72889
1.72879
1.72868
1.72856
1.72844
1.72832
1.72819
1.72806
1.72793
1.72779
1.72766
1.72751
1.72737
1.72723
1.72708
1.72694
1.72679
1.72664
1.7265
1.72635
1.72621
1.72606
1.72592
1.72578
1.72564
1.72551
1.72538
1.72526
1.72514
1.72502
1.72492
1.72481
1.72472
1.72464
1.72457
1.7245
1.72445
1.7244
1.72437
1.72436
1.72435
1.72436
1.72439
1.72443
1.72448
1.72455
1.72464
1.72474
1.72486
1.725
1.72515
1.72532
1.72551
1.7257
1.72592
1.72614
1.72638
1.72664
1.7269
1.72717
1.72746
1.72775
1.72805
1.72835
1.72867
1.72898
1.7293
1.72963
1.72996
1.73028
1.73061
1.73095
1.73128
1.73161
1.73194
1.73226
1.73259
1.73291
1.73323
1.73355
1.73386
1.73417
1.73446
1.73476
1.73504
1.73532
1.73559
1.73584
1.73609
1.73633
1.73655
1.73677
1.73697
1.73716
1.73733
1.7375
1.73765
1.73778
1.73791
1.73802
1.73811
1.7382
1.73827
1.73834
1.73839
1.73843
1.73846
1.73848
1.73849
1.73849
1.73849
1.73848
1.73845
1.73843
1.73839
1.73835
1.7383
1.73825
1.73819
1.73813
1.73805
1.73798
1.7379
1.73782
1.73773
1.73764
1.73755
1.73745
1.73736
1.73726
1.73717
1.73707
1.73698
1.7369
1.73681
1.73674
1.73667
1.73661
1.73655
1.73651
1.73648
1.73646
1.73645
1.73645
1.73647
1.7365
1.73654
1.73659
1.73666
1.73674
1.73683
1.73693
1.73704
1.73716
1.73729
1.73743
1.73757
1.73771
1.73786
1.73802
1.73817
1.73833
1.73849
1.73864
1.73879
1.73894
1.73909
1.73923
1.73936
1.73949
1.73961
1.73972
1.73983
1.73992
1.74001
1.74008
1.74015
1.7402
1.74025
1.74028
1.74029
1.7403
1.74029
1.74027
1.74024
1.7402
1.74014
1.74007
1.73998
1.73988
1.73977
1.73965
1.73951
1.73937
1.73921
1.73904
1.73885
1.73866
1.73846
1.73825
1.73803
1.7378
1.73757
1.73733
1.73708
1.73683
1.73657
1.73631
1.73605
1.73578
1.73552
1.73525
1.73498
1.73471
1.73445
1.73418
1.73392
1.73366
1.7334
1.73315
1.7329
1.73265
1.73241
1.73218
1.73196
1.73174
1.73153
1.73133
1.73115
1.73097
1.73081
1.73067
1.73053
1.73042
1.73032
1.73023
1.73016
1.73011
1.73007
1.73006
1.73005
1.73007
1.73009
1.73014
1.73019
1.73026
1.73034
1.73044
1.73054
1.73065
1.73077
1.7309
1.73104
1.73119
1.73134
1.7315
1.73166
1.73183
1.73201
1.73219
1.73238
1.73257
1.73276
1.73296
1.73317
1.73338
1.73359
1.7338
1.73402
1.73424
1.73446
1.73469
1.73491
1.73513
1.73536
1.73558
1.7358
1.73601
1.73623
1.73644
1.73664
1.73684
1.73704
1.73722
1.7374
1.73757
1.73774
1.73789
1.73803
1.73816
1.73829
1.73839
1.73849
1.73858
1.73865
1.7387
1.73875
1.73878
1.73879
1.73879
1.73878
1.73875
1.73871
1.73866
1.73859
1.73851
1.73842
1.73831
1.7382
1.73808
1.73795
1.73781
1.73768
1.73754
1.7374
1.73726
1.73713
1.737
1.73689
1.73679
1.7367
1.73665
1.73661
1.73659
1.73662
1.7367
1.73678
1.73691
1.73716
1.73741
1.73764
1.73811
1.73868
1.73898
1.73955
1.74073
1.7413
1.74141
1.74311
1.74489
1.7443
1.74511
1.748
1.74782
1.74734
1.74773
1.72383
1.72568
1.72622
1.72417
1.72504
1.72651
1.7253
1.72507
1.72639
1.72637
1.72585
1.72637
1.72684
1.72672
1.72679
1.72714
1.72731
1.72737
1.72756
1.72777
1.7279
1.72803
1.7282
1.72836
1.72848
1.72862
1.72875
1.72887
1.72898
1.72909
1.72919
1.72928
1.72936
1.72943
1.72949
1.72954
1.72959
1.72962
1.72965
1.72966
1.72967
1.72966
1.72965
1.72963
1.7296
1.72956
1.72951
1.72946
1.72939
1.72932
1.72925
1.72916
1.72908
1.72898
1.72888
1.72877
1.72866
1.72855
1.72843
1.7283
1.72818
1.72804
1.72791
1.72777
1.72763
1.72749
1.72734
1.7272
1.72705
1.7269
1.72675
1.7266
1.72645
1.7263
1.72616
1.72601
1.72587
1.72572
1.72559
1.72545
1.72532
1.7252
1.72508
1.72496
1.72486
1.72476
1.72467
1.72459
1.72452
1.72445
1.7244
1.72436
1.72434
1.72432
1.72432
1.72434
1.72436
1.72441
1.72447
1.72454
1.72463
1.72474
1.72486
1.725
1.72515
1.72532
1.72551
1.72571
1.72592
1.72615
1.72639
1.72664
1.72691
1.72718
1.72746
1.72775
1.72805
1.72836
1.72867
1.72898
1.7293
1.72963
1.72995
1.73028
1.73061
1.73094
1.73127
1.7316
1.73193
1.73225
1.73258
1.7329
1.73322
1.73353
1.73384
1.73415
1.73445
1.73474
1.73502
1.7353
1.73557
1.73582
1.73607
1.73631
1.73653
1.73674
1.73694
1.73713
1.73731
1.73747
1.73762
1.73775
1.73788
1.73799
1.73809
1.73817
1.73824
1.73831
1.73836
1.7384
1.73843
1.73845
1.73846
1.73846
1.73846
1.73844
1.73842
1.73839
1.73836
1.73832
1.73827
1.73822
1.73816
1.73809
1.73802
1.73795
1.73787
1.73778
1.7377
1.73761
1.73752
1.73742
1.73733
1.73723
1.73714
1.73705
1.73696
1.73687
1.73679
1.73672
1.73665
1.73659
1.73654
1.73649
1.73646
1.73644
1.73644
1.73644
1.73646
1.73648
1.73653
1.73658
1.73665
1.73672
1.73681
1.73691
1.73702
1.73714
1.73727
1.73741
1.73755
1.73769
1.73784
1.738
1.73815
1.73831
1.73846
1.73862
1.73877
1.73892
1.73906
1.7392
1.73934
1.73947
1.73959
1.7397
1.73981
1.73991
1.73999
1.74007
1.74014
1.74019
1.74024
1.74027
1.74029
1.7403
1.74029
1.74027
1.74024
1.7402
1.74014
1.74007
1.73999
1.73989
1.73979
1.73966
1.73953
1.73938
1.73923
1.73906
1.73888
1.73869
1.73848
1.73827
1.73806
1.73783
1.7376
1.73736
1.73711
1.73686
1.7366
1.73634
1.73608
1.73581
1.73554
1.73528
1.73501
1.73474
1.73447
1.7342
1.73393
1.73367
1.73341
1.73315
1.7329
1.73265
1.73241
1.73218
1.73195
1.73173
1.73153
1.73133
1.73114
1.73096
1.7308
1.73066
1.73052
1.73041
1.7303
1.73022
1.73015
1.7301
1.73006
1.73004
1.73004
1.73005
1.73008
1.73012
1.73018
1.73025
1.73033
1.73042
1.73053
1.73064
1.73076
1.73089
1.73103
1.73117
1.73132
1.73148
1.73164
1.73181
1.73199
1.73217
1.73235
1.73254
1.73274
1.73293
1.73314
1.73334
1.73355
1.73377
1.73398
1.7342
1.73442
1.73464
1.73487
1.73509
1.73531
1.73553
1.73575
1.73597
1.73619
1.7364
1.7366
1.73681
1.737
1.73719
1.73737
1.73754
1.73771
1.73786
1.73801
1.73814
1.73826
1.73837
1.73847
1.73856
1.73863
1.73869
1.73873
1.73876
1.73877
1.73877
1.73876
1.73873
1.73869
1.73863
1.73855
1.73847
1.73837
1.73826
1.73814
1.73802
1.73788
1.73774
1.73759
1.73745
1.7373
1.73715
1.73701
1.73688
1.73676
1.73666
1.73656
1.73649
1.73645
1.73642
1.73642
1.73649
1.73658
1.73667
1.73686
1.73716
1.73737
1.73764
1.73826
1.73876
1.73893
1.73977
1.74101
1.74107
1.74142
1.74368
1.74429
1.74318
1.74581
1.74744
1.74456
1.74584
1.72687
1.72512
1.72426
1.72608
1.72656
1.72489
1.72519
1.72671
1.72627
1.72562
1.7264
1.72689
1.72656
1.72665
1.72711
1.72723
1.72722
1.72744
1.72768
1.72778
1.7279
1.72809
1.72824
1.72836
1.7285
1.72864
1.72876
1.72887
1.72898
1.72909
1.72918
1.72927
1.72935
1.72942
1.72948
1.72953
1.72957
1.7296
1.72963
1.72964
1.72965
1.72964
1.72963
1.72961
1.72958
1.72954
1.72949
1.72944
1.72938
1.72931
1.72924
1.72915
1.72906
1.72897
1.72887
1.72876
1.72865
1.72854
1.72842
1.72829
1.72816
1.72803
1.72789
1.72775
1.72761
1.72747
1.72732
1.72717
1.72702
1.72687
1.72671
1.72656
1.72641
1.72626
1.72611
1.72596
1.72581
1.72567
1.72553
1.72539
1.72526
1.72514
1.72502
1.7249
1.7248
1.7247
1.72461
1.72453
1.72446
1.7244
1.72436
1.72432
1.7243
1.72429
1.72429
1.72431
1.72434
1.72438
1.72445
1.72452
1.72462
1.72473
1.72485
1.72499
1.72515
1.72532
1.72551
1.72571
1.72592
1.72615
1.72639
1.72664
1.72691
1.72718
1.72746
1.72775
1.72805
1.72835
1.72866
1.72898
1.7293
1.72962
1.72995
1.73027
1.7306
1.73093
1.73126
1.73159
1.73192
1.73224
1.73257
1.73289
1.73321
1.73352
1.73383
1.73413
1.73443
1.73472
1.73501
1.73528
1.73555
1.7358
1.73605
1.73628
1.73651
1.73672
1.73692
1.73711
1.73728
1.73744
1.73759
1.73773
1.73785
1.73796
1.73805
1.73814
1.73821
1.73827
1.73832
1.73836
1.73839
1.73841
1.73842
1.73843
1.73842
1.73841
1.73838
1.73836
1.73832
1.73828