# vtk DataFile Version 2.0
LBE two cylinders
ASCII
DATASET STRUCTURED_POINTS
DIMENSIONS 400 100 1
ASPECT_RATIO 1 1 1
ORIGIN 0 0 0
POINT_DATA 40000
SCALARS rho double 1
LOOKUP_TABLE default
1.67893
1.73466
1.74869
1.72765
1.72867
1.73767
1.73628
1.73297
1.73445
1.73581
1.73496
1.73455
1.73508
1.7352
1.73494
1.73494
1.73507
1.73504
1.73498
1.735
1.73502
1.735
1.73499
1.73499
1.73499
1.73497
1.73497
1.73496
1.73495
1.73494
1.73493
1.73492
1.73491
1.7349
1.73489
1.73488
1.73487
1.73486
1.73484
1.73483
1.73482
1.7348
1.73479
1.73477
1.73475
1.73473
1.73472
1.7347
1.73468
1.73466
1.73464
1.73462
1.7346
1.73457
1.73455
1.73453
1.73451
1.73449
1.73447
1.73445
1.73443
1.73441
1.73439
1.73437
1.73436
1.73435
1.73434
1.73433
1.73433
1.73432
1.73433
1.73433
1.73434
1.73435
1.73437
1.73439
1.73441
1.73444
1.73447
1.73451
1.73455
1.7346
1.73465
1.73471
1.73477
1.73483
1.7349
1.73497
1.73504
1.73512
1.73519
1.73527
1.73536
1.73544
1.73553
1.73561
1.7357
1.73578
1.73587
1.73595
1.73603
1.73611
1.73619
1.73626
1.73633
1.7364
1.73647
1.73653
1.73659
1.73664
1.7367
1.73674
1.73679
1.73683
1.73687
1.7369
1.73693
1.73696
1.73699
1.73701
1.73703
1.73705
1.73706
1.73707
1.73708
1.73709
1.7371
1.7371
1.7371
1.7371
1.7371
1.7371
1.7371
1.7371
1.73709
1.73709
1.73708
1.73708
1.73707
1.73706
1.73705
1.73704
1.73704
1.73703
1.73702
1.73701
1.737
1.73699
1.73698
1.73697
1.73696
1.73695
1.73694
1.73693
1.73692
1.73691
1.7369
1.73689
1.73688
1.73687
1.73686
1.73685
1.73685
1.73684
1.73683
1.73682
1.73681
1.73681
1.7368
1.73679
1.73679
1.73678
1.73677
1.73677
1.73676
1.73676
1.73675
1.73675
1.73674
1.73674
1.73673
1.73673
1.73672
1.73672
1.73671
1.73671
1.7367
1.7367
1.73669
1.73668
1.73668
1.73667
1.73666
1.73665
1.73665
1.73664
1.73663
1.73662
1.7366
1.73659
1.73658
1.73656
1.73655
1.73653
1.73651
1.73649
1.73647
1.73645
1.73642
1.7364
1.73637
1.73634
1.73631
1.73628
1.73625
1.73621
1.73618
1.73614
1.7361
1.73606
1.73602
1.73597
1.73593
1.73588
1.73583
1.73578
1.73573
1.73568
1.73563
1.73558
1.73553
1.73547
1.73542
1.73537
1.73532
1.73527
1.73522
1.73517
1.73513
1.73508
1.73504
1.735
1.73496
1.73493
1.7349
1.73488
1.73486
1.73484
1.73483
1.73482
1.73482
1.73483
1.73484
1.73486
1.73489
1.73493
1.73497
1.73502
1.73508
1.73515
1.73523
1.73531
1.73541
1.73551
1.73563
1.73575
1.73588
1.73602
1.73617
1.73633
1.7365
1.73668
1.73686
1.73706
1.73726
1.73747
1.73768
1.7379
1.73812
1.73835
1.73858
1.73881
1.73905
1.73928
1.73952
1.73975
1.73998
1.74021
1.74043
1.74064
1.74085
1.74105
1.74125
1.74143
1.7416
1.74176
1.7419
1.74204
1.74216
1.74226
1.74235
1.74242
1.74248
1.74252
1.74254
1.74255
1.74254
1.74251
1.74247
1.74242
1.74234
1.74225
1.74215
1.74204
1.74191
1.74177
1.74161
1.74145
1.74128
1.74109
1.7409
1.74071
1.7405
1.74029
1.74008
1.73987
1.73965
1.73943
1.73921
1.73899
1.73877
1.73856
1.73834
1.73813
1.73793
1.73773
1.73753
1.73735
1.73716
1.73699
1.73682
1.73667
1.73652
1.73638
1.73625
1.73613
1.73602
1.73592
1.73583
1.73576
1.7357
1.73564
1.73561
1.73558
1.73557
1.73557
1.73558
1.73562
1.73566
1.73572
1.7358
1.7359
1.73601
1.73614
1.73629
1.73646
1.73665
1.73686
1.73709
1.73734
1.73762
1.73793
1.73826
1.73862
1.73901
1.73942
1.73988
1.74036
1.74087
1.74145
1.74204
1.74263
1.74334
1.74415
1.74479
1.74556
1.74677
1.74763
1.74809
1.7499
1.75181
1.75128
1.75291
1.75876
1.75724
1.75393
1.76939
1.77634
1.74779
1.78342
1.69856
1.72192
1.73685
1.73064
1.73115
1.73452
1.73473
1.73375
1.7343
1.73487
1.73472
1.73461
1.73481
1.73489
1.73484
1.73485
1.73491
1.73491
1.7349
1.73491
1.73492
1.73492
1.73492
1.73492
1.73492
1.73491
1.73491
1.7349
1.7349
1.73489
1.73489
1.73488
1.73487
1.73486
1.73486
1.73485
1.73484
1.73482
1.73481
1.7348
1.73479
1.73477
1.73476
1.73474
1.73473
1.73471
1.73469
1.73467
1.73466
1.73464
1.73462
1.7346
1.73458
1.73455
1.73453
1.73451
1.73449
1.73447
1.73445
1.73443
1.73441
1.73439
1.73438
1.73436
1.73435
1.73434
1.73433
1.73432
1.73432
1.73431
1.73432
1.73432
1.73433
1.73434
1.73436
1.73438
1.73441
1.73444
1.73447
1.73451
1.73455
1.7346
1.73465
1.7347
1.73477
1.73483
1.7349
1.73497
1.73504
1.73512
1.7352
1.73528
1.73536
1.73544
1.73553
1.73561
1.7357
1.73578
1.73587
1.73595
1.73603
1.73611
1.73619
1.73626
1.73633
1.7364
1.73647
1.73653
1.73659
1.73664
1.73669
1.73674
1.73679
1.73683
1.73686
1.7369
1.73693
1.73696
1.73698
1.737
1.73702
1.73704
1.73705
1.73707
1.73708
1.73708
1.73709
1.73709
1.7371
1.7371
1.7371
1.7371
1.73709
1.73709
1.73709
1.73708
1.73707
1.73707
1.73706
1.73705
1.73705
1.73704
1.73703
1.73702
1.73701
1.737
1.73699
1.73698
1.73697
1.73696
1.73695
1.73694
1.73693
1.73692
1.73691
1.7369
1.73689
1.73688
1.73688
1.73687
1.73686
1.73685
1.73684
1.73683
1.73682
1.73682
1.73681
1.7368
1.7368
1.73679
1.73678
1.73677
1.73677
1.73676
1.73676
1.73675
1.73675
1.73674
1.73674
1.73673
1.73673
1.73672
1.73672
1.73671
1.73671
1.7367
1.7367
1.73669
1.73669
1.73668
1.73667
1.73667
1.73666
1.73665
1.73664
1.73663
1.73662
1.73661
1.7366
1.73659
1.73657
1.73656
1.73654
1.73652
1.73651
1.73649
1.73647
1.73644
1.73642
1.73639
1.73637
1.73634
1.73631
1.73628
1.73624
1.73621
1.73617
1.73613
1.73609
1.73605
1.73601
1.73596
1.73592
1.73587
1.73582
1.73578
1.73573
1.73567
1.73562
1.73557
1.73552
1.73547
1.73542
1.73536
1.73531
1.73526
1.73521
1.73517
1.73512
1.73508
1.73503
1.735
1.73496
1.73493
1.7349
1.73487
1.73485
1.73484
1.73483
1.73482
1.73482
1.73483
1.73485
1.73487
1.73489
1.73493
1.73497
1.73503
1.73509
1.73516
1.73523
1.73532
1.73542
1.73552
1.73564
1.73576
1.73589
1.73604
1.73619
1.73635
1.73652
1.73669
1.73688
1.73707
1.73728
1.73748
1.7377
1.73792
1.73814
1.73837
1.7386
1.73883
1.73907
1.7393
1.73953
1.73977
1.74
1.74022
1.74044
1.74066
1.74087
1.74107
1.74126
1.74144
1.74161
1.74176
1.74191
1.74204
1.74216
1.74226
1.74235
1.74242
1.74247
1.74251
1.74253
1.74254
1.74253
1.7425
1.74246
1.7424
1.74233
1.74224
1.74213
1.74202
1.74189
1.74174
1.74159
1.74143
1.74125
1.74107
1.74088
1.74068
1.74048
1.74027
1.74006
1.73984
1.73963
1.73941
1.73919
1.73897
1.73875
1.73854
1.73832
1.73811
1.73791
1.73771
1.73752
1.73733
1.73715
1.73698
1.73681
1.73666
1.73651
1.73637
1.73624
1.73612
1.73602
1.73592
1.73583
1.73576
1.7357
1.73565
1.73561
1.73558
1.73557
1.73558
1.73559
1.73562
1.73567
1.73573
1.73581
1.73591
1.73602
1.73615
1.73631
1.73648
1.73667
1.73688
1.73711
1.73737
1.73765
1.73796
1.73829
1.73865
1.73905
1.73947
1.73992
1.7404
1.74093
1.74149
1.74207
1.74273
1.74342
1.74412
1.7449
1.7458
1.74666
1.74754
1.74869
1.74998
1.75093
1.7522
1.75444
1.75625
1.75663
1.76019
1.76634
1.76727
1.76392
1.78836
1.75068
1.7229
1.71314
1.7362
1.73892
1.72968
1.73145
1.73598
1.73477
1.73324
1.73438
1.73506
1.73454
1.73443
1.7348
1.73484
1.73471
1.73476
1.73485
1.73483
1.73482
1.73484
1.73486
1.73485
1.73485
1.73486
1.73486
1.73485
1.73485
1.73485
1.73485
1.73484
1.73483
1.73483
1.73482
1.73481
1.7348
1.73479
1.73478
1.73477
1.73476
1.73475
1.73473
1.73472
1.7347
1.73469
1.73467
1.73465
1.73464
1.73462
1.7346
1.73458
1.73456
1.73454
1.73452
1.73449
1.73447
1.73445
1.73443
1.73441
1.7344
1.73438
1.73436
1.73435
1.73433
1.73432
1.73431
1.73431
1.7343
1.7343
1.73431
1.73431
1.73432
1.73433
1.73435
1.73437
1.7344
1.73443
1.73446
1.7345
1.73454
1.73459
1.73464
1.7347
1.73476
1.73482
1.73489
1.73496
1.73504
1.73512
1.7352
1.73528
1.73536
1.73544
1.73553
1.73562
1.7357
1.73579
1.73587
1.73595
1.73603
1.73611
1.73619
1.73626
1.73633
1.7364
1.73647
1.73653
1.73659
1.73664
1.73669
1.73674
1.73679
1.73682
1.73686
1.7369
1.73693
1.73695
1.73698
1.737
1.73702
1.73704
1.73705
1.73706
1.73707
1.73708
1.73708
1.73709
1.73709
1.73709
1.73709
1.73709
1.73709
1.73708
1.73708
1.73707
1.73707
1.73706
1.73705
1.73705
1.73704
1.73703
1.73702
1.73701
1.737
1.73699
1.73698
1.73697
1.73696
1.73695
1.73694
1.73693
1.73692
1.73691
1.73691
1.7369
1.73689
1.73688
1.73687
1.73686
1.73685
1.73684
1.73683
1.73683
1.73682
1.73681
1.7368
1.7368
1.73679
1.73678
1.73678
1.73677
1.73676
1.73676
1.73675
1.73675
1.73674
1.73674
1.73673
1.73673
1.73672
1.73672
1.73671
1.73671
1.7367
1.7367
1.73669
1.73669
1.73668
1.73667
1.73667
1.73666
1.73665
1.73665
1.73664
1.73663
1.73662
1.73661
1.73659
1.73658
1.73657
1.73655
1.73654
1.73652
1.7365
1.73648
1.73646
1.73644
1.73641
1.73639
1.73636
1.73633
1.7363
1.73627
1.73624
1.7362
1.73617
1.73613
1.73609
1.73605
1.736
1.73596
1.73591
1.73587
1.73582
1.73577
1.73572
1.73567
1.73562
1.73556
1.73551
1.73546
1.73541
1.73536
1.73531
1.73525
1.73521
1.73516
1.73511
1.73507
1.73503
1.73499
1.73495
1.73492
1.73489
1.73487
1.73485
1.73483
1.73482
1.73482
1.73482
1.73483
1.73484
1.73486
1.73489
1.73493
1.73497
1.73502
1.73508
1.73515
1.73523
1.73532
1.73542
1.73552
1.73564
1.73576
1.7359
1.73604
1.73619
1.73635
1.73652
1.7367
1.73689
1.73708
1.73729
1.73749
1.73771
1.73793
1.73815
1.73838
1.73861
1.73885
1.73908
1.73932
1.73955
1.73979
1.74002
1.74024
1.74046
1.74068
1.74089
1.74109
1.74128
1.74146
1.74163
1.74178
1.74193
1.74206
1.74217
1.74227
1.74236
1.74243
1.74248
1.74252
1.74254
1.74254
1.74253
1.7425
1.74246
1.7424
1.74232
1.74223
1.74213
1.74201
1.74188
1.74173
1.74158
1.74141
1.74124
1.74105
1.74086
1.74066
1.74046
1.74025
1.74004
1.73982
1.7396
1.73938
1.73916
1.73895
1.73873
1.73851
1.7383
1.73809
1.73789
1.73769
1.7375
1.73731
1.73713
1.73696
1.73679
1.73664
1.73649
1.73635
1.73623
1.73611
1.736
1.73591
1.73582
1.73575
1.73569
1.73564
1.7356
1.73558
1.73557
1.73557
1.73559
1.73562
1.73567
1.73573
1.73581
1.73591
1.73602
1.73615
1.73631
1.73648
1.73667
1.73688
1.73712
1.73737
1.73766
1.73797
1.7383
1.73866
1.73906
1.73948
1.73992
1.74042
1.74095
1.74148
1.74208
1.74277
1.74341
1.74408
1.74498
1.74586
1.74647
1.74758
1.74909
1.74954
1.75034
1.75348
1.75448
1.75292
1.75862
1.76517
1.75647
1.75959
1.78781
1.77764
1.73337
1.73001
1.73035
1.73299
1.73125
1.73265
1.73437
1.73371
1.73345
1.73427
1.73451
1.73426
1.73437
1.73462
1.73462
1.73459
1.73467
1.73472
1.73472
1.73473
1.73476
1.73478
1.73478
1.73479
1.7348
1.7348
1.7348
1.73481
1.73481
1.73481
1.7348
1.7348
1.7348
1.73479
1.73479
1.73478
1.73477
1.73476
1.73476
1.73475
1.73474
1.73472
1.73471
1.7347
1.73468
1.73467
1.73465
1.73463
1.73462
1.7346
1.73458
1.73456
1.73454
1.73452
1.7345
1.73448
1.73446
1.73444
1.73442
1.7344
1.73438
1.73436
1.73435
1.73433
1.73432
1.73431
1.7343
1.73429
1.73429
1.73429
1.73429
1.7343
1.73431
1.73432
1.73434
1.73436
1.73439
1.73442
1.73445
1.73449
1.73453
1.73458
1.73464
1.73469
1.73475
1.73482
1.73489
1.73496
1.73504
1.73511
1.73519
1.73528
1.73536
1.73545
1.73553
1.73562
1.7357
1.73579
1.73587
1.73596
1.73604
1.73612
1.73619
1.73627
1.73634
1.73641
1.73647
1.73653
1.73659
1.73664
1.7367
1.73674
1.73679
1.73683
1.73686
1.7369
1.73693
1.73695
1.73698
1.737
1.73702
1.73703
1.73705
1.73706
1.73707
1.73707
1.73708
1.73708
1.73708
1.73708
1.73708
1.73708
1.73708
1.73708
1.73707
1.73707
1.73706
1.73705
1.73705
1.73704
1.73703
1.73702
1.73701
1.737
1.73699
1.73698
1.73698
1.73697
1.73696
1.73695
1.73694
1.73693
1.73692
1.73691
1.7369
1.73689
1.73688
1.73687
1.73686
1.73685
1.73684
1.73683
1.73683
1.73682
1.73681
1.7368
1.7368
1.73679
1.73678
1.73677
1.73677
1.73676
1.73676
1.73675
1.73675
1.73674
1.73673
1.73673
1.73672
1.73672
1.73672
1.73671
1.73671
1.7367
1.7367
1.73669
1.73669
1.73668
1.73668
1.73667
1.73666
1.73666
1.73665
1.73664
1.73663
1.73662
1.73661
1.7366
1.73659
1.73658
1.73656
1.73655
1.73653
1.73652
1.7365
1.73648
1.73646
1.73643
1.73641
1.73638
1.73636
1.73633
1.7363
1.73627
1.73623
1.7362
1.73616
1.73612
1.73608
1.73604
1.736
1.73595
1.73591
1.73586
1.73581
1.73576
1.73571
1.73566
1.73561
1.73556
1.7355
1.73545
1.7354
1.73535
1.7353
1.73525
1.7352
1.73515
1.7351
1.73506
1.73502
1.73498
1.73494
1.73491
1.73488
1.73485
1.73483
1.73482
1.73481
1.7348
1.7348
1.73481
1.73483
1.73485
1.73488
1.73491
1.73496
1.73501
1.73507
1.73514
1.73522
1.73531
1.73541
1.73551
1.73563
1.73575
1.73589
1.73603
1.73619
1.73635
1.73652
1.7367
1.73689
1.73708
1.73729
1.7375
1.73771
1.73794
1.73816
1.73839
1.73863
1.73886
1.7391
1.73933
1.73957
1.7398
1.74004
1.74026
1.74049
1.7407
1.74091
1.74111
1.7413
1.74148
1.74165
1.74181
1.74195
1.74208
1.7422
1.7423
1.74238
1.74245
1.74251
1.74254
1.74256
1.74256
1.74255
1.74252
1.74247
1.74241
1.74233
1.74224
1.74213
1.74201
1.74188
1.74173
1.74157
1.7414
1.74123
1.74104
1.74085
1.74065
1.74044
1.74023
1.74002
1.7398
1.73958
1.73936
1.73914
1.73892
1.7387
1.73849
1.73828
1.73807
1.73786
1.73766
1.73747
1.73728
1.73711
1.73693
1.73677
1.73661
1.73647
1.73633
1.7362
1.73609
1.73598
1.73588
1.7358
1.73573
1.73567
1.73562
1.73558
1.73556
1.73555
1.73555
1.73557
1.7356
1.73565
1.73571
1.73579
1.73589
1.73601
1.73614
1.73629
1.73646
1.73665
1.73686
1.7371
1.73736
1.73764
1.73795
1.73828
1.73864
1.73903
1.73945
1.73991
1.74039
1.74091
1.74147
1.74207
1.74269
1.74338
1.74412
1.74486
1.74569
1.74663
1.74753
1.74851
1.74973
1.75089
1.75206
1.75373
1.75532
1.75665
1.75929
1.76209
1.76314
1.76908
1.76753
1.72197
1.73426
1.73986
1.7283
1.72861
1.73635
1.73471
1.7317
1.73369
1.73509
1.73405
1.7338
1.73455
1.73465
1.73438
1.73448
1.73468
1.73465
1.73461
1.73468
1.73472
1.73471
1.73472
1.73474
1.73475
1.73475
1.73476
1.73477
1.73477
1.73477
1.73477
1.73477
1.73477
1.73476
1.73476
1.73475
1.73475
1.73474
1.73473
1.73472
1.73471
1.7347
1.73469
1.73468
1.73466
1.73465
1.73463
1.73462
1.7346
1.73458
1.73456
1.73454
1.73452
1.7345
1.73448
1.73446
1.73444
1.73442
1.7344
1.73438
1.73437
1.73435
1.73433
1.73432
1.7343
1.73429
1.73428
1.73428
1.73427
1.73427
1.73428
1.73428
1.73429
1.73431
1.73432
1.73435
1.73437
1.7344
1.73444
1.73448
1.73452
1.73457
1.73463
1.73468
1.73475
1.73481
1.73488
1.73495
1.73503
1.73511
1.73519
1.73527
1.73536
1.73545
1.73553
1.73562
1.73571
1.73579
1.73588
1.73596
1.73604
1.73612
1.7362
1.73627
1.73634
1.73641
1.73648
1.73654
1.7366
1.73665
1.7367
1.73675
1.73679
1.73683
1.73687
1.7369
1.73693
1.73695
1.73698
1.737
1.73702
1.73703
1.73704
1.73705
1.73706
1.73707
1.73707
1.73708
1.73708
1.73708
1.73708
1.73708
1.73707
1.73707
1.73706
1.73706
1.73705
1.73704
1.73704
1.73703
1.73702
1.73701
1.737
1.73699
1.73699
1.73698
1.73697
1.73696
1.73695
1.73694
1.73693
1.73692
1.73691
1.7369
1.73689
1.73688
1.73687
1.73686
1.73685
1.73684
1.73683
1.73683
1.73682
1.73681
1.7368
1.73679
1.73679
1.73678
1.73677
1.73677
1.73676
1.73675
1.73675
1.73674
1.73674
1.73673
1.73673
1.73672
1.73672
1.73671
1.73671
1.7367
1.7367
1.73669
1.73669
1.73668
1.73668
1.73667
1.73667
1.73666
1.73666
1.73665
1.73664
1.73663
1.73663
1.73662
1.73661
1.7366
1.73659
1.73657
1.73656
1.73654
1.73653
1.73651
1.73649
1.73647
1.73645
1.73643
1.73641
1.73638
1.73635
1.73632
1.73629
1.73626
1.73623
1.73619
1.73616
1.73612
1.73608
1.73604
1.73599
1.73595
1.7359
1.73585
1.73581
1.73576
1.73571
1.73565
1.7356
1.73555
1.7355
1.73544
1.73539
1.73534
1.73529
1.73523
1.73518
1.73514
1.73509
1.73504
1.735
1.73496
1.73493
1.73489
1.73486
1.73484
1.73482
1.7348
1.73479
1.73479
1.73479
1.73479
1.73481
1.73483
1.73486
1.73489
1.73494
1.73499
1.73505
1.73512
1.7352
1.73529
1.73539
1.73549
1.73561
1.73574
1.73587
1.73602
1.73617
1.73634
1.73651
1.73669
1.73688
1.73708
1.73728
1.73749
1.73771
1.73794
1.73816
1.7384
1.73863
1.73887
1.73911
1.73935
1.73959
1.73982
1.74006
1.74029
1.74051
1.74073
1.74094
1.74114
1.74133
1.74152
1.74169
1.74184
1.74199
1.74212
1.74223
1.74233
1.74242
1.74249
1.74254
1.74257
1.74259
1.74259
1.74258
1.74254
1.74249
1.74243
1.74235
1.74225
1.74214
1.74202
1.74188
1.74173
1.74157
1.7414
1.74122
1.74104
1.74084
1.74064
1.74043
1.74022
1.74
1.73978
1.73956
1.73934
1.73912
1.7389
1.73868
1.73846
1.73825
1.73804
1.73783
1.73763
1.73744
1.73725
1.73707
1.7369
1.73674
1.73658
1.73644
1.7363
1.73617
1.73606
1.73595
1.73585
1.73577
1.7357
1.73564
1.73559
1.73555
1.73553
1.73552
1.73552
1.73554
1.73557
1.73562
1.73568
1.73576
1.73586
1.73597
1.73611
1.73626
1.73643
1.73662
1.73683
1.73706
1.73732
1.7376
1.7379
1.73824
1.7386
1.73898
1.7394
1.73985
1.74033
1.74084
1.74141
1.742
1.74259
1.74329
1.74407
1.74471
1.7455
1.74663
1.7474
1.74798
1.74967
1.75117
1.75084
1.75261
1.75694
1.75575
1.75357
1.76349
1.76739
1.75533
1.76106
1.73447
1.73212
1.73047
1.73273
1.73523
1.73285
1.73201
1.73436
1.73463
1.7335
1.73386
1.7346
1.73441
1.7342
1.73446
1.73461
1.73452
1.73453
1.73463
1.73466
1.73464
1.73467
1.7347
1.7347
1.73471
1.73472
1.73473
1.73473
1.73474
1.73474
1.73474
1.73474
1.73474
1.73474
1.73474
1.73473
1.73473
1.73472
1.73471
1.7347
1.73469
1.73468
1.73467
1.73466
1.73465
1.73463
1.73462
1.7346
1.73458
1.73457
1.73455
1.73453
1.73451
1.73449
1.73447
1.73445
1.73443
1.73441
1.73439
1.73437
1.73435
1.73433
1.73432
1.7343
1.73429
1.73428
1.73427
1.73426
1.73426
1.73426
1.73426
1.73427
1.73428
1.73429
1.73431
1.73433
1.73436
1.73439
1.73443
1.73447
1.73451
1.73456
1.73461
1.73467
1.73474
1.7348
1.73487
1.73495
1.73503
1.7351
1.73519
1.73527
1.73536
1.73544
1.73553
1.73562
1.73571
1.73579
1.73588
1.73596
1.73605
1.73613
1.7362
1.73628
1.73635
1.73642
1.73648
1.73654
1.7366
1.73665
1.73671
1.73675
1.73679
1.73683
1.73687
1.7369
1.73693
1.73695
1.73698
1.737
1.73702
1.73703
1.73704
1.73705
1.73706
1.73707
1.73707
1.73707
1.73707
1.73707
1.73707
1.73707
1.73707
1.73706
1.73706
1.73705
1.73704
1.73704
1.73703
1.73702
1.73701
1.737
1.737
1.73699
1.73698
1.73697
1.73696
1.73695
1.73694
1.73693
1.73692
1.73691
1.7369
1.73689
1.73688
1.73687
1.73686
1.73685
1.73684
1.73683
1.73683
1.73682
1.73681
1.7368
1.73679
1.73679
1.73678
1.73677
1.73676
1.73676
1.73675
1.73675
1.73674
1.73673
1.73673
1.73672
1.73672
1.73671
1.73671
1.73671
1.7367
1.7367
1.73669
1.73669
1.73668
1.73668
1.73667
1.73667
1.73666
1.73666
1.73665
1.73664
1.73664
1.73663
1.73662
1.73661
1.7366
1.73659
1.73658
1.73657
1.73655
1.73654
1.73652
1.73651
1.73649
1.73647
1.73645
1.73643
1.7364
1.73638
1.73635
1.73632
1.73629
1.73626
1.73623
1.73619
1.73615
1.73611
1.73607
1.73603
1.73599
1.73594
1.7359
1.73585
1.7358
1.73575
1.7357
1.73565
1.73559
1.73554
1.73549
1.73543
1.73538
1.73533
1.73527
1.73522
1.73517
1.73512
1.73507
1.73503
1.73499
1.73495
1.73491
1.73487
1.73484
1.73482
1.7348
1.73478
1.73477
1.73476
1.73476
1.73477
1.73478
1.73481
1.73483
1.73487
1.73491
1.73497
1.73503
1.7351
1.73518
1.73526
1.73536
1.73547
1.73559
1.73571
1.73585
1.736
1.73615
1.73632
1.73649
1.73667
1.73686
1.73706
1.73727
1.73748
1.7377
1.73793
1.73816
1.7384
1.73863
1.73887
1.73912
1.73936
1.7396
1.73984
1.74008
1.74031
1.74054
1.74076
1.74097
1.74117
1.74137
1.74155
1.74172
1.74188
1.74203
1.74216
1.74228
1.74238
1.74246
1.74253
1.74258
1.74261
1.74263
1.74263
1.74261
1.74258
1.74252
1.74246
1.74237
1.74228
1.74216
1.74204
1.7419
1.74174
1.74158
1.74141
1.74123
1.74103
1.74083
1.74063
1.74042
1.7402
1.73998
1.73976
1.73954
1.73932
1.73909
1.73887
1.73865
1.73843
1.73822
1.73801
1.7378
1.7376
1.73741
1.73722
1.73704
1.73687
1.7367
1.73655
1.7364
1.73626
1.73614
1.73602
1.73591
1.73582
1.73573
1.73566
1.7356
1.73555
1.73551
1.73549
1.73548
1.73549
1.7355
1.73553
1.73558
1.73564
1.73572
1.73582
1.73593
1.73606
1.73621
1.73638
1.73657
1.73677
1.73701
1.73726
1.73754
1.73784
1.73816
1.73852
1.73891
1.73932
1.73976
1.74024
1.74075
1.74128
1.74188
1.74251
1.74313
1.74384
1.74465
1.74538
1.74615
1.74722
1.74817
1.74885
1.75017
1.75179
1.75221
1.75311
1.7562
1.7573
1.75676
1.75978
1.76075
1.76135
1.73751
1.73202
1.7299
1.73542
1.73483
1.73131
1.73341
1.7352
1.73366
1.73336
1.73451
1.73454
1.73406
1.7343
1.7346
1.73449
1.73444
1.73457
1.73463
1.73459
1.73461
1.73466
1.73467
1.73467
1.73469
1.7347
1.73471
1.73471
1.73472
1.73472
1.73472
1.73472
1.73472
1.73472
1.73472
1.73471
1.73471
1.7347
1.7347
1.73469
1.73468
1.73467
1.73466
1.73465
1.73463
1.73462
1.7346
1.73459
1.73457
1.73455
1.73454
1.73452
1.7345
1.73448
1.73446
1.73444
1.73442
1.7344
1.73438
1.73436
1.73434
1.73432
1.73431
1.73429
1.73428
1.73427
1.73426
1.73425
1.73425
1.73425
1.73425
1.73426
1.73427
1.73428
1.7343
1.73432
1.73435
1.73438
1.73441
1.73445
1.7345
1.73455
1.7346
1.73466
1.73473
1.73479
1.73487
1.73494
1.73502
1.7351
1.73518
1.73527
1.73536
1.73544
1.73553
1.73562
1.73571
1.7358
1.73588
1.73597
1.73605
1.73613
1.73621
1.73628
1.73636
1.73642
1.73649
1.73655
1.73661
1.73666
1.73671
1.73676
1.7368
1.73684
1.73687
1.7369
1.73693
1.73696
1.73698
1.737
1.73701
1.73703
1.73704
1.73705
1.73706
1.73706
1.73707
1.73707
1.73707
1.73707
1.73707
1.73706
1.73706
1.73705
1.73705
1.73704
1.73704
1.73703
1.73702
1.73701
1.737
1.73699
1.73699
1.73698
1.73697
1.73696
1.73695
1.73694
1.73693
1.73692
1.73691
1.7369
1.73689
1.73688
1.73687
1.73686
1.73685
1.73684
1.73683
1.73682
1.73682
1.73681
1.7368
1.73679
1.73678
1.73678
1.73677
1.73676
1.73676
1.73675
1.73674
1.73674
1.73673
1.73673
1.73672
1.73672
1.73671
1.73671
1.7367
1.7367
1.73669
1.73669
1.73668
1.73668
1.73667
1.73667
1.73667
1.73666
1.73666
1.73665
1.73664
1.73664
1.73663
1.73662
1.73662
1.73661
1.7366
1.73659
1.73658
1.73656
1.73655
1.73654
1.73652
1.7365
1.73648
1.73647
1.73644
1.73642
1.7364
1.73637
1.73635
1.73632
1.73629
1.73625
1.73622
1.73619
1.73615
1.73611
1.73607
1.73603
1.73598
1.73594
1.73589
1.73584
1.73579
1.73574
1.73569
1.73564
1.73559
1.73553
1.73548
1.73542
1.73537
1.73531
1.73526
1.73521
1.73516
1.73511
1.73506
1.73501
1.73497
1.73493
1.73489
1.73485
1.73482
1.7348
1.73477
1.73476
1.73474
1.73474
1.73474
1.73474
1.73476
1.73478
1.7348
1.73484
1.73488
1.73494
1.735
1.73507
1.73514
1.73523
1.73533
1.73544
1.73556
1.73568
1.73582
1.73597
1.73612
1.73629
1.73646
1.73665
1.73684
1.73704
1.73725
1.73747
1.73769
1.73792
1.73815
1.73839
1.73863
1.73887
1.73912
1.73936
1.73961
1.73985
1.74009
1.74033
1.74056
1.74078
1.741
1.74121
1.7414
1.74159
1.74176
1.74193
1.74207
1.74221
1.74232
1.74242
1.74251
1.74258
1.74263
1.74266
1.74268
1.74267
1.74265
1.74262
1.74256
1.74249
1.7424
1.7423
1.74219
1.74206
1.74191
1.74176
1.74159
1.74141
1.74123
1.74103
1.74083
1.74062
1.74041
1.74019
1.73997
1.73974
1.73952
1.73929
1.73907
1.73884
1.73862
1.7384
1.73818
1.73797
1.73776
1.73756
1.73737
1.73718
1.737
1.73683
1.73666
1.7365
1.73636
1.73622
1.73609
1.73598
1.73587
1.73578
1.73569
1.73562
1.73556
1.73551
1.73547
1.73545
1.73544
1.73544
1.73546
1.73549
1.73553
1.7356
1.73567
1.73577
1.73588
1.736
1.73615
1.73632
1.7365
1.73671
1.73693
1.73718
1.73746
1.73776
1.73808
1.73843
1.73881
1.73921
1.73964
1.74012
1.74063
1.74114
1.74171
1.74236
1.74297
1.7436
1.74443
1.74523
1.74581
1.74676
1.74807
1.74855
1.74909
1.75134
1.75255
1.75141
1.75384
1.75813
1.75522
1.75446
1.76171
1.75938
1.73173
1.73395
1.73538
1.73294
1.73186
1.73454
1.73495
1.73302
1.7335
1.73482
1.73435
1.73384
1.73436
1.73464
1.73437
1.73437
1.73458
1.7346
1.73453
1.73459
1.73465
1.73464
1.73464
1.73467
1.73468
1.73468
1.73469
1.7347
1.7347
1.73471
1.73471
1.73471
1.73471
1.73471
1.73471
1.7347
1.7347
1.73469
1.73469
1.73468
1.73467
1.73466
1.73465
1.73464
1.73462
1.73461
1.73459
1.73458
1.73456
1.73454
1.73453
1.73451
1.73449
1.73447
1.73445
1.73443
1.73441
1.73439
1.73437
1.73435
1.73433
1.73431
1.7343
1.73428
1.73427
1.73426
1.73425
1.73424
1.73424
1.73424
1.73424
1.73425
1.73425
1.73427
1.73429
1.73431
1.73434
1.73437
1.7344
1.73444
1.73449
1.73454
1.73459
1.73465
1.73472
1.73479
1.73486
1.73493
1.73501
1.7351
1.73518
1.73527
1.73535
1.73544
1.73553
1.73562
1.73571
1.7358
1.73589
1.73597
1.73606
1.73614
1.73622
1.73629
1.73636
1.73643
1.7365
1.73656
1.73661
1.73667
1.73672
1.73676
1.7368
1.73684
1.73687
1.73691
1.73693
1.73696
1.73698
1.737
1.73701
1.73703
1.73704
1.73705
1.73705
1.73706
1.73706
1.73706
1.73706
1.73706
1.73706
1.73706
1.73705
1.73705
1.73704
1.73704
1.73703
1.73702
1.73701
1.737
1.73699
1.73699
1.73698
1.73697
1.73696
1.73695
1.73694
1.73693
1.73692
1.73691
1.7369
1.73689
1.73688
1.73687
1.73686
1.73685
1.73684
1.73683
1.73682
1.73681
1.7368
1.7368
1.73679
1.73678
1.73677
1.73677
1.73676
1.73675
1.73675
1.73674
1.73673
1.73673
1.73672
1.73672
1.73671
1.73671
1.7367
1.7367
1.73669
1.73669
1.73668
1.73668
1.73668
1.73667
1.73667
1.73666
1.73666
1.73665
1.73665
1.73664
1.73664
1.73663
1.73662
1.73662
1.73661
1.7366
1.73659
1.73658
1.73657
1.73656
1.73654
1.73653
1.73652
1.7365
1.73648
1.73646
1.73644
1.73642
1.73639
1.73637
1.73634
1.73631
1.73628
1.73625
1.73622
1.73618
1.73615
1.73611
1.73607
1.73602
1.73598
1.73593
1.73589
1.73584
1.73579
1.73574
1.73568
1.73563
1.73558
1.73552
1.73547
1.73541
1.73536
1.7353
1.73525
1.73519
1.73514
1.73509
1.73504
1.73499
1.73495
1.73491
1.73487
1.73483
1.7348
1.73477
1.73475
1.73473
1.73472
1.73471
1.73471
1.73471
1.73472
1.73474
1.73477
1.73481
1.73485
1.7349
1.73496
1.73503
1.73511
1.7352
1.73529
1.7354
1.73552
1.73565
1.73578
1.73593
1.73609
1.73626
1.73643
1.73662
1.73681
1.73701
1.73723
1.73744
1.73767
1.7379
1.73814
1.73838
1.73862
1.73887
1.73912
1.73937
1.73961
1.73986
1.7401
1.74034
1.74058
1.74081
1.74103
1.74124
1.74144
1.74163
1.74181
1.74197
1.74212
1.74225
1.74237
1.74247
1.74256
1.74263
1.74268
1.74271
1.74272
1.74272
1.7427
1.74266
1.7426
1.74253
1.74244
1.74233
1.74221
1.74208
1.74193
1.74177
1.7416
1.74142
1.74123
1.74103
1.74083
1.74061
1.7404
1.74018
1.73995
1.73972
1.73949
1.73927
1.73904
1.73881
1.73859
1.73836
1.73815
1.73793
1.73772
1.73752
1.73733
1.73714
1.73696
1.73678
1.73662
1.73646
1.73631
1.73618
1.73605
1.73593
1.73583
1.73573
1.73564
1.73557
1.73551
1.73546
1.73542
1.7354
1.73539
1.73539
1.73541
1.73544
1.73548
1.73554
1.73562
1.73571
1.73582
1.73594
1.73608
1.73625
1.73643
1.73663
1.73685
1.7371
1.73736
1.73765
1.73797
1.73831
1.73868
1.73908
1.73951
1.73996
1.74045
1.74099
1.74153
1.7421
1.74278
1.74343
1.74405
1.74487
1.74576
1.74633
1.74714
1.74851
1.74923
1.74943
1.75119
1.753
1.75239
1.75318
1.75606
1.75585
1.75533
1.75572
1.73244
1.73428
1.7348
1.7327
1.73352
1.73494
1.73366
1.73336
1.73459
1.73448
1.73386
1.73427
1.73463
1.73438
1.73433
1.73456
1.73459
1.73451
1.73456
1.73463
1.73463
1.73462
1.73465
1.73467
1.73467
1.73468
1.73469
1.7347
1.7347
1.7347
1.7347
1.7347
1.7347
1.7347
1.7347
1.7347
1.73469
1.73469
1.73468
1.73467
1.73466
1.73465
1.73464
1.73463
1.73462
1.7346
1.73459
1.73457
1.73456
1.73454
1.73452
1.7345
1.73448
1.73446
1.73444
1.73442
1.7344
1.73438
1.73436
1.73434
1.73432
1.73431
1.73429
1.73428
1.73426
1.73425
1.73424
1.73423
1.73423
1.73423
1.73423
1.73424
1.73425
1.73426
1.73428
1.7343
1.73433
1.73436
1.73439
1.73444
1.73448
1.73453
1.73459
1.73465
1.73471
1.73478
1.73485
1.73493
1.73501
1.73509
1.73518
1.73526
1.73535
1.73544
1.73553
1.73562
1.73571
1.7358
1.73589
1.73598
1.73606
1.73614
1.73622
1.7363
1.73637
1.73644
1.7365
1.73656
1.73662
1.73667
1.73672
1.73676
1.73681
1.73684
1.73688
1.73691
1.73693
1.73696
1.73698
1.737
1.73701
1.73702
1.73703
1.73704
1.73705
1.73705
1.73706
1.73706
1.73706
1.73706
1.73705
1.73705
1.73704
1.73704
1.73703
1.73703
1.73702
1.73701
1.737
1.73699
1.73699
1.73698
1.73697
1.73696
1.73695
1.73694
1.73693
1.73692
1.73691
1.7369
1.73689
1.73688
1.73687
1.73686
1.73685
1.73684
1.73683
1.73682
1.73681
1.7368
1.73679
1.73679
1.73678
1.73677
1.73676
1.73676
1.73675
1.73674
1.73674
1.73673
1.73672
1.73672
1.73671
1.73671
1.7367
1.7367
1.73669
1.73669
1.73668
1.73668
1.73667
1.73667
1.73667
1.73666
1.73666
1.73665
1.73665
1.73664
1.73664
1.73663
1.73663
1.73662
1.73662
1.73661
1.7366
1.73659
1.73658
1.73657
1.73656
1.73655
1.73654
1.73653
1.73651
1.73649
1.73648
1.73646
1.73644
1.73641
1.73639
1.73637
1.73634
1.73631
1.73628
1.73625
1.73621
1.73618
1.73614
1.7361
1.73606
1.73602
1.73597
1.73593
1.73588
1.73583
1.73578
1.73573
1.73568
1.73562
1.73557
1.73551
1.73546
1.7354
1.73535
1.73529
1.73523
1.73518
1.73513
1.73507
1.73502
1.73497
1.73493
1.73488
1.73484
1.73481
1.73477
1.73474
1.73472
1.7347
1.73469
1.73468
1.73468
1.73468
1.73469
1.73471
1.73474
1.73477
1.73481
1.73486
1.73492
1.73499
1.73507
1.73516
1.73525
1.73536
1.73548
1.73561
1.73574
1.73589
1.73605
1.73622
1.7364
1.73658
1.73678
1.73698
1.73719
1.73741
1.73764
1.73788
1.73811
1.73836
1.73861
1.73886
1.73911
1.73936
1.73961
1.73987
1.74011
1.74036
1.7406
1.74083
1.74105
1.74127
1.74147
1.74166
1.74185
1.74201
1.74216
1.7423
1.74242
1.74252
1.74261
1.74268
1.74273
1.74276
1.74277
1.74277
1.74274
1.7427
1.74264
1.74257
1.74247
1.74236
1.74224
1.7421
1.74195
1.74179
1.74161
1.74143
1.74123
1.74103
1.74082
1.74061
1.74038
1.74016
1.73993
1.7397
1.73947
1.73924
1.73901
1.73878
1.73855
1.73833
1.73811
1.73789
1.73768
1.73748
1.73728
1.73709
1.73691
1.73674
1.73657
1.73641
1.73627
1.73613
1.736
1.73588
1.73578
1.73568
1.7356
1.73552
1.73546
1.73541
1.73537
1.73535
1.73534
1.73534
1.73535
1.73538
1.73542
1.73548
1.73555
1.73564
1.73575
1.73587
1.73601
1.73617
1.73635
1.73654
1.73676
1.737
1.73726
1.73754
1.73785
1.73819
1.73855
1.73893
1.73936
1.7398
1.74026
1.74079
1.74134
1.74187
1.74249
1.7432
1.74379
1.74442
1.74536
1.74615
1.74657
1.74761
1.749
1.74917
1.74958
1.75188
1.75249
1.75135
1.75396
1.75556
1.75264
1.75391
1.73543
1.73366
1.73276
1.73456
1.73499
1.73326
1.7335
1.73494
1.73442
1.73367
1.73436
1.73475
1.7343
1.73427
1.73461
1.73461
1.73447
1.73455
1.73465
1.73462
1.7346
1.73465
1.73467
1.73466
1.73467
1.73469
1.73469
1.73469
1.7347
1.7347
1.7347
1.7347
1.7347
1.7347
1.7347
1.73469
1.73469
1.73468
1.73468
1.73467
1.73466
1.73465
1.73464
1.73463
1.73461
1.7346
1.73459
1.73457
1.73455
1.73454
1.73452
1.7345
1.73448
1.73446
1.73444
1.73442
1.7344
1.73438
1.73436
1.73434
1.73432
1.7343
1.73429
1.73427
1.73426
1.73425
1.73424
1.73423
1.73423
1.73423
1.73423
1.73423
1.73424
1.73426
1.73427
1.7343
1.73432
1.73435
1.73439
1.73443
1.73448
1.73453
1.73458
1.73464
1.73471
1.73478
1.73485
1.73493
1.73501
1.73509
1.73518
1.73526
1.73535
1.73544
1.73553
1.73562
1.73571
1.7358
1.73589
1.73598
1.73606
1.73614
1.73622
1.7363
1.73637
1.73644
1.7365
1.73656
1.73662
1.73667
1.73672
1.73677
1.73681
1.73684
1.73688
1.73691
1.73693
1.73696
1.73698
1.73699
1.73701
1.73702
1.73703
1.73704
1.73704
1.73705
1.73705
1.73705
1.73705
1.73705
1.73705
1.73704
1.73704
1.73703
1.73702
1.73702
1.73701
1.737
1.73699
1.73698
1.73698
1.73697
1.73696
1.73695
1.73694
1.73693
1.73692
1.73691
1.7369
1.73689
1.73688
1.73687
1.73686
1.73685
1.73684
1.73683
1.73682
1.73681
1.7368
1.73679
1.73678
1.73678
1.73677
1.73676
1.73675
1.73674
1.73674
1.73673
1.73672
1.73672
1.73671
1.73671
1.7367
1.7367
1.73669
1.73669
1.73668
1.73668
1.73667