# vtk DataFile Version 2.0
LBE two cylinders
ASCII
DATASET STRUCTURED_POINTS
DIMENSIONS 400 100 1
ASPECT_RATIO 1 1 1
ORIGIN 0 0 0
POINT_DATA 40000
SCALARS rho double 1
LOOKUP_TABLE default
1.67923
1.73497
1.749
1.72795
1.72898
1.73798
1.73659
1.73328
1.73476
1.73612
1.73527
1.73486
1.73539
1.73551
1.73525
1.73525
1.73538
1.73536
1.7353
1.73532
1.73534
1.73531
1.7353
1.7353
1.7353
1.73528
1.73528
1.73527
1.73526
1.73525
1.73524
1.73523
1.73522
1.73521
1.73519
1.73518
1.73517
1.73515
1.73514
1.73512
1.7351
1.73508
1.73507
1.73505
1.73503
1.735
1.73498
1.73496
1.73494
1.73491
1.73489
1.73486
1.73484
1.73481
1.73479
1.73476
1.73473
1.73471
1.73468
1.73466
1.73464
1.73461
1.73459
1.73457
1.73456
1.73454
1.73453
1.73452
1.73451
1.7345
1.7345
1.73451
1.73451
1.73452
1.73454
1.73455
1.73458
1.7346
1.73464
1.73467
1.73471
1.73476
1.73481
1.73486
1.73492
1.73499
1.73505
1.73512
1.7352
1.73527
1.73535
1.73543
1.73551
1.73559
1.73568
1.73576
1.73585
1.73593
1.73601
1.73609
1.73617
1.73625
1.73632
1.73639
1.73646
1.73652
1.73658
1.73664
1.73669
1.73674
1.73679
1.73683
1.73687
1.7369
1.73693
1.73696
1.73698
1.737
1.73701
1.73703
1.73704
1.73704
1.73705
1.73705
1.73705
1.73705
1.73704
1.73703
1.73703
1.73702
1.737
1.73699
1.73698
1.73696
1.73695
1.73693
1.73691
1.7369
1.73688
1.73686
1.73684
1.73682
1.7368
1.73678
1.73676
1.73674
1.73671
1.73669
1.73667
1.73665
1.73663
1.73661
1.73659
1.73656
1.73654
1.73652
1.7365
1.73648
1.73646
1.73643
1.73641
1.73639
1.73637
1.73635
1.73633
1.7363
1.73628
1.73626
1.73624
1.73622
1.73619
1.73617
1.73615
1.73613
1.7361
1.73608
1.73605
1.73603
1.73601
1.73598
1.73595
1.73593
1.7359
1.73587
1.73585
1.73582
1.73579
1.73576
1.73573
1.7357
1.73566
1.73563
1.7356
1.73556
1.73552
1.73549
1.73545
1.73541
1.73537
1.73533
1.73529
1.73524
1.7352
1.73515
1.73511
1.73506
1.73501
1.73496
1.73491
1.73486
1.73481
1.73475
1.7347
1.73464
1.73459
1.73453
1.73448
1.73442
1.73436
1.73431
1.73425
1.73419
1.73414
1.73408
1.73403
1.73397
1.73392
1.73387
1.73382
1.73377
1.73372
1.73367
1.73363
1.73359
1.73355
1.73352
1.73349
1.73346
1.73344
1.73342
1.73341
1.7334
1.73339
1.73339
1.7334
1.73341
1.73343
1.73345
1.73348
1.73352
1.73356
1.73361
1.73367
1.73374
1.73381
1.7339
1.73399
1.73409
1.7342
1.73431
1.73444
1.73458
1.73472
1.73487
1.73503
1.7352
1.73538
1.73557
1.73576
1.73596
1.73617
1.73639
1.73662
1.73684
1.73708
1.73732
1.73757
1.73781
1.73807
1.73832
1.73858
1.73883
1.73909
1.73934
1.73959
1.73984
1.74009
1.74033
1.74056
1.74079
1.741
1.74121
1.74141
1.7416
1.74177
1.74193
1.74208
1.74221
1.74233
1.74243
1.74252
1.74259
1.74264
1.74267
1.74269
1.74269
1.74268
1.74264
1.74259
1.74252
1.74244
1.74234
1.74222
1.74209
1.74195
1.74179
1.74162
1.74144
1.74125
1.74105
1.74084
1.74063
1.74041
1.74018
1.73995
1.73971
1.73947
1.73924
1.739
1.73876
1.73852
1.73829
1.73806
1.73784
1.73762
1.7374
1.73719
1.73699
1.7368
1.73662
1.73644
1.73628
1.73612
1.73598
1.73585
1.73573
1.73562
1.73552
1.73543
1.73536
1.7353
1.73526
1.73523
1.73521
1.73521
1.73523
1.73526
1.7353
1.73536
1.73544
1.73554
1.73565
1.73579
1.73594
1.73611
1.7363
1.73652
1.73675
1.73701
1.73729
1.7376
1.73793
1.73829
1.73867
1.73908
1.73952
1.74001
1.74051
1.74103
1.74163
1.74225
1.74285
1.74358
1.7444
1.74505
1.74583
1.74705
1.74791
1.74837
1.75018
1.75209
1.75155
1.75317
1.75901
1.75749
1.75418
1.76963
1.77657
1.74802
1.78366
1.69886
1.72222
1.73715
1.73095
1.73145
1.73483
1.73504
1.73406
1.7346
1.73518
1.73503
1.73492
1.73512
1.7352
1.73515
1.73516
1.73522
1.73522
1.73521
1.73522
1.73524
1.73523
1.73523
1.73523
1.73523
1.73522
1.73522
1.73522
1.73521
1.7352
1.7352
1.73519
1.73518
1.73517
1.73516
1.73514
1.73513
1.73512
1.7351
1.73509
1.73507
1.73506
1.73504
1.73502
1.735
1.73498
1.73496
1.73493
1.73491
1.73489
1.73487
1.73484
1.73482
1.73479
1.73477
1.73474
1.73472
1.73469
1.73467
1.73464
1.73462
1.7346
1.73458
1.73456
1.73454
1.73453
1.73452
1.73451
1.7345
1.73449
1.73449
1.7345
1.7345
1.73451
1.73453
1.73455
1.73457
1.7346
1.73463
1.73467
1.73471
1.73476
1.73481
1.73486
1.73492
1.73499
1.73505
1.73512
1.7352
1.73527
1.73535
1.73543
1.73551
1.7356
1.73568
1.73576
1.73585
1.73593
1.73601
1.73609
1.73617
1.73625
1.73632
1.73639
1.73646
1.73652
1.73658
1.73664
1.73669
1.73674
1.73678
1.73682
1.73686
1.73689
1.73692
1.73695
1.73697
1.73699
1.73701
1.73702
1.73703
1.73704
1.73704
1.73704
1.73704
1.73704
1.73703
1.73703
1.73702
1.73701
1.737
1.73698
1.73697
1.73696
1.73694
1.73692
1.73691
1.73689
1.73687
1.73685
1.73683
1.73681
1.73679
1.73677
1.73675
1.73673
1.73671
1.73669
1.73667
1.73664
1.73662
1.7366
1.73658
1.73656
1.73654
1.73651
1.73649
1.73647
1.73645
1.73643
1.73641
1.73639
1.73636
1.73634
1.73632
1.7363
1.73628
1.73626
1.73623
1.73621
1.73619
1.73617
1.73614
1.73612
1.7361
1.73607
1.73605
1.73603
1.736
1.73598
1.73595
1.73592
1.7359
1.73587
1.73584
1.73581
1.73578
1.73575
1.73572
1.73569
1.73566
1.73562
1.73559
1.73556
1.73552
1.73548
1.73544
1.7354
1.73536
1.73532
1.73528
1.73524
1.73519
1.73515
1.7351
1.73505
1.735
1.73495
1.7349
1.73485
1.7348
1.73475
1.73469
1.73464
1.73458
1.73453
1.73447
1.73441
1.73436
1.7343
1.73424
1.73419
1.73413
1.73408
1.73402
1.73397
1.73391
1.73386
1.73381
1.73376
1.73372
1.73367
1.73363
1.73359
1.73355
1.73352
1.73349
1.73346
1.73344
1.73342
1.7334
1.7334
1.73339
1.73339
1.7334
1.73341
1.73343
1.73345
1.73348
1.73352
1.73357
1.73362
1.73368
1.73375
1.73382
1.73391
1.734
1.7341
1.73421
1.73433
1.73445
1.73459
1.73473
1.73489
1.73505
1.73522
1.7354
1.73558
1.73578
1.73598
1.73619
1.73641
1.73663
1.73686
1.7371
1.73734
1.73759
1.73783
1.73809
1.73834
1.7386
1.73885
1.73911
1.73936
1.73961
1.73986
1.7401
1.74034
1.74057
1.7408
1.74102
1.74122
1.74142
1.7416
1.74178
1.74194
1.74208
1.74221
1.74233
1.74243
1.74251
1.74258
1.74263
1.74267
1.74268
1.74268
1.74266
1.74263
1.74257
1.7425
1.74242
1.74232
1.7422
1.74207
1.74192
1.74177
1.7416
1.74142
1.74123
1.74103
1.74082
1.7406
1.74038
1.74015
1.73992
1.73969
1.73945
1.73921
1.73897
1.73874
1.7385
1.73827
1.73804
1.73782
1.7376
1.73738
1.73718
1.73698
1.73679
1.7366
1.73643
1.73627
1.73611
1.73597
1.73584
1.73572
1.73561
1.73552
1.73543
1.73536
1.7353
1.73526
1.73523
1.73522
1.73522
1.73523
1.73526
1.73531
1.73537
1.73545
1.73555
1.73567
1.7358
1.73596
1.73613
1.73632
1.73654
1.73678
1.73704
1.73732
1.73763
1.73796
1.73832
1.73871
1.73912
1.73957
1.74004
1.74055
1.7411
1.74168
1.74228
1.74295
1.74366
1.74437
1.74516
1.74607
1.74694
1.74781
1.74897
1.75026
1.7512
1.75246
1.7547
1.7565
1.75687
1.76043
1.76657
1.7675
1.76415
1.78859
1.75099
1.7232
1.71344
1.7365
1.73923
1.72998
1.73176
1.73628
1.73507
1.73355
1.73469
1.73537
1.73484
1.73474
1.7351
1.73515
1.73502
1.73507
1.73516
1.73514
1.73512
1.73515
1.73517
1.73516
1.73516
1.73517
1.73517
1.73516
1.73516
1.73516
1.73515
1.73514
1.73514
1.73513
1.73512
1.73511
1.7351
1.73509
1.73507
1.73506
1.73504
1.73503
1.73501
1.73499
1.73497
1.73495
1.73493
1.73491
1.73489
1.73487
1.73484
1.73482
1.7348
1.73477
1.73475
1.73472
1.7347
1.73467
1.73465
1.73463
1.7346
1.73458
1.73456
1.73454
1.73453
1.73451
1.7345
1.73449
1.73449
1.73448
1.73448
1.73448
1.73449
1.7345
1.73452
1.73454
1.73456
1.73459
1.73462
1.73466
1.7347
1.73475
1.7348
1.73486
1.73492
1.73498
1.73505
1.73512
1.7352
1.73527
1.73535
1.73543
1.73552
1.7356
1.73568
1.73577
1.73585
1.73593
1.73602
1.7361
1.73617
1.73625
1.73632
1.73639
1.73646
1.73652
1.73658
1.73664
1.73669
1.73674
1.73678
1.73682
1.73686
1.73689
1.73692
1.73695
1.73697
1.73699
1.737
1.73702
1.73703
1.73703
1.73704
1.73704
1.73704
1.73703
1.73703
1.73702
1.73701
1.737
1.73699
1.73698
1.73696
1.73695
1.73693
1.73692
1.7369
1.73688
1.73686
1.73684
1.73682
1.7368
1.73678
1.73676
1.73674
1.73672
1.7367
1.73668
1.73666
1.73664
1.73662
1.73659
1.73657
1.73655
1.73653
1.73651
1.73649
1.73647
1.73644
1.73642
1.7364
1.73638
1.73636
1.73634
1.73632
1.73629
1.73627
1.73625
1.73623
1.73621
1.73618
1.73616
1.73614
1.73612
1.73609
1.73607
1.73605
1.73602
1.736
1.73597
1.73595
1.73592
1.73589
1.73586
1.73584
1.73581
1.73578
1.73575
1.73572
1.73569
1.73565
1.73562
1.73559
1.73555
1.73552
1.73548
1.73544
1.7354
1.73536
1.73532
1.73528
1.73523
1.73519
1.73514
1.7351
1.73505
1.735
1.73495
1.7349
1.73485
1.73479
1.73474
1.73469
1.73463
1.73458
1.73452
1.73446
1.73441
1.73435
1.73429
1.73424
1.73418
1.73412
1.73407
1.73401
1.73396
1.73391
1.73385
1.7338
1.73376
1.73371
1.73366
1.73362
1.73358
1.73355
1.73351
1.73348
1.73345
1.73343
1.73341
1.7334
1.73339
1.73339
1.73339
1.73339
1.73341
1.73342
1.73345
1.73348
1.73352
1.73356
1.73362
1.73368
1.73375
1.73382
1.73391
1.734
1.7341
1.73421
1.73433
1.73446
1.73459
1.73474
1.73489
1.73505
1.73522
1.7354
1.73559
1.73579
1.73599
1.7362
1.73642
1.73665
1.73688
1.73711
1.73736
1.7376
1.73785
1.7381
1.73836
1.73861
1.73887
1.73913
1.73938
1.73963
1.73988
1.74012
1.74036
1.7406
1.74082
1.74104
1.74124
1.74144
1.74162
1.74179
1.74195
1.7421
1.74223
1.74234
1.74244
1.74253
1.74259
1.74264
1.74267
1.74269
1.74268
1.74266
1.74263
1.74257
1.7425
1.74241
1.74231
1.74219
1.74206
1.74191
1.74175
1.74158
1.7414
1.74121
1.74101
1.7408
1.74058
1.74036
1.74013
1.7399
1.73966
1.73942
1.73919
1.73895
1.73871
1.73848
1.73824
1.73801
1.73779
1.73757
1.73736
1.73715
1.73695
1.73676
1.73658
1.73641
1.73625
1.73609
1.73595
1.73582
1.7357
1.73559
1.7355
1.73542
1.73535
1.73529
1.73525
1.73522
1.73521
1.73521
1.73522
1.73526
1.7353
1.73537
1.73545
1.73555
1.73567
1.7358
1.73595
1.73613
1.73632
1.73654
1.73678
1.73704
1.73732
1.73763
1.73797
1.73833
1.73871
1.73913
1.73958
1.74005
1.74057
1.74112
1.74167
1.74229
1.74299
1.74365
1.74433
1.74525
1.74613
1.74674
1.74786
1.74937
1.74982
1.75061
1.75374
1.75474
1.75317
1.75886
1.7654
1.7567
1.75982
1.78804
1.77787
1.73368
1.73031
1.73066
1.73329
1.73155
1.73295
1.73467
1.73401
1.73375
1.73457
1.73481
1.73456
1.73468
1.73492
1.73492
1.73489
1.73497
1.73503
1.73503
1.73504
1.73507
1.73508
1.73509
1.7351
1.73511
1.73511
1.73511
1.73511
1.73511
1.73511
1.73511
1.7351
1.7351
1.73509
1.73508
1.73508
1.73507
1.73505
1.73504
1.73503
1.73502
1.735
1.73499
1.73497
1.73495
1.73493
1.73491
1.73489
1.73487
1.73485
1.73482
1.7348
1.73478
1.73475
1.73473
1.7347
1.73468
1.73465
1.73463
1.73461
1.73459
1.73456
1.73455
1.73453
1.73451
1.7345
1.73449
1.73448
1.73447
1.73447
1.73447
1.73447
1.73448
1.73449
1.7345
1.73452
1.73455
1.73458
1.73461
1.73465
1.73469
1.73474
1.73479
1.73485
1.73491
1.73498
1.73504
1.73512
1.73519
1.73527
1.73535
1.73543
1.73552
1.7356
1.73568
1.73577
1.73585
1.73594
1.73602
1.7361
1.73618
1.73625
1.73633
1.7364
1.73647
1.73653
1.73659
1.73664
1.7367
1.73674
1.73679
1.73683
1.73686
1.7369
1.73692
1.73695
1.73697
1.73699
1.737
1.73701
1.73702
1.73703
1.73703
1.73703
1.73703
1.73703
1.73702
1.73702
1.73701
1.737
1.73699
1.73697
1.73696
1.73694
1.73693
1.73691
1.73689
1.73687
1.73686
1.73684
1.73682
1.7368
1.73678
1.73676
1.73674
1.73671
1.73669
1.73667
1.73665
1.73663
1.73661
1.73659
1.73657
1.73654
1.73652
1.7365
1.73648
1.73646
1.73644
1.73642
1.7364
1.73637
1.73635
1.73633
1.73631
1.73629
1.73627
1.73624
1.73622
1.7362
1.73618
1.73616
1.73613
1.73611
1.73609
1.73606
1.73604
1.73602
1.73599
1.73597
1.73594
1.73591
1.73589
1.73586
1.73583
1.7358
1.73578
1.73574
1.73571
1.73568
1.73565
1.73562
1.73558
1.73555
1.73551
1.73547
1.73544
1.7354
1.73536
1.73531
1.73527
1.73523
1.73518
1.73514
1.73509
1.73504
1.735
1.73495
1.73489
1.73484
1.73479
1.73474
1.73468
1.73463
1.73457
1.73452
1.73446
1.7344
1.73435
1.73429
1.73423
1.73417
1.73412
1.73406
1.73401
1.73395
1.7339
1.73385
1.7338
1.73375
1.7337
1.73366
1.73361
1.73357
1.73354
1.7335
1.73347
1.73345
1.73342
1.7334
1.73339
1.73338
1.73338
1.73338
1.73338
1.7334
1.73341
1.73344
1.73347
1.73351
1.73356
1.73361
1.73367
1.73374
1.73381
1.7339
1.73399
1.73409
1.7342
1.73432
1.73445
1.73459
1.73473
1.73489
1.73505
1.73522
1.7354
1.73559
1.73579
1.73599
1.73621
1.73643
1.73665
1.73688
1.73712
1.73736
1.73761
1.73786
1.73812
1.73837
1.73863
1.73889
1.73915
1.7394
1.73965
1.7399
1.74015
1.74039
1.74062
1.74085
1.74106
1.74127
1.74147
1.74165
1.74182
1.74198
1.74213
1.74226
1.74237
1.74247
1.74255
1.74262
1.74266
1.74269
1.74271
1.7427
1.74268
1.74264
1.74258
1.74251
1.74242
1.74231
1.74219
1.74206
1.74191
1.74175
1.74157
1.74139
1.7412
1.74099
1.74078
1.74056
1.74034
1.74011
1.73987
1.73964
1.7394
1.73916
1.73892
1.73868
1.73845
1.73821
1.73798
1.73776
1.73754
1.73733
1.73712
1.73692
1.73673
1.73655
1.73638
1.73622
1.73607
1.73592
1.73579
1.73567
1.73557
1.73547
1.73539
1.73532
1.73527
1.73523
1.7352
1.73518
1.73519
1.7352
1.73523
1.73528
1.73535
1.73543
1.73553
1.73564
1.73578
1.73593
1.73611
1.7363
1.73652
1.73676
1.73702
1.7373
1.73761
1.73794
1.7383
1.73869
1.73911
1.73955
1.74003
1.74054
1.74108
1.74166
1.74227
1.74291
1.74362
1.74437
1.74512
1.74596
1.7469
1.74781
1.74879
1.75
1.75116
1.75232
1.75399
1.75557
1.75689
1.75953
1.76232
1.76337
1.76931
1.76776
1.72227
1.73456
1.74016
1.7286
1.72891
1.73665
1.73501
1.732
1.73399
1.73539
1.73434
1.7341
1.73485
1.73495
1.73468
1.73478
1.73498
1.73495
1.73491
1.73498
1.73502
1.73501
1.73502
1.73505
1.73506
1.73506
1.73506
1.73507
1.73507
1.73507
1.73507
1.73507
1.73506
1.73506
1.73505
1.73504
1.73504
1.73503
1.73502
1.735
1.73499
1.73498
1.73496
1.73494
1.73493
1.73491
1.73489
1.73487
1.73485
1.73483
1.7348
1.73478
1.73476
1.73473
1.73471
1.73468
1.73466
1.73464
1.73461
1.73459
1.73457
1.73455
1.73453
1.73451
1.73449
1.73448
1.73447
1.73446
1.73445
1.73445
1.73445
1.73445
1.73446
1.73447
1.73449
1.73451
1.73453
1.73456
1.7346
1.73464
1.73468
1.73473
1.73478
1.73484
1.7349
1.73497
1.73504
1.73511
1.73519
1.73527
1.73535
1.73543
1.73551
1.7356
1.73569
1.73577
1.73586
1.73594
1.73602
1.73611
1.73618
1.73626
1.73633
1.7364
1.73647
1.73654
1.73659
1.73665
1.7367
1.73675
1.73679
1.73683
1.73687
1.7369
1.73693
1.73695
1.73697
1.73699
1.737
1.73702
1.73702
1.73703
1.73703
1.73703
1.73703
1.73703
1.73702
1.73701
1.737
1.73699
1.73698
1.73697
1.73695
1.73694
1.73692
1.7369
1.73689
1.73687
1.73685
1.73683
1.73681
1.73679
1.73677
1.73675
1.73673
1.73671
1.73669
1.73667
1.73664
1.73662
1.7366
1.73658
1.73656
1.73654
1.73652
1.7365
1.73647
1.73645
1.73643
1.73641
1.73639
1.73637
1.73635
1.73633
1.7363
1.73628
1.73626
1.73624
1.73622
1.7362
1.73617
1.73615
1.73613
1.73611
1.73608
1.73606
1.73604
1.73601
1.73599
1.73596
1.73594
1.73591
1.73588
1.73586
1.73583
1.7358
1.73577
1.73574
1.73571
1.73568
1.73565
1.73561
1.73558
1.73554
1.73551
1.73547
1.73543
1.73539
1.73535
1.73531
1.73527
1.73523
1.73518
1.73514
1.73509
1.73504
1.73499
1.73494
1.73489
1.73484
1.73479
1.73473
1.73468
1.73462
1.73457
1.73451
1.73445
1.7344
1.73434
1.73428
1.73423
1.73417
1.73411
1.73406
1.734
1.73394
1.73389
1.73384
1.73379
1.73374
1.73369
1.73365
1.7336
1.73356
1.73353
1.73349
1.73346
1.73343
1.73341
1.73339
1.73338
1.73337
1.73336
1.73336
1.73337
1.73338
1.7334
1.73343
1.73346
1.73349
1.73354
1.73359
1.73365
1.73372
1.7338
1.73388
1.73398
1.73408
1.73419
1.73431
1.73444
1.73457
1.73472
1.73488
1.73504
1.73521
1.73539
1.73558
1.73578
1.73599
1.7362
1.73642
1.73665
1.73688
1.73712
1.73737
1.73762
1.73787
1.73813
1.73838
1.73864
1.7389
1.73916
1.73942
1.73968
1.73993
1.74017
1.74042
1.74065
1.74088
1.74109
1.7413
1.7415
1.74169
1.74186
1.74202
1.74216
1.74229
1.74241
1.74251
1.74259
1.74265
1.7427
1.74273
1.74274
1.74273
1.74271
1.74266
1.74261
1.74253
1.74244
1.74233
1.7422
1.74207
1.74191
1.74175
1.74157
1.74139
1.74119
1.74098
1.74077
1.74055
1.74032
1.74009
1.73985
1.73961
1.73937
1.73913
1.73889
1.73865
1.73841
1.73818
1.73795
1.73772
1.7375
1.73729
1.73709
1.73689
1.7367
1.73651
1.73634
1.73618
1.73603
1.73589
1.73576
1.73564
1.73553
1.73544
1.73536
1.73529
1.73523
1.73519
1.73516
1.73515
1.73515
1.73517
1.7352
1.73525
1.73531
1.73539
1.73549
1.73561
1.73574
1.7359
1.73607
1.73626
1.73648
1.73672
1.73697
1.73726
1.73756
1.73789
1.73825
1.73864
1.73905
1.7395
1.73998
1.74047
1.741
1.7416
1.74221
1.74281
1.74354
1.74432
1.74497
1.74577
1.7469
1.74767
1.74826
1.74995
1.75144
1.75111
1.75287
1.75719
1.75599
1.75381
1.76372
1.76762
1.75556
1.76129
1.73477
1.73241
1.73076
1.73302
1.73553
1.73314
1.73231
1.73465
1.73492
1.7338
1.73416
1.7349
1.7347
1.73449
1.73476
1.73491
1.73482
1.73483
1.73493
1.73495
1.73494
1.73497
1.735
1.735
1.73501
1.73502
1.73503
1.73503
1.73503
1.73504
1.73504
1.73504
1.73503
1.73503
1.73502
1.73502
1.73501
1.735
1.73499
1.73498
1.73497
1.73495
1.73494
1.73492
1.73491
1.73489
1.73487
1.73485
1.73483
1.73481
1.73479
1.73476
1.73474
1.73472
1.73469
1.73467
1.73464
1.73462
1.7346
1.73457
1.73455
1.73453
1.73451
1.73449
1.73448
1.73446
1.73445
1.73444
1.73444
1.73443
1.73443
1.73444
1.73445
1.73446
1.73447
1.73449
1.73452
1.73455
1.73458
1.73462
1.73467
1.73472
1.73477
1.73483
1.73489
1.73496
1.73503
1.7351
1.73518
1.73526
1.73534
1.73543
1.73551
1.7356
1.73569
1.73577
1.73586
1.73595
1.73603
1.73611
1.73619
1.73627
1.73634
1.73641
1.73648
1.73654
1.7366
1.73666
1.73671
1.73676
1.7368
1.73684
1.73687
1.73691
1.73693
1.73696
1.73698
1.73699
1.73701
1.73702
1.73702
1.73703
1.73703
1.73703
1.73703
1.73702
1.73702
1.73701
1.737
1.73699
1.73698
1.73696
1.73695
1.73693
1.73692
1.7369
1.73688
1.73686
1.73684
1.73682
1.7368
1.73678
1.73676
1.73674
1.73672
1.7367
1.73668
1.73666
1.73664
1.73662
1.7366
1.73657
1.73655
1.73653
1.73651
1.73649
1.73647
1.73645
1.73643
1.7364
1.73638
1.73636
1.73634
1.73632
1.7363
1.73628
1.73626
1.73623
1.73621
1.73619
1.73617
1.73615
1.73612
1.7361
1.73608
1.73606
1.73603
1.73601
1.73598
1.73596
1.73593
1.73591
1.73588
1.73585
1.73583
1.7358
1.73577
1.73574
1.73571
1.73568
1.73564
1.73561
1.73558
1.73554
1.73551
1.73547
1.73543
1.73539
1.73535
1.73531
1.73527
1.73522
1.73518
1.73513
1.73509
1.73504
1.73499
1.73494
1.73489
1.73484
1.73478
1.73473
1.73467
1.73462
1.73456
1.73451
1.73445
1.73439
1.73433
1.73428
1.73422
1.73416
1.7341
1.73405
1.73399
1.73394
1.73388
1.73383
1.73378
1.73373
1.73368
1.73364
1.73359
1.73355
1.73351
1.73348
1.73345
1.73342
1.7334
1.73338
1.73336
1.73335
1.73335
1.73335
1.73335
1.73336
1.73338
1.73341
1.73344
1.73348
1.73352
1.73357
1.73363
1.7337
1.73378
1.73386
1.73396
1.73406
1.73417
1.73429
1.73442
1.73455
1.7347
1.73486
1.73502
1.7352
1.73538
1.73557
1.73577
1.73597
1.73619
1.73641
1.73664
1.73688
1.73712
1.73736
1.73762
1.73787
1.73813
1.73839
1.73865
1.73891
1.73918
1.73944
1.73969
1.73995
1.7402
1.74044
1.74068
1.74091
1.74113
1.74134
1.74154
1.74173
1.7419
1.74206
1.74221
1.74234
1.74245
1.74255
1.74263
1.74269
1.74274
1.74277
1.74278
1.74277
1.74274
1.7427
1.74264
1.74256
1.74246
1.74235
1.74222
1.74208
1.74193
1.74176
1.74158
1.74139
1.74119
1.74098
1.74076
1.74053
1.7403
1.74007
1.73983
1.73959
1.73934
1.7391
1.73886
1.73862
1.73838
1.73814
1.73791
1.73768
1.73746
1.73725
1.73704
1.73684
1.73665
1.73647
1.7363
1.73613
1.73598
1.73584
1.73571
1.73559
1.73549
1.73539
1.73531
1.73524
1.73519
1.73514
1.73512
1.7351
1.73511
1.73512
1.73515
1.7352
1.73526
1.73535
1.73544
1.73556
1.73569
1.73584
1.73602
1.73621
1.73642
1.73665
1.73691
1.73719
1.7375
1.73782
1.73818
1.73856
1.73897
1.73941
1.73988
1.74038
1.74091
1.74147
1.74208
1.74273
1.74337
1.74409
1.74491
1.74565
1.74643
1.7475
1.74845
1.74912
1.75044
1.75206
1.75247
1.75336
1.75644
1.75754
1.75699
1.76001
1.76098
1.76158
1.7378
1.73231
1.73019
1.73571
1.73512
1.7316
1.7337
1.73549
1.73394
1.73365
1.7348
1.73483
1.73435
1.73458
1.73489
1.73478
1.73473
1.73486
1.73492
1.73489
1.73491
1.73496
1.73496
1.73496
1.73498
1.735
1.735
1.735
1.73501
1.73501
1.73501
1.73501
1.73501
1.73501
1.735
1.735
1.73499
1.73498
1.73497
1.73496
1.73495
1.73494
1.73492
1.73491
1.73489
1.73487
1.73485
1.73483
1.73481
1.73479
1.73477
1.73475
1.73473
1.7347
1.73468
1.73465
1.73463
1.73461
1.73458
1.73456
1.73454
1.73452
1.7345
1.73448
1.73446
1.73445
1.73444
1.73443
1.73442
1.73442
1.73442
1.73442
1.73443
1.73444
1.73446
1.73448
1.7345
1.73453
1.73457
1.73461
1.73465
1.7347
1.73476
1.73482
1.73488
1.73495
1.73502
1.7351
1.73517
1.73526
1.73534
1.73542
1.73551
1.7356
1.73569
1.73578
1.73586
1.73595
1.73603
1.73612
1.7362
1.73627
1.73635
1.73642
1.73649
1.73655
1.73661
1.73667
1.73672
1.73676
1.73681
1.73685
1.73688
1.73691
1.73694
1.73696
1.73698
1.737
1.73701
1.73702
1.73703
1.73703
1.73703
1.73703
1.73703
1.73702
1.73702
1.73701
1.737
1.73699
1.73697
1.73696
1.73694
1.73693
1.73691
1.73689
1.73688
1.73686
1.73684
1.73682
1.7368
1.73678
1.73676
1.73674
1.73672
1.73669
1.73667
1.73665
1.73663
1.73661
1.73659
1.73657
1.73655
1.73653
1.7365
1.73648
1.73646
1.73644
1.73642
1.7364
1.73638
1.73636
1.73634
1.73631
1.73629
1.73627
1.73625
1.73623
1.73621
1.73619
1.73616
1.73614
1.73612
1.7361
1.73607
1.73605
1.73603
1.736
1.73598
1.73596
1.73593
1.7359
1.73588
1.73585
1.73582
1.73579
1.73577
1.73574
1.73571
1.73567
1.73564
1.73561
1.73557
1.73554
1.7355
1.73547
1.73543
1.73539
1.73535
1.73531
1.73527
1.73522
1.73518
1.73513
1.73508
1.73504
1.73499
1.73494
1.73489
1.73483
1.73478
1.73473
1.73467
1.73461
1.73456
1.7345
1.73444
1.73439
1.73433
1.73427
1.73421
1.73415
1.7341
1.73404
1.73398
1.73393
1.73387
1.73382
1.73377
1.73372
1.73367
1.73362
1.73358
1.73354
1.7335
1.73346
1.73343
1.7334
1.73338
1.73336
1.73334
1.73333
1.73333
1.73333
1.73333
1.73334
1.73336
1.73338
1.73341
1.73345
1.7335
1.73355
1.73361
1.73368
1.73375
1.73384
1.73393
1.73403
1.73414
1.73426
1.73439
1.73453
1.73468
1.73483
1.735
1.73517
1.73535
1.73555
1.73575
1.73595
1.73617
1.73639
1.73663
1.73686
1.73711
1.73736
1.73761
1.73787
1.73813
1.73839
1.73866
1.73892
1.73919
1.73945
1.73971
1.73997
1.74022
1.74047
1.74071
1.74094
1.74116
1.74138
1.74158
1.74177
1.74195
1.74211
1.74226
1.74239
1.7425
1.7426
1.74268
1.74274
1.74279
1.74282
1.74282
1.74281
1.74278
1.74274
1.74267
1.74259
1.74249
1.74238
1.74225
1.7421
1.74194
1.74177
1.74158
1.74139
1.74118
1.74097
1.74075
1.74052
1.74029
1.74005
1.73981
1.73956
1.73932
1.73907
1.73882
1.73858
1.73834
1.7381
1.73787
1.73764
1.73742
1.7372
1.737
1.7368
1.7366
1.73642
1.73625
1.73608
1.73593
1.73579
1.73566
1.73554
1.73543
1.73534
1.73526
1.73519
1.73513
1.73509
1.73506
1.73505
1.73505
1.73507
1.7351
1.73514
1.73521
1.73529
1.73538
1.7355
1.73563
1.73578
1.73595
1.73614
1.73635
1.73658
1.73683
1.73711
1.73741
1.73773
1.73808
1.73846
1.73886
1.7393
1.73975
1.74025
1.74078
1.74132
1.74191
1.74258
1.74321
1.74385
1.74469
1.7455
1.74608
1.74704
1.74835
1.74883
1.74936
1.75161
1.75281
1.75166
1.75408
1.75836
1.75546
1.75469
1.76194
1.75961
1.73201
1.73423
1.73567
1.73322
1.73215
1.73482
1.73523
1.7333
1.73378
1.7351
1.73463
1.73412
1.73464
1.73492
1.73466
1.73465
1.73487
1.73488
1.73482
1.73487
1.73493
1.73493
1.73493
1.73495
1.73497
1.73497
1.73498
1.73499
1.73499
1.73499
1.73499
1.73499
1.73499
1.73499
1.73498
1.73498
1.73497
1.73496
1.73495
1.73494
1.73493
1.73492
1.73491
1.73489
1.73488
1.73486
1.73484
1.73482
1.7348
1.73478
1.73476
1.73474
1.73471
1.73469
1.73467
1.73464
1.73462
1.73459
1.73457
1.73455
1.73453
1.7345
1.73448
1.73447
1.73445
1.73444
1.73442
1.73441
1.73441
1.7344
1.7344
1.73441
1.73442
1.73443
1.73444
1.73447
1.73449
1.73452
1.73456
1.7346
1.73464
1.73469
1.73475
1.73481
1.73487
1.73494
1.73501
1.73509
1.73517
1.73525
1.73534
1.73542
1.73551
1.7356
1.73569
1.73578
1.73587
1.73595
1.73604
1.73612
1.7362
1.73628
1.73636
1.73643
1.7365
1.73656
1.73662
1.73667
1.73673
1.73677
1.73682
1.73685
1.73689
1.73692
1.73694
1.73697
1.73698
1.737
1.73701
1.73702
1.73703
1.73703
1.73703
1.73703
1.73703
1.73702
1.73701
1.737
1.73699
1.73698
1.73697
1.73695
1.73694
1.73692
1.73691
1.73689
1.73687
1.73685
1.73683
1.73681
1.73679
1.73677
1.73675
1.73673
1.73671
1.73669
1.73667
1.73665
1.73663
1.7366
1.73658
1.73656
1.73654
1.73652
1.7365
1.73648
1.73646
1.73644
1.73641
1.73639
1.73637
1.73635
1.73633
1.73631
1.73629
1.73627
1.73625
1.73622
1.7362
1.73618
1.73616
1.73614
1.73612
1.73609
1.73607
1.73605
1.73602
1.736
1.73598
1.73595
1.73593
1.7359
1.73588
1.73585
1.73582
1.73579
1.73576
1.73573
1.7357
1.73567
1.73564
1.73561
1.73557
1.73554
1.7355
1.73547
1.73543
1.73539
1.73535
1.73531
1.73526
1.73522
1.73518
1.73513
1.73508
1.73503
1.73498
1.73493
1.73488
1.73483
1.73478
1.73472
1.73467
1.73461
1.73455
1.7345
1.73444
1.73438
1.73432
1.73426
1.73421
1.73415
1.73409
1.73403
1.73397
1.73392
1.73386
1.73381
1.73376
1.73371
1.73366
1.73361
1.73356
1.73352
1.73348
1.73345
1.73341
1.73339
1.73336
1.73334
1.73332
1.73331
1.7333
1.7333
1.73331
1.73332
1.73333
1.73336
1.73339
1.73342
1.73347
1.73352
1.73358
1.73365
1.73372
1.73381
1.7339
1.734
1.73411
1.73423
1.73436
1.7345
1.73464
1.7348
1.73497
1.73514
1.73532
1.73552
1.73572
1.73593
1.73615
1.73637
1.7366
1.73684
1.73709
1.73734
1.7376
1.73786
1.73812
1.73839
1.73865
1.73892
1.73919
1.73946
1.73972
1.73999
1.74024
1.74049
1.74074
1.74097
1.7412
1.74142
1.74162
1.74181
1.74199
1.74216
1.74231
1.74244
1.74255
1.74265
1.74274
1.7428
1.74284
1.74287
1.74287
1.74286
1.74283
1.74278
1.74271
1.74263
1.74252
1.7424
1.74227
1.74212
1.74196
1.74178
1.74159
1.74139
1.74118
1.74097
1.74074
1.74051
1.74027
1.74003
1.73978
1.73953
1.73928
1.73904
1.73879
1.73854
1.7383
1.73806
1.73782
1.73759
1.73737
1.73715
1.73694
1.73674
1.73655
1.73637
1.73619
1.73603
1.73588
1.73573
1.7356
1.73548
1.73538
1.73528
1.7352
1.73513
1.73508
1.73503
1.73501
1.73499
1.73499
1.73501
1.73504
1.73508
1.73514
1.73522
1.73531
1.73542
1.73555
1.7357
1.73587
1.73605
1.73626
1.73649
1.73674
1.73701
1.7373
1.73762
1.73797
1.73834
1.73873
1.73916
1.73961
1.74009
1.74061
1.74116
1.74172
1.74232
1.74301
1.74368
1.7443
1.74514
1.74603
1.74661
1.74742
1.74879
1.7495
1.7497
1.75145
1.75325
1.75264
1.75342
1.7563
1.75608
1.75556
1.75595
1.73271
1.73456
1.73507
1.73297
1.73379
1.73521
1.73393
1.73363
1.73487
1.73475
1.73414
1.73454
1.7349
1.73466
1.7346
1.73483
1.73487
1.73479
1.73484
1.73491
1.7349
1.7349
1.73493
1.73495
1.73495
1.73496
1.73497
1.73497
1.73498
1.73498
1.73498
1.73498
1.73498
1.73498
1.73497
1.73497
1.73496
1.73495
1.73494
1.73493
1.73492
1.73491
1.73489
1.73488
1.73486
1.73485
1.73483
1.73481
1.73479
1.73477
1.73475
1.73472
1.7347
1.73468
1.73466
1.73463
1.73461
1.73458
1.73456
1.73454
1.73452
1.73449
1.73447
1.73446
1.73444
1.73442
1.73441
1.7344
1.7344
1.73439
1.73439
1.7344
1.7344
1.73442
1.73443
1.73445
1.73448
1.73451
1.73455
1.73459
1.73463
1.73468
1.73474
1.7348
1.73486
1.73493
1.73501
1.73508
1.73516
1.73525
1.73533
1.73542
1.73551
1.7356
1.73569
1.73578
1.73587
1.73596
1.73604
1.73613
1.73621
1.73629
1.73636
1.73643
1.7365
1.73657
1.73663
1.73668
1.73673
1.73678
1.73682
1.73686
1.73689
1.73692
1.73695
1.73697
1.73699
1.737
1.73701
1.73702
1.73703
1.73703
1.73703
1.73703
1.73702
1.73702
1.73701
1.737
1.73699
1.73698
1.73696
1.73695
1.73693
1.73692
1.7369
1.73688
1.73686
1.73684
1.73683
1.73681
1.73679
1.73677
1.73674
1.73672
1.7367
1.73668
1.73666
1.73664
1.73662
1.7366
1.73658
1.73656
1.73653
1.73651
1.73649
1.73647
1.73645
1.73643
1.73641
1.73639
1.73637
1.73635
1.73633
1.7363
1.73628
1.73626
1.73624
1.73622
1.7362
1.73618
1.73616
1.73613
1.73611
1.73609
1.73607
1.73604
1.73602
1.736
1.73597
1.73595
1.73592
1.7359
1.73587
1.73585
1.73582
1.73579
1.73576
1.73573
1.7357
1.73567
1.73564
1.73561
1.73557
1.73554
1.7355
1.73546
1.73543
1.73539
1.73535
1.7353
1.73526
1.73522
1.73517
1.73513
1.73508
1.73503
1.73498
1.73493
1.73488
1.73483
1.73477
1.73472
1.73466
1.73461
1.73455
1.73449
1.73444
1.73438
1.73432
1.73426
1.7342
1.73414
1.73408
1.73402
1.73397
1.73391
1.73385
1.7338
1.73375
1.73369
1.73364
1.7336
1.73355
1.73351
1.73347
1.73343
1.7334
1.73337
1.73334
1.73332
1.7333
1.73329
1.73328
1.73328
1.73328
1.73329
1.73331
1.73333
1.73336
1.73339
1.73344
1.73349
1.73355
1.73361
1.73369
1.73377
1.73386
1.73397
1.73408
1.73419
1.73432
1.73446
1.73461
1.73476
1.73493
1.73511
1.73529
1.73548
1.73569
1.7359
1.73611
1.73634
1.73658
1.73682
1.73706
1.73732
1.73758
1.73784
1.73811
1.73838
1.73865
1.73892
1.73919
1.73946
1.73973
1.74
1.74026
1.74051
1.74076
1.741
1.74123
1.74145
1.74166
1.74185
1.74204
1.7422
1.74235
1.74249
1.74261
1.74271
1.74279
1.74285
1.74289
1.74292
1.74292
1.74291
1.74288
1.74282
1.74275
1.74266
1.74256
1.74243
1.74229
1.74214
1.74197
1.74179
1.7416
1.74139
1.74118
1.74096
1.74073
1.74049
1.74025
1.74
1.73975
1.7395
1.73925
1.739
1.73875
1.7385
1.73825
1.73801
1.73777
1.73754
1.73732
1.7371
1.73689
1.73669
1.73649
1.73631
1.73613
1.73597
1.73582
1.73567
1.73554
1.73542
1.73532
1.73522
1.73514
1.73507
1.73501
1.73497
1.73494
1.73493
1.73492
1.73494
1.73497
1.73501
1.73507
1.73515
1.73524
1.73535
1.73547
1.73562
1.73578
1.73596
1.73616
1.73639
1.73663
1.7369
1.73718
1.7375
1.73783
1.7382
1.73858
1.739
1.73945
1.73991
1.7404
1.74095
1.74152
1.74207
1.74271
1.74344
1.74404
1.74468
1.74563
1.74642
1.74685
1.74788
1.74927
1.74944
1.74984
1.75213
1.75273
1.75159
1.75419
1.75578
1.75286
1.75413
1.7357
1.73393
1.73303
1.73482
1.73526
1.73353
1.73376
1.73521
1.73469
1.73394
1.73463
1.73502
1.73457
1.73454
1.73488
1.73487
1.73473
1.73482
1.73492
1.73489
1.73487
1.73492
1.73494
1.73493
1.73494
1.73496
1.73496
1.73496
1.73497
1.73497
1.73497
1.73497
1.73497
1.73497
1.73496
1.73496
1.73495
1.73494
1.73493
1.73492
1.73491
1.7349
1.73489
1.73487
1.73486
1.73484
1.73482
1.7348
1.73478
1.73476
1.73474
1.73472
1.73469
1.73467
1.73465
1.73462
1.7346
1.73458
1.73455
1.73453
1.73451
1.73449
1.73447
1.73445
1.73443
1.73442
1.73441
1.7344
1.73439
1.73439
1.73439
1.73439
1.7344
1.73441
1.73443
1.73445
1.73447
1.7345
1.73454
1.73458
1.73463
1.73468
1.73473
1.73479
1.73486
1.73493
1.735
1.73508
1.73516
1.73524
1.73533
1.73542
1.73551
1.7356
1.73569
1.73578
1.73587
1.73596
1.73605
1.73613
1.73621
1.73629
1.73637
1.73644
1.73651
1.73657
1.73663
1.73669
1.73674
1.73678
1.73682
1.73686
1.73689
1.73692
1.73695
1.73697
1.73699
1.737
1.73701
1.73702
1.73703
1.73703
1.73703
1.73703
1.73702
1.73701
1.73701
1.737
1.73699
1.73697
1.73696
1.73694
1.73693
1.73691
1.73689
1.73688
1.73686
1.73684
1.73682
1.7368
1.73678
1.73676
1.73674
1.73672
1.7367
1.73668
1.73665
1.73663
1.73661
1.73659
1.73657
1.73655
1.73653
1.73651
1.73649
1.73647
1.73644
1.73642
1.7364
1.73638
1.73636
1.73634
1.73632
1.7363
1.73628
1.73626
1.73624
1.73622
1.73619
1.73617
1.73615
1.73613
1.73611
1.73609
1.73606
1.73604
1.73602
1.73599
1.73597
1.73595
1.73592
1.7359
1.73587