# vtk DataFile Version 2.0
LBE two cylinders
ASCII
DATASET STRUCTURED_POINTS
DIMENSIONS 400 100 1
ASPECT_RATIO 1 1 1
ORIGIN 0 0 0
POINT_DATA 40000
SCALARS rho double 1
LOOKUP_TABLE default
1.65688
1.71184
1.72569
1.70492
1.70593
1.7148
1.7134
1.71011
1.71156
1.71289
1.71204
1.71165
1.71219
1.71234
1.71213
1.71219
1.7124
1.71245
1.71249
1.71261
1.71275
1.71283
1.71294
1.71305
1.71315
1.71323
1.71331
1.71337
1.71342
1.71344
1.71346
1.71345
1.71342
1.71337
1.7133
1.71321
1.7131
1.71297
1.71283
1.71267
1.7125
1.71231
1.71212
1.71191
1.7117
1.71148
1.71125
1.71101
1.71077
1.71052
1.71026
1.71
1.70972
1.70944
1.70915
1.70884
1.70851
1.70817
1.70782
1.70744
1.70704
1.70661
1.70617
1.7057
1.70521
1.7047
1.70417
1.70363
1.70307
1.7025
1.70192
1.70135
1.70078
1.70021
1.69967
1.69914
1.69863
1.69816
1.69771
1.69731
1.69695
1.69663
1.69635
1.69613
1.69596
1.69583
1.69576
1.69574
1.69577
1.69584
1.69596
1.69613
1.69634
1.69658
1.69686
1.69717
1.69751
1.69787
1.69825
1.69863
1.69904
1.69944
1.69985
1.70025
1.70066
1.70105
1.70144
1.70182
1.70219
1.70256
1.70292
1.70328
1.70363
1.70399
1.70435
1.70472
1.70511
1.70551
1.70592
1.70636
1.70682
1.70731
1.70782
1.70835
1.70891
1.70949
1.71009
1.7107
1.71133
1.71196
1.71261
1.71326
1.7139
1.71455
1.71518
1.71581
1.71643
1.71703
1.71762
1.7182
1.71876
1.71931
1.71985
1.72037
1.72089
1.72139
1.72189
1.72238
1.72286
1.72334
1.72381
1.72428
1.72474
1.7252
1.72564
1.72608
1.7265
1.72691
1.7273
1.72767
1.72801
1.72833
1.72862
1.72888
1.7291
1.7293
1.72945
1.72957
1.72966
1.72972
1.72974
1.72973
1.7297
1.72965
1.72959
1.72951
1.72942
1.72933
1.72923
1.72914
1.72906
1.72898
1.72892
1.72886
1.72882
1.72878
1.72876
1.72875
1.72874
1.72874
1.72875
1.72876
1.72878
1.7288
1.72882
1.72885
1.72889
1.72893
1.72898
1.72903
1.7291
1.72918
1.72927
1.72937
1.72947
1.72959
1.72971
1.72984
1.72997
1.7301
1.73023
1.73036
1.73048
1.73059
1.7307
1.7308
1.7309
1.73099
1.73107
1.73116
1.73124
1.73132
1.73141
1.7315
1.7316
1.73171
1.73182
1.73194
1.73207
1.73219
1.73231
1.73243
1.73254
1.73263
1.7327
1.73275
1.73278
1.73277
1.73272
1.73264
1.73251
1.73235
1.73213
1.73188
1.73158
1.73123
1.73085
1.73043
1.72997
1.72948
1.72895
1.7284
1.72783
1.72723
1.72662
1.72599
1.72534
1.72468
1.72402
1.72334
1.72266
1.72198
1.7213
1.72061
1.71993
1.71925
1.71857
1.7179
1.71724
1.71659
1.71596
1.71534
1.71474
1.71415
1.71359
1.71306
1.71255
1.71207
1.71162
1.71121
1.71082
1.71047
1.71016
1.70988
1.70963
1.70941
1.70922
1.70907
1.70894
1.70884
1.70876
1.7087
1.70865
1.70863
1.70862
1.70862
1.70863
1.70865
1.70868
1.70871
1.70876
1.70881
1.70887
1.70894
1.70902
1.70911
1.70921
1.70933
1.70946
1.70961
1.70978
1.70996
1.71016
1.71039
1.71063
1.71089
1.71118
1.71149
1.71182
1.71218
1.71256
1.71297
1.71339
1.71384
1.71432
1.71481
1.71532
1.71584
1.71638
1.71693
1.71749
1.71806
1.71862
1.71918
1.71973
1.72028
1.72081
1.72133
1.72184
1.72233
1.72279
1.72325
1.72368
1.72409
1.72448
1.72485
1.7252
1.72553
1.72583
1.72611
1.72637
1.7266
1.7268
1.72698
1.72712
1.72724
1.72734
1.72741
1.72745
1.72748
1.72749
1.72749
1.72747
1.72745
1.72742
1.72738
1.72734
1.7273
1.72724
1.72719
1.72712
1.72706
1.72699
1.72692
1.72685
1.72679
1.72675
1.72672
1.72671
1.72677
1.72686
1.72695
1.7272
1.72757
1.72782
1.72823
1.72913
1.72976
1.73004
1.7317
1.73354
1.73303
1.73467
1.74055
1.73919
1.73605
1.75147
1.75848
1.7303
1.76561
1.67625
1.69922
1.71393
1.70782
1.7083
1.71161
1.7118
1.71081
1.71133
1.71189
1.71174
1.71164
1.71185
1.71196
1.71197
1.71203
1.71216
1.71225
1.71234
1.71244
1.71257
1.71267
1.71278
1.71289
1.71299
1.71308
1.71316
1.71322
1.71328
1.71331
1.71332
1.71331
1.71329
1.71324
1.71318
1.71309
1.71299
1.71287
1.71273
1.71258
1.71241
1.71223
1.71204
1.71183
1.71162
1.7114
1.71117
1.71093
1.71069
1.71044
1.71019
1.70992
1.70965
1.70936
1.70907
1.70876
1.70844
1.7081
1.70774
1.70736
1.70697
1.70654
1.7061
1.70564
1.70516
1.70465
1.70413
1.70359
1.70303
1.70247
1.7019
1.70134
1.70077
1.70022
1.69968
1.69915
1.69866
1.69819
1.69775
1.69735
1.69699
1.69668
1.69641
1.69619
1.69602
1.69589
1.69582
1.6958
1.69583
1.6959
1.69603
1.69619
1.69639
1.69663
1.69691
1.69722
1.69755
1.6979
1.69827
1.69865
1.69905
1.69944
1.69984
1.70024
1.70064
1.70103
1.70141
1.70179
1.70216
1.70252
1.70287
1.70322
1.70358
1.70393
1.70429
1.70466
1.70504
1.70544
1.70585
1.70629
1.70674
1.70722
1.70773
1.70826
1.70881
1.70938
1.70997
1.71058
1.7112
1.71183
1.71246
1.7131
1.71374
1.71438
1.71501
1.71563
1.71625
1.71685
1.71743
1.71801
1.71857
1.71912
1.71966
1.72018
1.7207
1.7212
1.7217
1.72219
1.72267
1.72315
1.72363
1.72409
1.72456
1.72501
1.72545
1.72588
1.7263
1.72671
1.72709
1.72746
1.7278
1.72811
1.7284
1.72865
1.72888
1.72906
1.72922
1.72934
1.72942
1.72947
1.7295
1.72949
1.72946
1.72942
1.72935
1.72927
1.72919
1.7291
1.72901
1.72892
1.72884
1.72877
1.7287
1.72865
1.72861
1.72857
1.72855
1.72854
1.72853
1.72853
1.72854
1.72855
1.72856
1.72858
1.72861
1.72864
1.72867
1.72872
1.72877
1.72882
1.72889
1.72897
1.72906
1.72916
1.72927
1.72938
1.7295
1.72963
1.72976
1.72989
1.73001
1.73014
1.73026
1.73037
1.73048
1.73058
1.73067
1.73076
1.73085
1.73093
1.73101
1.7311
1.73119
1.73128
1.73138
1.73149
1.7316
1.73172
1.73184
1.73196
1.73208
1.7322
1.7323
1.73239
1.73246
1.73251
1.73253
1.73252
1.73248
1.73239
1.73227
1.7321
1.73189
1.73163
1.73133
1.73099
1.73061
1.73019
1.72973
1.72924
1.72872
1.72818
1.72761
1.72701
1.7264
1.72577
1.72513
1.72448
1.72382
1.72315
1.72247
1.72179
1.72111
1.72043
1.71976
1.71908
1.71841
1.71775
1.7171
1.71646
1.71583
1.71522
1.71463
1.71406
1.71351
1.71298
1.71248
1.71201
1.71157
1.71116
1.71078
1.71044
1.71013
1.70985
1.70961
1.70939
1.70921
1.70906
1.70893
1.70883
1.70875
1.7087
1.70866
1.70863
1.70862
1.70863
1.70864
1.70866
1.70869
1.70873
1.70878
1.70883
1.70889
1.70896
1.70905
1.70914
1.70924
1.70936
1.70949
1.70964
1.70981
1.70999
1.71019
1.71042
1.71066
1.71092
1.71121
1.71152
1.71185
1.7122
1.71258
1.71298
1.7134
1.71385
1.71432
1.7148
1.71531
1.71583
1.71636
1.71691
1.71746
1.71802
1.71858
1.71913
1.71968
1.72022
1.72075
1.72127
1.72177
1.72226
1.72273
1.72318
1.72361
1.72402
1.72441
1.72478
1.72513
1.72546
1.72576
1.72604
1.72629
1.72652
1.72672
1.7269
1.72704
1.72716
1.72726
1.72732
1.72737
1.7274
1.72741
1.72741
1.72739
1.72737
1.72734
1.7273
1.72726
1.72721
1.72715
1.72709
1.72703
1.72696
1.72689
1.72682
1.72675
1.7267
1.72665
1.72663
1.72664
1.72669
1.72677
1.72693
1.72716
1.72743
1.72782
1.72836
1.72894
1.72957
1.73054
1.73171
1.73259
1.73386
1.73613
1.73801
1.73853
1.74219
1.74839
1.74943
1.74621
1.77044
1.72756
1.7001
1.69041
1.71316
1.71583
1.70668
1.70842
1.71287
1.71165
1.71013
1.71126
1.71194
1.71144
1.71136
1.71177
1.71187
1.71181
1.71194
1.71212
1.71221
1.7123
1.71243
1.71256
1.71265
1.71276
1.71286
1.71294
1.71301
1.71306
1.7131
1.71312
1.71312
1.7131
1.71306
1.713
1.71292
1.71283
1.71271
1.71258
1.71243
1.71226
1.71209
1.7119
1.7117
1.71149
1.71127
1.71105
1.71081
1.71057
1.71032
1.71007
1.7098
1.70953
1.70924
1.70895
1.70864
1.70832
1.70798
1.70763
1.70725
1.70686
1.70644
1.70601
1.70555
1.70507
1.70457
1.70405
1.70352
1.70298
1.70242
1.70187
1.70131
1.70075
1.70021
1.69967
1.69916
1.69867
1.69821
1.69778
1.69739
1.69704
1.69673
1.69647
1.69625
1.69608
1.69596
1.69589
1.69587
1.6959
1.69597
1.69609
1.69625
1.69645
1.69669
1.69696
1.69725
1.69758
1.69792
1.69828
1.69865
1.69904
1.69942
1.69981
1.7002
1.70059
1.70097
1.70134
1.70171
1.70207
1.70242
1.70277
1.70311
1.70346
1.7038
1.70416
1.70452
1.70489
1.70528
1.70569
1.70612
1.70657
1.70704
1.70754
1.70805
1.70859
1.70916
1.70974
1.71033
1.71094
1.71156
1.71218
1.71281
1.71344
1.71407
1.71469
1.71531
1.71591
1.71651
1.71709
1.71766
1.71822
1.71877
1.7193
1.71983
1.72034
1.72085
1.72134
1.72184
1.72232
1.7228
1.72327
1.72374
1.7242
1.72465
1.72509
1.72552
1.72594
1.72634
1.72672
1.72708
1.72741
1.72772
1.728
1.72825
1.72847
1.72865
1.7288
1.72891
1.72899
1.72904
1.72906
1.72906
1.72903
1.72898
1.72891
1.72884
1.72876
1.72867
1.72858
1.7285
1.72842
1.72835
1.72828
1.72823
1.72819
1.72816
1.72813
1.72812
1.72811
1.72811
1.72812
1.72813
1.72814
1.72816
1.72819
1.72822
1.72826
1.7283
1.72835
1.72841
1.72848
1.72856
1.72865
1.72874
1.72885
1.72897
1.72909
1.72921
1.72934
1.72946
1.72959
1.72971
1.72983
1.72994
1.73004
1.73014
1.73023
1.73032
1.73041
1.73049
1.73057
1.73066
1.73075
1.73084
1.73094
1.73105
1.73116
1.73128
1.7314
1.73152
1.73163
1.73175
1.73185
1.73194
1.73201
1.73206
1.73208
1.73207
1.73202
1.73194
1.73181
1.73165
1.73144
1.73119
1.73089
1.73055
1.73017
1.72976
1.7293
1.72882
1.7283
1.72776
1.72719
1.7266
1.726
1.72537
1.72474
1.72409
1.72344
1.72277
1.72211
1.72144
1.72077
1.7201
1.71943
1.71877
1.71811
1.71746
1.71682
1.71619
1.71558
1.71498
1.7144
1.71384
1.71331
1.71279
1.71231
1.71185
1.71142
1.71102
1.71065
1.71032
1.71002
1.70975
1.70952
1.70931
1.70914
1.70899
1.70887
1.70877
1.7087
1.70865
1.70862
1.7086
1.70859
1.7086
1.70862
1.70865
1.70868
1.70873
1.70878
1.70884
1.7089
1.70898
1.70906
1.70916
1.70927
1.70939
1.70952
1.70967
1.70984
1.71002
1.71023
1.71045
1.71069
1.71095
1.71123
1.71153
1.71186
1.71221
1.71258
1.71298
1.7134
1.71383
1.7143
1.71478
1.71527
1.71579
1.71631
1.71685
1.7174
1.71795
1.7185
1.71905
1.71959
1.72013
1.72065
1.72117
1.72166
1.72215
1.72261
1.72306
1.72349
1.7239
1.7243
1.72467
1.72502
1.72534
1.72565
1.72593
1.72618
1.72641
1.72661
1.72678
1.72692
1.72704
1.72713
1.7272
1.72725
1.72727
1.72728
1.72728
1.72726
1.72723
1.7272
1.72716
1.72711
1.72706
1.727
1.72693
1.72686
1.72679
1.72672
1.72664
1.72658
1.72651
1.72646
1.72644
1.72646
1.72648
1.72657
1.72677
1.72695
1.72718
1.72769
1.72822
1.72853
1.7294
1.73073
1.73108
1.73181
1.73492
1.736
1.73455
1.74032
1.74697
1.73849
1.74169
1.76969
1.75965
1.71025
1.70688
1.70718
1.70978
1.70804
1.70939
1.71106
1.7104
1.71013
1.71093
1.71116
1.71092
1.71105
1.71132
1.71137
1.71139
1.71154
1.71168
1.71177
1.71187
1.71201
1.71213
1.71224
1.71236
1.71247
1.71257
1.71265
1.71273
1.71279
1.71283
1.71286
1.71286
1.71285
1.71281
1.71276
1.71269
1.7126
1.71249
1.71237
1.71223
1.71207
1.7119
1.71172
1.71152
1.71132
1.7111
1.71088
1.71064
1.71041
1.71016
1.7099
1.70964
1.70937
1.70908
1.70879
1.70848
1.70817
1.70783
1.70748
1.7071
1.70671
1.7063
1.70587
1.70542
1.70495
1.70446
1.70395
1.70343
1.70289
1.70235
1.70181
1.70126
1.70072
1.70018
1.69966
1.69916
1.69868
1.69823
1.69781
1.69743
1.69709
1.69678
1.69653
1.69632
1.69615
1.69603
1.69597
1.69595
1.69597
1.69604
1.69616
1.69631
1.69651
1.69673
1.69699
1.69728
1.69759
1.69792
1.69827
1.69863
1.699
1.69938
1.69975
1.70013
1.7005
1.70086
1.70123
1.70158
1.70193
1.70227
1.70261
1.70294
1.70328
1.70361
1.70396
1.70431
1.70468
1.70506
1.70545
1.70587
1.70631
1.70677
1.70725
1.70776
1.70828
1.70883
1.70939
1.70997
1.71057
1.71117
1.71178
1.7124
1.71301
1.71363
1.71424
1.71484
1.71544
1.71603
1.7166
1.71717
1.71772
1.71827
1.7188
1.71932
1.71984
1.72034
1.72084
1.72133
1.72181
1.72229
1.72276
1.72323
1.72369
1.72414
1.72457
1.725
1.72541
1.72581
1.72618
1.72653
1.72686
1.72716
1.72743
1.72768
1.72788
1.72806
1.7282
1.72831
1.72838
1.72843
1.72844
1.72843
1.7284
1.72835
1.72829
1.72821
1.72813
1.72804
1.72795
1.72787
1.72779
1.72772
1.72766
1.72761
1.72756
1.72753
1.72751
1.72749
1.72748
1.72748
1.72749
1.7275
1.72752
1.72754
1.72756
1.7276
1.72763
1.72768
1.72773
1.72779
1.72786
1.72794
1.72803
1.72813
1.72823
1.72835
1.72846
1.72859
1.72871
1.72884
1.72896
1.72908
1.72919
1.7293
1.7294
1.7295
1.72959
1.72968
1.72976
1.72985
1.72993
1.73002
1.7301
1.7302
1.7303
1.7304
1.73051
1.73063
1.73075
1.73087
1.73099
1.7311
1.7312
1.73129
1.73136
1.73141
1.73143
1.73142
1.73137
1.73129
1.73117
1.73101
1.7308
1.73055
1.73026
1.72993
1.72955
1.72914
1.72869
1.72821
1.7277
1.72717
1.72661
1.72602
1.72543
1.72481
1.72418
1.72354
1.7229
1.72225
1.72159
1.72093
1.72027
1.71962
1.71896
1.71832
1.71767
1.71704
1.71642
1.71581
1.71521
1.71463
1.71407
1.71353
1.71301
1.71251
1.71204
1.7116
1.71119
1.7108
1.71045
1.71013
1.70984
1.70958
1.70936
1.70916
1.709
1.70886
1.70875
1.70866
1.7086
1.70855
1.70853
1.70852
1.70852
1.70854
1.70856
1.7086
1.70864
1.7087
1.70876
1.70882
1.7089
1.70898
1.70907
1.70918
1.70929
1.70941
1.70955
1.7097
1.70987
1.71006
1.71026
1.71048
1.71071
1.71097
1.71125
1.71155
1.71187
1.71221
1.71258
1.71297
1.71338
1.71381
1.71426
1.71473
1.71522
1.71572
1.71624
1.71677
1.7173
1.71784
1.71838
1.71892
1.71946
1.71999
1.72051
1.72102
1.72152
1.722
1.72246
1.72291
1.72334
1.72375
1.72414
1.72452
1.72487
1.72519
1.7255
1.72578
1.72603
1.72626
1.72645
1.72662
1.72677
1.72688
1.72697
1.72704
1.72708
1.7271
1.72711
1.7271
1.72708
1.72705
1.72701
1.72696
1.72691
1.72685
1.72678
1.72671
1.72663
1.72655
1.72647
1.72639
1.72631
1.72624
1.72619
1.72616
1.72616
1.7262
1.72629
1.72642
1.72664
1.72693
1.72728
1.72775
1.72839
1.72904
1.72984
1.73093
1.73203
1.73321
1.73494
1.73662
1.73808
1.74086
1.74377
1.74491
1.75086
1.74938
1.6987
1.71079
1.71628
1.70485
1.70514
1.71275
1.71111
1.70812
1.71007
1.71145
1.71041
1.71018
1.71094
1.71107
1.71084
1.71099
1.71126
1.71131
1.71136
1.71152
1.71167
1.71176
1.71188
1.71201
1.71212
1.71221
1.71231
1.71239
1.71245
1.7125
1.71253
1.71255
1.71254
1.71252
1.71247
1.71241
1.71233
1.71223
1.71211
1.71198
1.71183
1.71166
1.71149
1.7113
1.7111
1.71089
1.71067
1.71044
1.7102
1.70995
1.7097
1.70944
1.70917
1.70888
1.70859
1.70829
1.70797
1.70763
1.70728
1.70692
1.70653
1.70612
1.7057
1.70526
1.70479
1.70431
1.70382
1.70331
1.70278
1.70226
1.70172
1.70119
1.70066
1.70014
1.69964
1.69915
1.69869
1.69825
1.69784
1.69747
1.69714
1.69684
1.69659
1.69639
1.69623
1.69611
1.69605
1.69603
1.69605
1.69612
1.69623
1.69637
1.69656
1.69678
1.69703
1.6973
1.6976
1.69792
1.69825
1.69859
1.69894
1.6993
1.69966
1.70002
1.70037
1.70072
1.70107
1.70141
1.70174
1.70207
1.70239
1.70271
1.70304
1.70336
1.7037
1.70404
1.70439
1.70476
1.70515
1.70555
1.70597
1.70642
1.70689
1.70738
1.70789
1.70841
1.70896
1.70952
1.7101
1.71068
1.71128
1.71187
1.71247
1.71307
1.71367
1.71426
1.71485
1.71542
1.71599
1.71655
1.7171
1.71763
1.71816
1.71868
1.7192
1.7197
1.7202
1.72069
1.72117
1.72165
1.72212
1.72258
1.72304
1.72348
1.72392
1.72434
1.72474
1.72513
1.7255
1.72585
1.72616
1.72646
1.72672
1.72695
1.72715
1.72731
1.72744
1.72754
1.72761
1.72765
1.72766
1.72764
1.72761
1.72755
1.72749
1.72741
1.72733
1.72724
1.72715
1.72707
1.72699
1.72692
1.72685
1.7268
1.72676
1.72672
1.7267
1.72668
1.72667
1.72667
1.72668
1.72669
1.72671
1.72673
1.72675
1.72679
1.72683
1.72687
1.72693
1.72699
1.72706
1.72714
1.72723
1.72733
1.72743
1.72754
1.72766
1.72778
1.7279
1.72802
1.72814
1.72826
1.72837
1.72847
1.72858
1.72867
1.72876
1.72885
1.72893
1.72902
1.7291
1.72919
1.72927
1.72937
1.72947
1.72957
1.72968
1.7298
1.72992
1.73004
1.73015
1.73026
1.73036
1.73045
1.73052
1.73057
1.73059
1.73058
1.73054
1.73046
1.73035
1.73019
1.72999
1.72974
1.72946
1.72913
1.72876
1.72836
1.72792
1.72745
1.72695
1.72642
1.72587
1.72529
1.7247
1.7241
1.72348
1.72285
1.72222
1.72158
1.72094
1.7203
1.71965
1.71901
1.71838
1.71775
1.71712
1.71651
1.71591
1.71532
1.71474
1.71418
1.71364
1.71312
1.71262
1.71215
1.7117
1.71127
1.71088
1.71051
1.71018
1.70987
1.7096
1.70936
1.70914
1.70896
1.70881
1.70868
1.70858
1.7085
1.70845
1.70841
1.7084
1.7084
1.70841
1.70844
1.70848
1.70852
1.70858
1.70864
1.70871
1.70879
1.70888
1.70897
1.70907
1.70918
1.7093
1.70943
1.70957
1.70973
1.7099
1.71008
1.71028
1.7105
1.71073
1.71099
1.71126
1.71156
1.71187
1.71221
1.71256
1.71294
1.71334
1.71376
1.7142
1.71466
1.71514
1.71563
1.71614
1.71665
1.71718
1.71771
1.71824
1.71877
1.7193
1.71982
1.72033
1.72084
1.72133
1.72181
1.72227
1.72272
1.72315
1.72356
1.72395
1.72433
1.72468
1.725
1.72531
1.72559
1.72584
1.72606
1.72626
1.72643
1.72657
1.72668
1.72677
1.72683
1.72687
1.72689
1.72689
1.72688
1.72685
1.72681
1.72677
1.72671
1.72665
1.72658
1.7265
1.72642
1.72634
1.72625
1.72616
1.72607
1.72598
1.7259
1.72585
1.7258
1.72578
1.72583
1.7259
1.72599
1.72622
1.72654
1.72678
1.72721
1.72802
1.72854
1.72893
1.73048
1.73192
1.73161
1.73342
1.73783
1.73681
1.73481
1.74477
1.74874
1.73691
1.74266
1.71067
1.70832
1.70667
1.70887
1.71132
1.70895
1.7081
1.71039
1.71065
1.70953
1.70988
1.71062
1.71044
1.71027
1.71057
1.71077
1.71075
1.71084
1.71102
1.71114
1.71123
1.71136
1.7115
1.7116
1.71171
1.71182
1.71192
1.712
1.71207
1.71212
1.71216
1.71218
1.71219
1.71217
1.71214
1.71208
1.71201
1.71192
1.71181
1.71169
1.71155
1.71139
1.71122
1.71104
1.71084
1.71064
1.71042
1.71019
1.70996
1.70972
1.70946
1.7092
1.70893
1.70865
1.70836
1.70805
1.70773
1.7074
1.70705
1.70669
1.70631
1.70591
1.70549
1.70506
1.7046
1.70413
1.70365
1.70315
1.70265
1.70213
1.70162
1.7011
1.70059
1.70009
1.6996
1.69913
1.69868
1.69826
1.69787
1.69751
1.69719
1.6969
1.69666
1.69646
1.69631
1.6962
1.69613
1.69611
1.69613
1.69619
1.6963
1.69643
1.69661
1.69681
1.69705
1.69731
1.69759
1.69789
1.6982
1.69853
1.69886
1.6992
1.69954
1.69988
1.70021
1.70055
1.70087
1.7012
1.70151
1.70183
1.70214
1.70245
1.70276
1.70307
1.70339
1.70372
1.70406
1.70441
1.70478
1.70517
1.70558
1.70601
1.70646
1.70693
1.70742
1.70793
1.70846
1.709
1.70955
1.71012
1.71069
1.71127
1.71185
1.71243
1.71301
1.71358
1.71415
1.71472
1.71527
1.71582
1.71636
1.7169
1.71742
1.71794
1.71845
1.71895
1.71944
1.71993
1.72041
1.72089
1.72136
1.72182
1.72227
1.72271
1.72314
1.72355
1.72395
1.72433
1.72469
1.72503
1.72534
1.72562
1.72587
1.72609
1.72627
1.72643
1.72655
1.72663
1.72669
1.72672
1.72672
1.7267
1.72666
1.7266
1.72652
1.72644
1.72636
1.72627
1.72618
1.72609
1.72601
1.72594
1.72587
1.72582
1.72577
1.72574
1.72571
1.72569
1.72568
1.72568
1.72569
1.7257
1.72572
1.72574
1.72577
1.7258
1.72584
1.72589
1.72595
1.72601
1.72608
1.72616
1.72625
1.72635
1.72645
1.72656
1.72667
1.72679
1.72691
1.72703
1.72714
1.72726
1.72737
1.72747
1.72757
1.72767
1.72776
1.72784
1.72793
1.72801
1.7281
1.72818
1.72827
1.72837
1.72847
1.72857
1.72868
1.7288
1.72892
1.72904
1.72915
1.72926
1.72937
1.72945
1.72953
1.72958
1.7296
1.7296
1.72956
1.72948
1.72937
1.72922
1.72903
1.72879
1.72851
1.72819
1.72784
1.72744
1.72701
1.72655
1.72606
1.72554
1.725
1.72444
1.72386
1.72327
1.72266
1.72205
1.72143
1.7208
1.72018
1.71955
1.71893
1.71831
1.71769
1.71708
1.71648
1.71589
1.71531
1.71474
1.71419
1.71366
1.71314
1.71264
1.71217
1.71171
1.71129
1.71089
1.71051
1.71017
1.70985
1.70956
1.70931
1.70908
1.70888
1.70871
1.70857
1.70845
1.70837
1.7083
1.70826
1.70824
1.70823
1.70824
1.70827
1.70831
1.70836
1.70842
1.70849
1.70856
1.70865
1.70874
1.70884
1.70894
1.70905
1.70917
1.7093
1.70944
1.70958
1.70974
1.70992
1.7101
1.7103
1.71052
1.71075
1.711
1.71127
1.71155
1.71186
1.71219
1.71253
1.7129
1.71329
1.7137
1.71413
1.71458
1.71504
1.71552
1.71601
1.71651
1.71702
1.71754
1.71806
1.71858
1.7191
1.71961
1.72012
1.72062
1.72111
1.72158
1.72205
1.72249
1.72292
1.72333
1.72373
1.7241
1.72445
1.72478
1.72508
1.72536
1.72561
1.72584
1.72603
1.7262
1.72634
1.72645
1.72653
1.72659
1.72662
1.72664
1.72663
1.72661
1.72658
1.72654
1.72648
1.72642
1.72634
1.72626
1.72618
1.72609
1.72599
1.72589
1.72578
1.72568
1.72558
1.72549
1.72542
1.72537
1.72535
1.72535
1.72542
1.72554
1.72568
1.72593
1.72631
1.72668
1.72713
1.72792
1.72867
1.72921
1.73047
1.73207
1.73255
1.73357
1.73677
1.73801
1.73765
1.74079
1.74186
1.74254
1.71327
1.70782
1.7057
1.71113
1.71052
1.70702
1.70907
1.71082
1.70928
1.70898
1.71012
1.71015
1.7097
1.70996
1.7103
1.71025
1.71026
1.71047
1.7106
1.71066
1.71079
1.71094
1.71105
1.71115
1.71127
1.71139
1.71148
1.71157
1.71164
1.7117
1.71175
1.71178
1.71179
1.71178
1.71176
1.71172
1.71166
1.71158
1.71148
1.71136
1.71123
1.71108
1.71092
1.71074
1.71055
1.71035
1.71014
1.70992
1.70968
1.70944
1.70919
1.70893
1.70865
1.70837
1.70808
1.70778
1.70746
1.70713
1.70679
1.70643
1.70605
1.70566
1.70525
1.70482
1.70438
1.70392
1.70345
1.70297
1.70248
1.70199
1.70149
1.70099
1.7005
1.70002
1.69955
1.6991
1.69867
1.69826
1.69789
1.69754
1.69723
1.69696
1.69673
1.69654
1.69639
1.69628
1.69621
1.69619
1.69621
1.69626
1.69636
1.69649
1.69665
1.69684
1.69706
1.6973
1.69757
1.69785
1.69814
1.69845
1.69876
1.69907
1.69939
1.69971
1.70003
1.70034
1.70065
1.70095
1.70125
1.70155
1.70184
1.70214
1.70243
1.70273
1.70304
1.70335
1.70368
1.70402
1.70438
1.70475
1.70514
1.70555
1.70598
1.70643
1.7069
1.70739
1.70789
1.70841
1.70894
1.70948
1.71003
1.71059
1.71115
1.71171
1.71227
1.71283
1.71338
1.71393
1.71448
1.71502
1.71555
1.71607
1.71659
1.7171
1.71761
1.71811
1.7186
1.71908
1.71956
1.72004
1.7205
1.72096
1.7214
1.72184
1.72226
1.72267
1.72306
1.72344
1.72378
1.72411
1.72441
1.72467
1.72491
1.72512
1.72529
1.72543
1.72553
1.72561
1.72565
1.72567
1.72566
1.72563
1.72558
1.72551
1.72543
1.72535
1.72525
1.72516
1.72506
1.72498
1.72489
1.72482
1.72475
1.72469
1.72464
1.7246
1.72458
1.72456
1.72455
1.72454
1.72455
1.72456
1.72458
1.7246
1.72463
1.72467
1.72471
1.72476
1.72481
1.72488
1.72495
1.72503
1.72512
1.72522
1.72532
1.72542
1.72554
1.72565
1.72577
1.72588
1.726
1.72611
1.72622
1.72632
1.72642
1.72651
1.7266
1.72669
1.72678
1.72686
1.72695
1.72703
1.72713
1.72722
1.72732
1.72743
1.72754
1.72766
1.72778
1.7279
1.72802
1.72813
1.72823
1.72832
1.7284
1.72845
1.72848
1.72848
1.72845
1.72838
1.72827
1.72813
1.72794
1.72772
1.72745
1.72714
1.7268
1.72641
1.72599
1.72554
1.72506
1.72456
1.72403
1.72348
1.72292
1.72234
1.72175
1.72115
1.72055
1.71994
1.71934
1.71873
1.71812
1.71752
1.71693
1.71634
1.71577
1.7152
1.71465
1.7141
1.71358
1.71307
1.71258
1.71211
1.71166
1.71123
1.71083
1.71045
1.7101
1.70977
1.70948
1.70921
1.70897
1.70876
1.70857
1.70842
1.70829
1.70819
1.70811
1.70806
1.70803
1.70802
1.70803
1.70805
1.70809
1.70815
1.70821
1.70829
1.70837
1.70846
1.70856
1.70866
1.70878
1.70889
1.70902
1.70914
1.70928
1.70943
1.70958
1.70974
1.70992
1.71011
1.71031
1.71052
1.71075
1.71099
1.71125
1.71153
1.71183
1.71215
1.71249
1.71284
1.71322
1.71362
1.71403
1.71447
1.71491
1.71538
1.71586
1.71635
1.71684
1.71735
1.71786
1.71836
1.71887
1.71938
1.71988
1.72037
1.72085
1.72133
1.72179
1.72223
1.72266
1.72307
1.72347
1.72384
1.72419
1.72452
1.72483
1.7251
1.72536
1.72558
1.72577
1.72593
1.72607
1.72618
1.72625
1.72631
1.72634
1.72635
1.72634
1.72631
1.72627
1.72622
1.72615
1.72608
1.72599
1.7259
1.7258
1.7257
1.72559
1.72548
1.72536
1.72524
1.72514
1.72503
1.72494
1.72488
1.72485
1.72483
1.72486
1.72499
1.72511
1.72528
1.72568
1.7261
1.72634
1.72702
1.72811
1.72845
1.7289
1.73113
1.73239
1.73138
1.73392
1.73834
1.73565
1.73506
1.74237
1.74014
1.70711
1.70928
1.71066
1.70822
1.70714
1.70975
1.71014
1.70822
1.70868
1.70997
1.70951
1.70901
1.70955
1.70985
1.70963
1.70967
1.70995
1.71004
1.71006
1.7102
1.71036
1.71045
1.71056
1.71069
1.71081
1.71091
1.71101
1.71111
1.71119
1.71125
1.7113
1.71134
1.71136
1.71137
1.71135
1.71132
1.71127
1.7112
1.71111
1.71101
1.71088
1.71074
1.71059
1.71042
1.71024
1.71004
1.70983
1.70961
1.70938
1.70913
1.70888
1.70862
1.70835
1.70807
1.70777
1.70747
1.70715
1.70683
1.70648
1.70613
1.70576
1.70537
1.70497
1.70455
1.70412
1.70368
1.70322
1.70276
1.70229
1.70181
1.70133
1.70086
1.70039
1.69993
1.69948
1.69905
1.69864
1.69825
1.6979
1.69757
1.69727
1.69701
1.69679
1.69661
1.69646
1.69636
1.69629
1.69627
1.69628
1.69633
1.69641
1.69653
1.69668
1.69686
1.69706
1.69728
1.69753
1.69779
1.69806
1.69834
1.69863
1.69892
1.69922
1.69952
1.69981
1.7001
1.70039
1.70068
1.70096
1.70124
1.70152
1.7018
1.70208
1.70237
1.70266
1.70296
1.70327
1.7036
1.70394
1.70429
1.70467
1.70506
1.70547
1.7059
1.70635
1.70681
1.70729
1.70779
1.70829
1.70881
1.70934
1.70987
1.71041
1.71095
1.71149
1.71203
1.71256
1.7131
1.71363
1.71415
1.71468
1.71519
1.7157
1.71621
1.71671
1.7172
1.71769
1.71817
1.71864
1.71911
1.71957
1.72003
1.72047
1.7209
1.72131
1.72172
1.7221
1.72246
1.7228
1.72311
1.72339
1.72365
1.72387
1.72406
1.72421
1.72434
1.72443
1.72448
1.72451
1.72452
1.72449
1.72445
1.72439
1.72431
1.72422
1.72413
1.72403
1.72393
1.72383
1.72373
1.72364
1.72356
1.72349
1.72343
1.72338
1.72334
1.72331
1.72329
1.72327
1.72327
1.72327
1.72328
1.7233
1.72333
1.72336
1.72339
1.72344
1.72349
1.72355
1.72361
1.72368
1.72376
1.72385
1.72395
1.72405
1.72415
1.72426
1.72438
1.72449
1.7246
1.72472
1.72483
1.72493
1.72503
1.72513
1.72523
1.72532
1.72541
1.7255
1.72558
1.72567
1.72576
1.72586
1.72596
1.72606
1.72617
1.72628
1.7264
1.72653
1.72665
1.72677
1.72688
1.72699
1.72709
1.72716
1.72722
1.72726
1.72726
1.72724
1.72718
1.72708
1.72695
1.72677
1.72656
1.7263
1.72601
1.72568
1.72531
1.7249
1.72446
1.724
1.72351
1.723
1.72246
1.72191
1.72135
1.72078
1.7202
1.71961
1.71903
1.71844
1.71785
1.71727
1.71669
1.71612
1.71556
1.71501
1.71447
1.71394
1.71343
1.71293
1.71245
1.71199
1.71154
1.71112
1.71072
1.71034
1.70998
1.70965
1.70935
1.70907
1.70882
1.7086
1.7084
1.70824
1.7081
1.70798
1.70789
1.70783
1.70779
1.70777
1.70778
1.7078
1.70784
1.70789
1.70796
1.70804
1.70813
1.70823
1.70833
1.70845
1.70857
1.70869
1.70882
1.70896
1.7091
1.70925
1.7094
1.70956
1.70973
1.70991
1.7101
1.71029
1.71051
1.71073
1.71097
1.71123
1.7115
1.71179
1.71209
1.71242
1.71277
1.71313
1.71351
1.71392
1.71433
1.71477
1.71522
1.71568
1.71616
1.71664
1.71713
1.71762
1.71812
1.71862
1.71912
1.71961
1.72009
1.72057
1.72104
1.7215
1.72194
1.72237
1.72278
1.72318
1.72355
1.72391
1.72423
1.72454
1.72482
1.72507
1.72529
1.72548
1.72564
1.72577
1.72587
1.72595
1.726
1.72602
1.72603
1.72601
1.72597
1.72592
1.72586
1.72578
1.7257
1.7256
1.7255
1.72539
1.72527
1.72515
1.72502
1.72489
1.72476
1.72463
1.72452
1.72442
1.72433
1.72428
1.72427
1.72427
1.72433
1.7245
1.72468
1.72486
1.72529
1.72583
1.72612
1.7267
1.7279
1.72853
1.72872
1.73051
1.7324
1.73196
1.73293
1.73596
1.73593
1.73558
1.73606
1.70733
1.70912
1.7096
1.7075
1.70829
1.70967
1.70838
1.70807
1.70927
1.70916
1.70854
1.70895
1.70933
1.70911
1.7091
1.70937
1.70947
1.70946
1.70959
1.70975
1.70984
1.70994
1.71008
1.7102
1.7103
1.71041
1.71052
1.71062
1.7107
1.71077
1.71083
1.71088
1.71091
1.71092
1.71092
1.7109
1.71086
1.7108
1.71072
1.71063
1.71051
1.71038
1.71023
1.71007
1.70989
1.7097
1.70949
1.70927
1.70904
1.7088
1.70855
1.70829
1.70801
1.70773
1.70743
1.70713
1.70681
1.70649
1.70615
1.70579
1.70543
1.70505
1.70466
1.70425
1.70383
1.7034
1.70296
1.70252
1.70206
1.70161
1.70115
1.7007
1.70025
1.69982
1.69939
1.69898
1.6986
1.69823
1.69789
1.69758
1.6973
1.69706
1.69684
1.69667
1.69653
1.69643
1.69636
1.69633
1.69634
1.69638
1.69646
1.69656
1.6967
1.69686
1.69704
1.69724
1.69747
1.6977
1.69795
1.69821
1.69848
1.69875
1.69902
1.6993
1.69957
1.69984
1.70011
1.70038
1.70065
1.70091
1.70118
1.70144
1.70171
1.70198
1.70226
1.70255
1.70284
1.70315
1.70348
1.70382
1.70417
1.70455
1.70494
1.70535
1.70577
1.70621
1.70667
1.70714
1.70762
1.70811
1.70862
1.70912
1.70964
1.71015
1.71067
1.71119
1.71171
1.71223
1.71274
1.71326
1.71377
1.71427
1.71477
1.71527
1.71576
1.71625
1.71673
1.71721
1.71768
1.71815
1.7186
1.71905
1.71949
1.71991
1.72032
1.72071
1.72108
1.72143
1.72176
1.72206
1.72233
1.72256
1.72277
1.72294
1.72308
1.72318
1.72326
1.7233
1.72331
1.7233
1.72326
1.7232
1.72313
1.72304
1.72294
1.72283
1.72272
1.72261
1.72251
1.72241
1.72231
1.72222
1.72215
1.72208
1.72202
1.72198
1.72194
1.72192
1.7219
1.7219
1.7219
1.72191
1.72193
1.72195
1.72198
1.72202
1.72206
1.72212
1.72217
1.72224
1.72231
1.72239
1.72248
1.72258
1.72268
1.72278
1.72289
1.723
1.72311
1.72322
1.72333
1.72344
1.72355
1.72365
1.72375
1.72385
1.72394
1.72403
1.72412
1.72421
1.7243
1.7244
1.7245
1.7246
1.72471
1.72482
1.72494
1.72507
1.72519
1.72532
1.72544
1.72556
1.72568
1.72578
1.72586
1.72593
1.72597
1.72598
1.72597
1.72592
1.72583
1.72571
1.72555
1.72535
1.7251
1.72482
1.7245
1.72415
1.72376
1.72334
1.72289
1.72242
1.72192
1.72141
1.72087
1.72033
1.71978
1.71922
1.71865
1.71808
1.71752
1.71695
1.71639
1.71584
1.71529
1.71476
1.71423
1.71372
1.71322
1.71273
1.71226
1.71181
1.71137
1.71095
1.71056
1.71018
1.70983
1.7095
1.70919
1.70891
1.70865
1.70842
1.70821
1.70803
1.70788
1.70775
1.70765
1.70757
1.70752
1.70749
1.70749
1.7075
1.70754
1.70759
1.70766
1.70774
1.70784
1.70794
1.70806
1.70818
1.70831
1.70844
1.70858
1.70873
1.70888
1.70903
1.70919
1.70935
1.70952
1.70969
1.70987
1.71006
1.71026
1.71047
1.71069
1.71093
1.71117
1.71144
1.71172
1.71202
1.71233
1.71267
1.71302
1.71339
1.71377
1.71418
1.7146
1.71503
1.71548
1.71594
1.71641
1.71688
1.71737
1.71785
1.71834
1.71882
1.71931
1.71979
1.72026
1.72072
1.72118
1.72162
1.72205
1.72246
1.72286
1.72323
1.72359
1.72392
1.72422
1.7245
1.72475
1.72497
1.72516
1.72532
1.72545
1.72555
1.72562
1.72566
1.72568
1.72567
1.72565
1.72561
1.72555
1.72547
1.72539
1.72529
1.72518
1.72507
1.72494
1.72481
1.72467
1.72453
1.72439
1.72424
1.7241
1.72397
1.72386
1.72376
1.72367
1.72365
1.72366
1.72366
1.72378
1.72401
1.72416
1.7244
1.72498
1.72547
1.72567
1.72653
1.72781
1.72796
1.72841
1.73078
1.73153
1.7306
1.73337
1.73515
1.73242
1.73376
1.70975
1.70798
1.70707
1.70882
1.70922
1.70749
1.7077
1.70911
1.70859
1.70784
1.70852
1.70891
1.70849
1.70848
1.70886
1.7089
1.70883
1.70898
1.70916
1.70922
1.7093
1.70945
1.70957
1.70967
1.70979
1.70991
1.71001
1.71011
1.7102
1.71028
1.71035
1.7104
1.71044
1.71046
1.71047
1.71046
1.71043
1.71038
1.71031
1.71023
1.71012
1.71
1.70986
1.7097
1.70953
1.70934
1.70914
1.70892
1.70869
1.70844
1.70819
1.70792
1.70765
1.70736
1.70707
1.70676
1.70644
1.70612
1.70578
1.70543
1.70507
1.70469
1.70431
1.70391
1.70351
1.70309
1.70267
1.70224
1.70181
1.70138
1.70094
1.70051
1.70009
1.69968
1.69928
1.6989
1.69853
1.69819
1.69787
1.69758
1.69732
1.69709
1.69689
1.69672
1.69658
1.69649
1.69642
1.69639
1.69639
1.69642
1.69649
1.69658
1.69669
1.69684
1.697
1.69718
1.69738
1.6976
1.69783
1.69806
1.69831
1.69855
1.69881
1.69906
1.69931
1.69957
1.69982
1.70007
1.70032
1.70057
1.70082
1.70107
1.70132
1.70158
1.70185
1.70212
1.7024
1.7027
1.70301
1.70333
1.70367
1.70403
1.7044
1.70478
1.70519
1.70561
1.70604
1.70649
1.70694
1.70741
1.70789
1.70837
1.70886
1.70935
1.70985
1.71035
1.71085
1.71135
1.71185
1.71235
1.71284
1.71334
1.71383
1.71432
1.71481
1.71529
1.71576
1.71624
1.7167
1.71716
1.71761
1.71805
1.71848
1.7189
1.7193
1.71968
1.72004
1.72038
1.72069
1.72097
1.72123
1.72145
1.72163
1.72179
1.72191
1.72199
1.72204
1.72207
1.72206
1.72203
1.72197
1.7219
1.7218
1.7217