# vtk DataFile Version 2.0
LBE two cylinders
ASCII
DATASET STRUCTURED_POINTS
DIMENSIONS 400 100 1
ASPECT_RATIO 1 1 1
ORIGIN 0 0 0
POINT_DATA 40000
SCALARS rho double 1
LOOKUP_TABLE default
1.67925
1.73499
1.74903
1.72798
1.72901
1.738
1.73661
1.73331
1.73479
1.73614
1.73529
1.73489
1.73542
1.73553
1.73528
1.73528
1.73541
1.73538
1.73532
1.73534
1.73536
1.73534
1.73533
1.73533
1.73532
1.73531
1.7353
1.7353
1.73529
1.73528
1.73527
1.73526
1.73524
1.73523
1.73522
1.73521
1.73519
1.73518
1.73516
1.73514
1.73513
1.73511
1.73509
1.73507
1.73505
1.73503
1.735
1.73498
1.73496
1.73493
1.73491
1.73488
1.73486
1.73483
1.7348
1.73478
1.73475
1.73473
1.7347
1.73467
1.73465
1.73463
1.73461
1.73459
1.73457
1.73455
1.73454
1.73453
1.73452
1.73451
1.73451
1.73451
1.73451
1.73452
1.73454
1.73455
1.73457
1.7346
1.73463
1.73466
1.7347
1.73475
1.73479
1.73485
1.7349
1.73496
1.73503
1.7351
1.73517
1.73524
1.73532
1.73539
1.73547
1.73556
1.73564
1.73572
1.7358
1.73588
1.73596
1.73604
1.73612
1.7362
1.73627
1.73634
1.73641
1.73647
1.73653
1.73659
1.73664
1.73669
1.73674
1.73678
1.73682
1.73686
1.73689
1.73692
1.73694
1.73697
1.73698
1.737
1.73701
1.73702
1.73703
1.73703
1.73704
1.73704
1.73704
1.73703
1.73703
1.73702
1.73701
1.737
1.73699
1.73698
1.73697
1.73696
1.73694
1.73693
1.73691
1.7369
1.73688
1.73687
1.73685
1.73683
1.73682
1.7368
1.73678
1.73677
1.73675
1.73673
1.73671
1.7367
1.73668
1.73666
1.73665
1.73663
1.73661
1.7366
1.73658
1.73656
1.73655
1.73653
1.73651
1.7365
1.73648
1.73646
1.73645
1.73643
1.73642
1.7364
1.73638
1.73637
1.73635
1.73633
1.73632
1.7363
1.73628
1.73627
1.73625
1.73623
1.73621
1.73619
1.73617
1.73615
1.73613
1.73611
1.73609
1.73607
1.73604
1.73602
1.736
1.73597
1.73594
1.73592
1.73589
1.73586
1.73583
1.7358
1.73576
1.73573
1.73569
1.73566
1.73562
1.73558
1.73554
1.7355
1.73545
1.73541
1.73537
1.73532
1.73527
1.73522
1.73517
1.73512
1.73507
1.73501
1.73496
1.7349
1.73485
1.73479
1.73474
1.73468
1.73462
1.73456
1.73451
1.73445
1.7344
1.73434
1.73429
1.73423
1.73418
1.73413
1.73408
1.73403
1.73399
1.73395
1.73391
1.73387
1.73384
1.73381
1.73379
1.73377
1.73375
1.73374
1.73374
1.73374
1.73374
1.73376
1.73378
1.7338
1.73383
1.73387
1.73392
1.73397
1.73404
1.73411
1.73419
1.73428
1.73437
1.73448
1.73459
1.73472
1.73485
1.73499
1.73514
1.7353
1.73547
1.73564
1.73583
1.73602
1.73622
1.73643
1.73665
1.73687
1.7371
1.73733
1.73757
1.73781
1.73806
1.73831
1.73856
1.73881
1.73907
1.73932
1.73957
1.73981
1.74006
1.7403
1.74053
1.74075
1.74097
1.74118
1.74138
1.74156
1.74174
1.7419
1.74205
1.74218
1.7423
1.74241
1.74249
1.74256
1.74262
1.74266
1.74268
1.74268
1.74266
1.74263
1.74258
1.74252
1.74244
1.74234
1.74223
1.7421
1.74196
1.74181
1.74164
1.74147
1.74128
1.74108
1.74088
1.74067
1.74045
1.74023
1.74
1.73977
1.73954
1.7393
1.73907
1.73884
1.73861
1.73838
1.73815
1.73793
1.73772
1.73751
1.7373
1.73711
1.73692
1.73674
1.73657
1.7364
1.73625
1.73611
1.73598
1.73586
1.73575
1.73566
1.73557
1.7355
1.73545
1.7354
1.73537
1.73536
1.73536
1.73537
1.7354
1.73544
1.73551
1.73558
1.73568
1.73579
1.73592
1.73607
1.73624
1.73643
1.73664
1.73687
1.73713
1.73741
1.73771
1.73804
1.73839
1.73878
1.73918
1.73962
1.7401
1.7406
1.74112
1.74172
1.74234
1.74293
1.74366
1.74448
1.74513
1.74591
1.74712
1.74798
1.74845
1.75026
1.75217
1.75163
1.75325
1.7591
1.75757
1.75426
1.76971
1.77666
1.74811
1.78375
1.69889
1.72225
1.73718
1.73098
1.73148
1.73486
1.73506
1.73408
1.73463
1.7352
1.73506
1.73495
1.73514
1.73523
1.73518
1.73519
1.73524
1.73525
1.73524
1.73525
1.73526
1.73526
1.73526
1.73526
1.73526
1.73525
1.73525
1.73524
1.73524
1.73523
1.73522
1.73521
1.7352
1.73519
1.73518
1.73517
1.73516
1.73514
1.73513
1.73511
1.7351
1.73508
1.73506
1.73504
1.73502
1.735
1.73498
1.73496
1.73493
1.73491
1.73489
1.73486
1.73484
1.73481
1.73479
1.73476
1.73473
1.73471
1.73468
1.73466
1.73464
1.73461
1.73459
1.73457
1.73456
1.73454
1.73453
1.73451
1.73451
1.7345
1.7345
1.7345
1.73451
1.73451
1.73453
1.73455
1.73457
1.73459
1.73462
1.73466
1.7347
1.73474
1.73479
1.73484
1.7349
1.73496
1.73503
1.7351
1.73517
1.73524
1.73532
1.7354
1.73548
1.73556
1.73564
1.73572
1.7358
1.73589
1.73597
1.73604
1.73612
1.7362
1.73627
1.73634
1.73641
1.73647
1.73653
1.73659
1.73664
1.73669
1.73674
1.73678
1.73682
1.73685
1.73689
1.73691
1.73694
1.73696
1.73698
1.73699
1.73701
1.73702
1.73702
1.73703
1.73703
1.73703
1.73703
1.73703
1.73702
1.73701
1.73701
1.737
1.73699
1.73698
1.73696
1.73695
1.73694
1.73692
1.73691
1.73689
1.73688
1.73686
1.73684
1.73683
1.73681
1.73679
1.73678
1.73676
1.73674
1.73673
1.73671
1.73669
1.73667
1.73666
1.73664
1.73662
1.73661
1.73659
1.73657
1.73656
1.73654
1.73652
1.73651
1.73649
1.73648
1.73646
1.73644
1.73643
1.73641
1.73639
1.73638
1.73636
1.73635
1.73633
1.73631
1.7363
1.73628
1.73626
1.73624
1.73623
1.73621
1.73619
1.73617
1.73615
1.73613
1.73611
1.73609
1.73606
1.73604
1.73602
1.73599
1.73597
1.73594
1.73591
1.73588
1.73585
1.73582
1.73579
1.73576
1.73572
1.73569
1.73565
1.73561
1.73557
1.73553
1.73549
1.73545
1.7354
1.73536
1.73531
1.73526
1.73522
1.73517
1.73511
1.73506
1.73501
1.73495
1.7349
1.73484
1.73479
1.73473
1.73467
1.73462
1.73456
1.7345
1.73445
1.73439
1.73433
1.73428
1.73423
1.73418
1.73412
1.73408
1.73403
1.73399
1.73394
1.73391
1.73387
1.73384
1.73381
1.73379
1.73377
1.73375
1.73374
1.73374
1.73374
1.73375
1.73376
1.73378
1.7338
1.73384
1.73388
1.73393
1.73398
1.73404
1.73412
1.7342
1.73428
1.73438
1.73449
1.7346
1.73473
1.73486
1.735
1.73515
1.73531
1.73548
1.73566
1.73584
1.73604
1.73624
1.73645
1.73666
1.73689
1.73712
1.73735
1.73759
1.73783
1.73808
1.73833
1.73858
1.73883
1.73908
1.73934
1.73959
1.73983
1.74007
1.74031
1.74054
1.74077
1.74098
1.74119
1.74139
1.74157
1.74174
1.7419
1.74205
1.74218
1.7423
1.7424
1.74249
1.74256
1.74261
1.74265
1.74267
1.74267
1.74265
1.74262
1.74257
1.7425
1.74242
1.74232
1.74221
1.74208
1.74194
1.74178
1.74162
1.74144
1.74125
1.74106
1.74085
1.74064
1.74042
1.7402
1.73997
1.73974
1.73951
1.73928
1.73905
1.73881
1.73858
1.73836
1.73813
1.73791
1.7377
1.73749
1.73729
1.73709
1.7369
1.73672
1.73655
1.73639
1.73624
1.7361
1.73597
1.73585
1.73575
1.73565
1.73557
1.7355
1.73545
1.7354
1.73538
1.73536
1.73536
1.73538
1.73541
1.73545
1.73552
1.7356
1.73569
1.73581
1.73594
1.73609
1.73626
1.73645
1.73666
1.7369
1.73716
1.73744
1.73774
1.73807
1.73843
1.73881
1.73922
1.73967
1.74014
1.74064
1.74119
1.74176
1.74237
1.74303
1.74374
1.74445
1.74524
1.74614
1.74701
1.74789
1.74905
1.75034
1.75128
1.75254
1.75478
1.75658
1.75696
1.76051
1.76666
1.76759
1.76424
1.78868
1.75101
1.72323
1.71347
1.73653
1.73925
1.73001
1.73178
1.73631
1.7351
1.73357
1.73471
1.7354
1.73487
1.73476
1.73513
1.73518
1.73505
1.73509
1.73518
1.73517
1.73515
1.73518
1.73519
1.73518
1.73519
1.73519
1.73519
1.73519
1.73518
1.73518
1.73518
1.73517
1.73516
1.73515
1.73514
1.73513
1.73512
1.73511
1.7351
1.73508
1.73507
1.73505
1.73503
1.73502
1.735
1.73498
1.73496
1.73493
1.73491
1.73489
1.73487
1.73484
1.73482
1.73479
1.73477
1.73474
1.73472
1.73469
1.73467
1.73464
1.73462
1.7346
1.73458
1.73456
1.73454
1.73452
1.73451
1.7345
1.73449
1.73449
1.73449
1.73449
1.73449
1.7345
1.73452
1.73453
1.73456
1.73458
1.73462
1.73465
1.73469
1.73474
1.73479
1.73484
1.7349
1.73496
1.73503
1.73509
1.73517
1.73524
1.73532
1.7354
1.73548
1.73556
1.73564
1.73572
1.73581
1.73589
1.73597
1.73605
1.73613
1.7362
1.73627
1.73634
1.73641
1.73647
1.73653
1.73659
1.73664
1.73669
1.73674
1.73678
1.73682
1.73685
1.73689
1.73691
1.73694
1.73696
1.73698
1.73699
1.737
1.73701
1.73702
1.73702
1.73703
1.73702
1.73702
1.73702
1.73701
1.73701
1.737
1.73699
1.73698
1.73697
1.73696
1.73694
1.73693
1.73692
1.7369
1.73689
1.73687
1.73685
1.73684
1.73682
1.7368
1.73679
1.73677
1.73675
1.73674
1.73672
1.7367
1.73668
1.73667
1.73665
1.73663
1.73662
1.7366
1.73658
1.73657
1.73655
1.73653
1.73652
1.7365
1.73649
1.73647
1.73645
1.73644
1.73642
1.73641
1.73639
1.73637
1.73636
1.73634
1.73632
1.73631
1.73629
1.73627
1.73626
1.73624
1.73622
1.7362
1.73618
1.73616
1.73614
1.73612
1.7361
1.73608
1.73606
1.73604
1.73601
1.73599
1.73596
1.73594
1.73591
1.73588
1.73585
1.73582
1.73579
1.73575
1.73572
1.73568
1.73565
1.73561
1.73557
1.73553
1.73549
1.73545
1.7354
1.73536
1.73531
1.73526
1.73521
1.73516
1.73511
1.73506
1.735
1.73495
1.73489
1.73484
1.73478
1.73472
1.73467
1.73461
1.73455
1.7345
1.73444
1.73438
1.73433
1.73427
1.73422
1.73417
1.73412
1.73407
1.73402
1.73398
1.73394
1.7339
1.73387
1.73383
1.73381
1.73378
1.73376
1.73375
1.73374
1.73373
1.73374
1.73374
1.73376
1.73378
1.7338
1.73383
1.73388
1.73392
1.73398
1.73404
1.73412
1.7342
1.73428
1.73438
1.73449
1.73461
1.73473
1.73486
1.73501
1.73516
1.73532
1.73549
1.73567
1.73585
1.73605
1.73625
1.73646
1.73668
1.7369
1.73713
1.73736
1.73761
1.73785
1.7381
1.73835
1.7386
1.73885
1.7391
1.73936
1.73961
1.73985
1.74009
1.74033
1.74056
1.74079
1.741
1.74121
1.74141
1.74159
1.74176
1.74192
1.74207
1.7422
1.74232
1.74242
1.7425
1.74257
1.74262
1.74265
1.74267
1.74267
1.74265
1.74262
1.74257
1.7425
1.74241
1.74231
1.7422
1.74207
1.74193
1.74177
1.7416
1.74142
1.74124
1.74104
1.74083
1.74062
1.7404
1.74018
1.73995
1.73972
1.73949
1.73925
1.73902
1.73879
1.73856
1.73833
1.73811
1.73789
1.73767
1.73746
1.73726
1.73707
1.73688
1.7367
1.73653
1.73637
1.73622
1.73608
1.73595
1.73584
1.73573
1.73564
1.73556
1.73549
1.73543
1.73539
1.73537
1.73535
1.73535
1.73537
1.7354
1.73545
1.73551
1.73559
1.73569
1.7358
1.73594
1.73609
1.73626
1.73645
1.73666
1.7369
1.73716
1.73744
1.73774
1.73808
1.73843
1.73882
1.73923
1.73968
1.74014
1.74066
1.74121
1.74176
1.74237
1.74307
1.74373
1.74441
1.74532
1.7462
1.74682
1.74793
1.74944
1.74989
1.75069
1.75382
1.75482
1.75325
1.75894
1.76549
1.75678
1.75991
1.78813
1.77796
1.7337
1.73034
1.73068
1.73332
1.73158
1.73297
1.73469
1.73403
1.73378
1.7346
1.73484
1.73459
1.7347
1.73495
1.73495
1.73492
1.735
1.73505
1.73505
1.73506
1.7351
1.73511
1.73511
1.73512
1.73513
1.73513
1.73513
1.73514
1.73514
1.73513
1.73513
1.73513
1.73512
1.73512
1.73511
1.7351
1.73509
1.73508
1.73507
1.73505
1.73504
1.73502
1.73501
1.73499
1.73497
1.73495
1.73493
1.73491
1.73489
1.73487
1.73484
1.73482
1.7348
1.73477
1.73475
1.73472
1.7347
1.73467
1.73465
1.73462
1.7346
1.73458
1.73456
1.73454
1.73452
1.73451
1.73449
1.73448
1.73448
1.73447
1.73447
1.73447
1.73448
1.73449
1.7345
1.73452
1.73454
1.73457
1.7346
1.73464
1.73468
1.73473
1.73478
1.73483
1.73489
1.73495
1.73502
1.73509
1.73516
1.73524
1.73532
1.7354
1.73548
1.73556
1.73564
1.73573
1.73581
1.73589
1.73597
1.73605
1.73613
1.73621
1.73628
1.73635
1.73642
1.73648
1.73654
1.7366
1.73665
1.7367
1.73674
1.73678
1.73682
1.73686
1.73689
1.73691
1.73694
1.73696
1.73698
1.73699
1.737
1.73701
1.73702
1.73702
1.73702
1.73702
1.73702
1.73702
1.73701
1.737
1.737
1.73699
1.73698
1.73696
1.73695
1.73694
1.73692
1.73691
1.7369
1.73688
1.73686
1.73685
1.73683
1.73681
1.7368
1.73678
1.73676
1.73675
1.73673
1.73671
1.7367
1.73668
1.73666
1.73665
1.73663
1.73661
1.7366
1.73658
1.73656
1.73655
1.73653
1.73651
1.7365
1.73648
1.73647
1.73645
1.73643
1.73642
1.7364
1.73639
1.73637
1.73635
1.73634
1.73632
1.7363
1.73629
1.73627
1.73625
1.73624
1.73622
1.7362
1.73618
1.73616
1.73614
1.73612
1.7361
1.73608
1.73606
1.73603
1.73601
1.73599
1.73596
1.73593
1.73591
1.73588
1.73585
1.73582
1.73578
1.73575
1.73572
1.73568
1.73564
1.73561
1.73557
1.73553
1.73549
1.73544
1.7354
1.73535
1.7353
1.73526
1.73521
1.73516
1.7351
1.73505
1.735
1.73494
1.73489
1.73483
1.73478
1.73472
1.73466
1.73461
1.73455
1.73449
1.73443
1.73438
1.73432
1.73427
1.73421
1.73416
1.73411
1.73406
1.73402
1.73397
1.73393
1.73389
1.73386
1.73383
1.7338
1.73377
1.73375
1.73374
1.73373
1.73372
1.73373
1.73373
1.73375
1.73377
1.73379
1.73383
1.73387
1.73391
1.73397
1.73403
1.73411
1.73419
1.73428
1.73438
1.73448
1.7346
1.73472
1.73486
1.735
1.73515
1.73532
1.73549
1.73566
1.73585
1.73605
1.73625
1.73646
1.73668
1.73691
1.73714
1.73737
1.73761
1.73786
1.73811
1.73836
1.73861
1.73887
1.73912
1.73938
1.73963
1.73987
1.74012
1.74036
1.74059
1.74081
1.74103
1.74124
1.74143
1.74162
1.74179
1.74195
1.7421
1.74223
1.74234
1.74244
1.74253
1.74259
1.74264
1.74268
1.74269
1.74269
1.74267
1.74263
1.74258
1.74251
1.74242
1.74232
1.7422
1.74207
1.74192
1.74176
1.7416
1.74141
1.74122
1.74102
1.74082
1.7406
1.74038
1.74016
1.73993
1.7397
1.73946
1.73923
1.73899
1.73876
1.73853
1.7383
1.73808
1.73786
1.73764
1.73743
1.73723
1.73704
1.73685
1.73667
1.7365
1.73634
1.73619
1.73605
1.73593
1.73581
1.73571
1.73561
1.73553
1.73546
1.73541
1.73537
1.73534
1.73533
1.73533
1.73535
1.73538
1.73543
1.73549
1.73557
1.73567
1.73578
1.73592
1.73607
1.73624
1.73643
1.73664
1.73688
1.73714
1.73742
1.73772
1.73805
1.73841
1.73879
1.73921
1.73965
1.74012
1.74063
1.74116
1.74175
1.74236
1.74299
1.7437
1.74445
1.7452
1.74604
1.74698
1.74788
1.74886
1.75008
1.75123
1.7524
1.75407
1.75565
1.75698
1.75961
1.76241
1.76345
1.7694
1.76785
1.72229
1.73458
1.74018
1.72863
1.72893
1.73667
1.73503
1.73202
1.73401
1.73542
1.73437
1.73413
1.73488
1.73498
1.7347
1.73481
1.735
1.73497
1.73494
1.73501
1.73505
1.73504
1.73505
1.73507
1.73508
1.73508
1.73509
1.73509
1.73509
1.73509
1.73509
1.73509
1.73509
1.73508
1.73508
1.73507
1.73506
1.73505
1.73504
1.73503
1.73501
1.735
1.73498
1.73497
1.73495
1.73493
1.73491
1.73489
1.73487
1.73485
1.73482
1.7348
1.73478
1.73475
1.73473
1.7347
1.73468
1.73465
1.73463
1.73461
1.73458
1.73456
1.73454
1.73452
1.73451
1.73449
1.73448
1.73447
1.73446
1.73446
1.73445
1.73446
1.73446
1.73447
1.73449
1.73451
1.73453
1.73456
1.73459
1.73463
1.73467
1.73472
1.73477
1.73482
1.73488
1.73494
1.73501
1.73508
1.73516
1.73523
1.73531
1.73539
1.73548
1.73556
1.73564
1.73573
1.73581
1.73589
1.73598
1.73606
1.73614
1.73621
1.73628
1.73635
1.73642
1.73649
1.73655
1.7366
1.73666
1.7367
1.73675
1.73679
1.73683
1.73686
1.73689
1.73692
1.73694
1.73696
1.73698
1.73699
1.737
1.73701
1.73702
1.73702
1.73702
1.73702
1.73702
1.73701
1.73701
1.737
1.73699
1.73698
1.73697
1.73696
1.73695
1.73693
1.73692
1.7369
1.73689
1.73687
1.73686
1.73684
1.73683
1.73681
1.73679
1.73678
1.73676
1.73674
1.73672
1.73671
1.73669
1.73667
1.73666
1.73664
1.73662
1.73661
1.73659
1.73657
1.73656
1.73654
1.73652
1.73651
1.73649
1.73648
1.73646
1.73644
1.73643
1.73641
1.7364
1.73638
1.73637
1.73635
1.73633
1.73632
1.7363
1.73628
1.73627
1.73625
1.73623
1.73621
1.7362
1.73618
1.73616
1.73614
1.73612
1.7361
1.73608
1.73605
1.73603
1.73601
1.73598
1.73596
1.73593
1.7359
1.73588
1.73585
1.73581
1.73578
1.73575
1.73572
1.73568
1.73564
1.73561
1.73557
1.73553
1.73548
1.73544
1.7354
1.73535
1.7353
1.73525
1.7352
1.73515
1.7351
1.73505
1.735
1.73494
1.73489
1.73483
1.73477
1.73472
1.73466
1.7346
1.73454
1.73448
1.73443
1.73437
1.73431
1.73426
1.73421
1.73415
1.7341
1.73405
1.73401
1.73396
1.73392
1.73388
1.73385
1.73381
1.73378
1.73376
1.73374
1.73373
1.73372
1.73371
1.73371
1.73372
1.73373
1.73375
1.73378
1.73381
1.73385
1.7339
1.73396
1.73402
1.73409
1.73417
1.73426
1.73436
1.73447
1.73459
1.73471
1.73485
1.73499
1.73514
1.7353
1.73548
1.73566
1.73584
1.73604
1.73625
1.73646
1.73668
1.7369
1.73714
1.73738
1.73762
1.73787
1.73812
1.73837
1.73863
1.73888
1.73914
1.73939
1.73965
1.7399
1.74014
1.74038
1.74062
1.74084
1.74106
1.74127
1.74147
1.74165
1.74183
1.74199
1.74213
1.74227
1.74238
1.74248
1.74256
1.74263
1.74268
1.74271
1.74272
1.74272
1.7427
1.74266
1.7426
1.74253
1.74244
1.74233
1.74221
1.74208
1.74193
1.74177
1.74159
1.74141
1.74122
1.74102
1.74081
1.74059
1.74037
1.74014
1.73991
1.73967
1.73944
1.7392
1.73896
1.73873
1.7385
1.73827
1.73804
1.73782
1.73761
1.7374
1.73719
1.737
1.73681
1.73663
1.73646
1.73631
1.73616
1.73602
1.73589
1.73577
1.73567
1.73558
1.7355
1.73543
1.73537
1.73533
1.73531
1.73529
1.73529
1.73531
1.73534
1.73539
1.73545
1.73553
1.73563
1.73574
1.73588
1.73603
1.7362
1.73639
1.7366
1.73684
1.73709
1.73737
1.73768
1.738
1.73836
1.73874
1.73915
1.73959
1.74007
1.74056
1.74109
1.74168
1.74229
1.74289
1.74361
1.74439
1.74505
1.74585
1.74698
1.74775
1.74833
1.75002
1.75151
1.75118
1.75295
1.75727
1.75607
1.75389
1.7638
1.7677
1.75564
1.76138
1.73479
1.73244
1.73079
1.73305
1.73555
1.73317
1.73233
1.73468
1.73495
1.73382
1.73418
1.73492
1.73473
1.73452
1.73478
1.73493
1.73484
1.73485
1.73496
1.73498
1.73496
1.73499
1.73502
1.73503
1.73503
1.73504
1.73505
1.73505
1.73506
1.73506
1.73506
1.73506
1.73506
1.73505
1.73505
1.73504
1.73503
1.73502
1.73501
1.735
1.73499
1.73498
1.73496
1.73495
1.73493
1.73491
1.73489
1.73487
1.73485
1.73483
1.73481
1.73478
1.73476
1.73473
1.73471
1.73469
1.73466
1.73464
1.73461
1.73459
1.73457
1.73455
1.73452
1.73451
1.73449
1.73447
1.73446
1.73445
1.73444
1.73444
1.73444
1.73444
1.73445
1.73446
1.73447
1.73449
1.73451
1.73454
1.73458
1.73461
1.73466
1.7347
1.73475
1.73481
1.73487
1.73494
1.735
1.73508
1.73515
1.73523
1.73531
1.73539
1.73547
1.73556
1.73564
1.73573
1.73581
1.7359
1.73598
1.73606
1.73614
1.73622
1.73629
1.73636
1.73643
1.73649
1.73655
1.73661
1.73666
1.73671
1.73676
1.7368
1.73683
1.73687
1.7369
1.73692
1.73694
1.73696
1.73698
1.73699
1.737
1.73701
1.73702
1.73702
1.73702
1.73702
1.73702
1.73701
1.737
1.737
1.73699
1.73698
1.73697
1.73695
1.73694
1.73693
1.73691
1.7369
1.73688
1.73687
1.73685
1.73684
1.73682
1.7368
1.73679
1.73677
1.73675
1.73674
1.73672
1.7367
1.73668
1.73667
1.73665
1.73663
1.73662
1.7366
1.73658
1.73657
1.73655
1.73654
1.73652
1.7365
1.73649
1.73647
1.73646
1.73644
1.73642
1.73641
1.73639
1.73638
1.73636
1.73635
1.73633
1.73631
1.7363
1.73628
1.73626
1.73625
1.73623
1.73621
1.73619
1.73618
1.73616
1.73614
1.73612
1.7361
1.73607
1.73605
1.73603
1.73601
1.73598
1.73596
1.73593
1.7359
1.73587
1.73584
1.73581
1.73578
1.73575
1.73571
1.73568
1.73564
1.7356
1.73557
1.73552
1.73548
1.73544
1.73539
1.73535
1.7353
1.73525
1.7352
1.73515
1.7351
1.73505
1.73499
1.73494
1.73488
1.73483
1.73477
1.73471
1.73465
1.7346
1.73454
1.73448
1.73442
1.73436
1.73431
1.73425
1.7342
1.73414
1.73409
1.73404
1.734
1.73395
1.73391
1.73387
1.73383
1.7338
1.73377
1.73375
1.73373
1.73371
1.7337
1.73369
1.73369
1.7337
1.73371
1.73373
1.73376
1.73379
1.73383
1.73388
1.73393
1.734
1.73407
1.73415
1.73424
1.73434
1.73445
1.73456
1.73469
1.73483
1.73497
1.73512
1.73529
1.73546
1.73564
1.73583
1.73603
1.73623
1.73645
1.73667
1.7369
1.73713
1.73737
1.73762
1.73787
1.73812
1.73838
1.73863
1.73889
1.73915
1.73941
1.73967
1.73992
1.74017
1.74041
1.74065
1.74087
1.74109
1.74131
1.74151
1.74169
1.74187
1.74203
1.74218
1.74231
1.74243
1.74252
1.74261
1.74267
1.74272
1.74275
1.74276
1.74276
1.74273
1.74269
1.74263
1.74255
1.74246
1.74235
1.74223
1.74209
1.74194
1.74177
1.7416
1.74141
1.74121
1.74101
1.7408
1.74058
1.74035
1.74012
1.73988
1.73965
1.73941
1.73917
1.73893
1.7387
1.73846
1.73823
1.738
1.73778
1.73757
1.73735
1.73715
1.73696
1.73677
1.73659
1.73642
1.73626
1.73611
1.73597
1.73585
1.73573
1.73562
1.73553
1.73545
1.73538
1.73533
1.73529
1.73526
1.73525
1.73525
1.73527
1.7353
1.73534
1.73541
1.73548
1.73558
1.73569
1.73583
1.73598
1.73615
1.73633
1.73654
1.73678
1.73703
1.73731
1.73761
1.73793
1.73828
1.73866
1.73907
1.7395
1.73997
1.74047
1.741
1.74155
1.74216
1.74281
1.74345
1.74417
1.74498
1.74573
1.7465
1.74757
1.74852
1.74919
1.75052
1.75214
1.75254
1.75343
1.75652
1.75762
1.75707
1.7601
1.76106
1.76166
1.73782
1.73233
1.73022
1.73574
1.73515
1.73162
1.73372
1.73551
1.73397
1.73367
1.73482
1.73485
1.73438
1.73461
1.73491
1.73481
1.73475
1.73489
1.73494
1.73491
1.73493
1.73498
1.73499
1.73499
1.735
1.73502
1.73502
1.73503
1.73503
1.73503
1.73503
1.73503
1.73503
1.73503
1.73502
1.73502
1.73501
1.735
1.73499
1.73498
1.73497
1.73496
1.73494
1.73493
1.73491
1.73489
1.73487
1.73485
1.73483
1.73481
1.73479
1.73477
1.73474
1.73472
1.7347
1.73467
1.73465
1.73462
1.7346
1.73457
1.73455
1.73453
1.73451
1.73449
1.73447
1.73446
1.73445
1.73443
1.73443
1.73442
1.73442
1.73442
1.73443
1.73444
1.73446
1.73448
1.7345
1.73453
1.73456
1.7346
1.73464
1.73469
1.73474
1.7348
1.73486
1.73493
1.735
1.73507
1.73514
1.73522
1.7353
1.73539
1.73547
1.73556
1.73565
1.73573
1.73582
1.7359
1.73599
1.73607
1.73615
1.73622
1.7363
1.73637
1.73644
1.7365
1.73656
1.73662
1.73667
1.73672
1.73676
1.7368
1.73684
1.73687
1.7369
1.73693
1.73695
1.73697
1.73698
1.73699
1.737
1.73701
1.73702
1.73702
1.73702
1.73702
1.73701
1.73701
1.737
1.73699
1.73698
1.73697
1.73696
1.73695
1.73694
1.73692
1.73691
1.73689
1.73688
1.73686
1.73685
1.73683
1.73681
1.7368
1.73678
1.73676
1.73675
1.73673
1.73671
1.7367
1.73668
1.73666
1.73665
1.73663
1.73661
1.7366
1.73658
1.73656
1.73655
1.73653
1.73651
1.7365
1.73648
1.73647
1.73645
1.73644
1.73642
1.7364
1.73639
1.73637
1.73636
1.73634
1.73633
1.73631
1.73629
1.73628
1.73626
1.73624
1.73623
1.73621
1.73619
1.73617
1.73615
1.73614
1.73612
1.73609
1.73607
1.73605
1.73603
1.736
1.73598
1.73596
1.73593
1.7359
1.73587
1.73584
1.73581
1.73578
1.73575
1.73571
1.73568
1.73564
1.7356
1.73557
1.73552
1.73548
1.73544
1.73539
1.73535
1.7353
1.73525
1.7352
1.73515
1.7351
1.73505
1.73499
1.73494
1.73488
1.73482
1.73476
1.73471
1.73465
1.73459
1.73453
1.73447
1.73441
1.73436
1.7343
1.73424
1.73419
1.73413
1.73408
1.73403
1.73398
1.73394
1.73389
1.73385
1.73382
1.73378
1.73375
1.73373
1.73371
1.73369
1.73368
1.73367
1.73367
1.73368
1.73369
1.73371
1.73373
1.73377
1.73381
1.73385
1.73391
1.73397
1.73405
1.73413
1.73422
1.73431
1.73442
1.73454
1.73466
1.7348
1.73494
1.7351
1.73526
1.73543
1.73562
1.73581
1.73601
1.73621
1.73643
1.73665
1.73688
1.73712
1.73736
1.73761
1.73786
1.73812
1.73838
1.73864
1.7389
1.73916
1.73942
1.73968
1.73994
1.74019
1.74043
1.74067
1.74091
1.74113
1.74134
1.74155
1.74174
1.74191
1.74208
1.74223
1.74236
1.74248
1.74257
1.74266
1.74272
1.74277
1.7428
1.74281
1.7428
1.74277
1.74273
1.74267
1.74259
1.74249
1.74238
1.74225
1.74211
1.74195
1.74179
1.74161
1.74141
1.74121
1.741
1.74079
1.74056
1.74033
1.7401
1.73986
1.73962
1.73938
1.73914
1.7389
1.73866
1.73842
1.73819
1.73796
1.73774
1.73752
1.73731
1.7371
1.73691
1.73672
1.73654
1.73637
1.73621
1.73606
1.73592
1.73579
1.73568
1.73557
1.73548
1.7354
1.73533
1.73528
1.73524
1.73521
1.73519
1.7352
1.73521
1.73524
1.73529
1.73535
1.73543
1.73552
1.73563
1.73576
1.73591
1.73608
1.73626
1.73647
1.7367
1.73695
1.73722
1.73752
1.73784
1.73819
1.73856
1.73896
1.73939
1.73984
1.74034
1.74087
1.7414
1.74199
1.74265
1.74328
1.74392
1.74476
1.74557
1.74615
1.74711
1.74842
1.74889
1.74943
1.75168
1.75288
1.75173
1.75416
1.75844
1.75554
1.75477
1.76202
1.75969
1.73203
1.73426
1.73569
1.73324
1.73217
1.73484
1.73525
1.73332
1.7338
1.73512
1.73465
1.73414
1.73467
1.73494
1.73468
1.73468
1.73489
1.7349
1.73484
1.73489
1.73496
1.73495
1.73495
1.73498
1.73499
1.73499
1.735
1.73501
1.73501
1.73501
1.73501
1.73502
1.73501
1.73501
1.73501
1.735
1.73499
1.73498
1.73498
1.73497
1.73495
1.73494
1.73493
1.73491
1.7349
1.73488
1.73486
1.73484
1.73482
1.7348
1.73478
1.73475
1.73473
1.73471
1.73468
1.73466
1.73463
1.73461
1.73458
1.73456
1.73454
1.73452
1.7345
1.73448
1.73446
1.73444
1.73443
1.73442
1.73441
1.73441
1.73441
1.73441
1.73442
1.73443
1.73444
1.73446
1.73449
1.73451
1.73455
1.73459
1.73463
1.73468
1.73473
1.73479
1.73485
1.73492
1.73499
1.73506
1.73514
1.73522
1.7353
1.73539
1.73547
1.73556
1.73565
1.73573
1.73582
1.73591
1.73599
1.73607
1.73615
1.73623
1.73631
1.73638
1.73645
1.73651
1.73657
1.73663
1.73668
1.73673
1.73677
1.73681
1.73685
1.73688
1.73691
1.73693
1.73695
1.73697
1.73699
1.737
1.73701
1.73701
1.73702
1.73702
1.73702
1.73702
1.73701
1.73701
1.737
1.73699
1.73698
1.73697
1.73696
1.73695
1.73693
1.73692
1.73691
1.73689
1.73687
1.73686
1.73684
1.73683
1.73681
1.73679
1.73678
1.73676
1.73674
1.73672
1.73671
1.73669
1.73667
1.73666
1.73664
1.73662
1.73661
1.73659
1.73657
1.73656
1.73654
1.73653
1.73651
1.73649
1.73648
1.73646
1.73645
1.73643
1.73642
1.7364
1.73639
1.73637
1.73635
1.73634
1.73632
1.73631
1.73629
1.73628
1.73626
1.73624
1.73623
1.73621
1.73619
1.73617
1.73615
1.73613
1.73611
1.73609
1.73607
1.73605
1.73603
1.736
1.73598
1.73596
1.73593
1.7359
1.73587
1.73584
1.73581
1.73578
1.73575
1.73572
1.73568
1.73564
1.73561
1.73557
1.73553
1.73548
1.73544
1.73539
1.73535
1.7353
1.73525
1.7352
1.73515
1.7351
1.73504
1.73499
1.73493
1.73488
1.73482
1.73476
1.7347
1.73464
1.73459
1.73453
1.73447
1.73441
1.73435
1.73429
1.73424
1.73418
1.73412
1.73407
1.73402
1.73397
1.73392
1.73388
1.73384
1.7338
1.73377
1.73374
1.73371
1.73369
1.73367
1.73366
1.73365
1.73365
1.73366
1.73367
1.73368
1.73371
1.73374
1.73378
1.73383
1.73388
1.73394
1.73402
1.7341
1.73418
1.73428
1.73439
1.73451
1.73463
1.73477
1.73491
1.73507
1.73523
1.7354
1.73559
1.73578
1.73598
1.73619
1.7364
1.73663
1.73686
1.7371
1.73734
1.73759
1.73785
1.73811
1.73837
1.73863
1.7389
1.73916
1.73943
1.73969
1.73995
1.74021
1.74046
1.7407
1.74094
1.74116
1.74138
1.74158
1.74178
1.74196
1.74212
1.74227
1.74241
1.74253
1.74263
1.74271
1.74278
1.74282
1.74285
1.74286
1.74285
1.74282
1.74277
1.74271
1.74262
1.74252
1.74241
1.74228
1.74213
1.74197
1.7418
1.74161
1.74142
1.74121
1.741
1.74078
1.74055
1.74032
1.74008
1.73984
1.73959
1.73935
1.73911
1.73886
1.73862
1.73838
1.73815
1.73792
1.73769
1.73747
1.73726
1.73705
1.73686
1.73667
1.73649
1.73632
1.73616
1.73601
1.73587
1.73574
1.73562
1.73552
1.73542
1.73534
1.73527
1.73522
1.73518
1.73515
1.73513
1.73513
1.73515
1.73518
1.73522
1.73528
1.73536
1.73545
1.73556
1.73569
1.73583
1.736
1.73618
1.73638
1.73661
1.73685
1.73712
1.73741
1.73773
1.73807
1.73843
1.73883
1.73925
1.7397
1.74017
1.74069
1.74124
1.7418
1.74239
1.74308
1.74375
1.74437
1.7452
1.7461
1.74667
1.74748
1.74886
1.74957
1.74977
1.75152
1.75332
1.75271
1.7535
1.75637
1.75616
1.75564
1.75603
1.73274
1.73458
1.7351
1.73299
1.73381
1.73523
1.73395
1.73365
1.73489
1.73478
1.73416
1.73456
1.73493
1.73468
1.73462
1.73485
1.73489
1.73481
1.73486
1.73493
1.73493
1.73492
1.73495
1.73497
1.73497
1.73498
1.73499
1.735
1.735
1.735
1.735
1.735
1.735
1.735
1.73499
1.73499
1.73498
1.73497
1.73496
1.73495
1.73494
1.73493
1.73491
1.7349
1.73488
1.73487
1.73485
1.73483
1.73481
1.73479
1.73476
1.73474
1.73472
1.7347
1.73467
1.73465
1.73462
1.7346
1.73457
1.73455
1.73453
1.73451
1.73449
1.73447
1.73445
1.73443
1.73442
1.73441
1.7344
1.7344
1.7344
1.7344
1.73441
1.73442
1.73443
1.73445
1.73447
1.7345
1.73454
1.73458
1.73462
1.73467
1.73472
1.73478
1.73484
1.73491
1.73498
1.73505
1.73513
1.73521
1.7353
1.73538
1.73547
1.73556
1.73565
1.73573
1.73582
1.73591
1.73599
1.73608
1.73616
1.73624
1.73631
1.73638
1.73645
1.73652
1.73658
1.73663
1.73668
1.73673
1.73678
1.73682
1.73685
1.73688
1.73691
1.73693
1.73696
1.73697
1.73699
1.737
1.73701
1.73701
1.73702
1.73702
1.73702
1.73701
1.73701
1.737
1.737
1.73699
1.73698
1.73697
1.73696
1.73694
1.73693
1.73691
1.7369
1.73689
1.73687
1.73685
1.73684
1.73682
1.7368
1.73679
1.73677
1.73675
1.73674
1.73672
1.7367
1.73669
1.73667
1.73665
1.73664
1.73662
1.7366
1.73659
1.73657
1.73655
1.73654
1.73652
1.73651
1.73649
1.73647
1.73646
1.73644
1.73643
1.73641
1.7364
1.73638
1.73637
1.73635
1.73634
1.73632
1.7363
1.73629
1.73627
1.73626
1.73624
1.73622
1.73621
1.73619
1.73617
1.73615
1.73613
1.73611
1.73609
1.73607
1.73605
1.73603
1.736
1.73598
1.73596
1.73593
1.7359
1.73587
1.73585
1.73581
1.73578
1.73575
1.73572
1.73568
1.73564
1.73561
1.73557
1.73553
1.73548
1.73544
1.7354
1.73535
1.7353
1.73525
1.7352
1.73515
1.7351
1.73504
1.73499
1.73493
1.73488
1.73482
1.73476
1.7347
1.73464
1.73458
1.73452
1.73446
1.7344
1.73434
1.73428
1.73423
1.73417
1.73411
1.73406
1.73401
1.73396
1.73391
1.73387
1.73382
1.73379
1.73375
1.73372
1.73369
1.73367
1.73365
1.73364
1.73363
1.73363
1.73363
1.73364
1.73366
1.73368
1.73371
1.73375
1.73379
1.73385
1.73391
1.73398
1.73406
1.73415
1.73425
1.73435
1.73447
1.7346
1.73473
1.73488
1.73503
1.7352
1.73537
1.73555
1.73574
1.73595
1.73616
1.73637
1.7366
1.73683
1.73707
1.73732
1.73757
1.73783
1.73809
1.73836
1.73863
1.73889
1.73916
1.73943
1.7397
1.73996
1.74022
1.74048
1.74072
1.74096
1.74119
1.74141
1.74162
1.74182
1.742
1.74217
1.74232
1.74246
1.74258
1.74268
1.74276
1.74283
1.74287
1.7429
1.74291
1.7429
1.74286
1.74281
1.74275
1.74266
1.74256
1.74244
1.7423
1.74215
1.74199
1.74181
1.74162
1.74142
1.74121
1.74099
1.74077
1.74053
1.7403
1.74005
1.73981
1.73956
1.73932
1.73907
1.73882
1.73858
1.73834
1.7381
1.73787
1.73764
1.73742
1.7372
1.737
1.7368
1.73661
1.73643
1.73626
1.7361
1.73595
1.73581
1.73568
1.73556
1.73546
1.73536
1.73528
1.73521
1.73516
1.73511
1.73509
1.73507
1.73507
1.73508
1.73511
1.73515
1.73521
1.73528
1.73537
1.73548
1.73561
1.73575
1.73591
1.73609
1.73629
1.73651
1.73675
1.73701
1.73729
1.7376
1.73794
1.7383
1.73868
1.73909
1.73953
1.74
1.74048
1.74103
1.7416
1.74214
1.74278
1.7435
1.74411
1.74475
1.7457
1.74649
1.74691
1.74795
1.74934
1.7495
1.74991
1.7522
1.7528
1.75166
1.75426
1.75586
1.75294
1.7542
1.73572
1.73395
1.73305
1.73485
1.73528
1.73355
1.73378
1.73523
1.73471
1.73396
1.73465
1.73504
1.73459
1.73456
1.7349
1.73489
1.73475
1.73484
1.73494
1.73491
1.73489
1.73494
1.73496
1.73495
1.73496
1.73498
1.73499
1.73498
1.73499
1.73499
1.73499
1.73499
1.73499
1.73499
1.73498
1.73498
1.73497
1.73496
1.73495
1.73494
1.73493
1.73492
1.7349
1.73489
1.73487
1.73486
1.73484
1.73482
1.7348
1.73478
1.73476
1.73473
1.73471
1.73469
1.73466
1.73464
1.73461
1.73459
1.73457
1.73454
1.73452
1.7345
1.73448
1.73446
1.73444
1.73443
1.73441
1.7344
1.73439
1.73439
1.73439
1.73439
1.7344
1.73441
1.73442
1.73444
1.73447
1.73449
1.73453
1.73457
1.73461
1.73466
1.73471
1.73477
1.73484
1.7349
1.73497
1.73505
1.73513
1.73521
1.73529
1.73538
1.73547
1.73556
1.73565
1.73573
1.73582
1.73591
1.736
1.73608
1.73616
1.73624
1.73632
1.73639
1.73646
1.73652
1.73658
1.73664
1.73669
1.73674
1.73678
1.73682
1.73685
1.73689
1.73691
1.73694
1.73696
1.73697
1.73699
1.737
1.73701
1.73701
1.73702
1.73702
1.73702
1.73701
1.73701
1.737
1.73699
1.73698
1.73697
1.73696
1.73695
1.73694
1.73692
1.73691
1.7369
1.73688
1.73686
1.73685
1.73683
1.73682
1.7368
1.73678
1.73677
1.73675
1.73673
1.73671
1.7367
1.73668
1.73666
1.73665
1.73663
1.73661
1.7366
1.73658
1.73657
1.73655
1.73653
1.73652
1.7365
1.73649
1.73647
1.73646
1.73644
1.73643
1.73641
1.73639
1.73638
1.73636
1.73635
1.73633
1.73632
1.7363
1.73629
1.73627
1.73626
1.73624
1.73622
1.7362
1.73619
1.73617
1.73615