# vtk DataFile Version 2.0
LBE two cylinders
ASCII
DATASET STRUCTURED_POINTS
DIMENSIONS 400 100 1
ASPECT_RATIO 1 1 1
ORIGIN 0 0 0
POINT_DATA 40000
SCALARS rho double 1
LOOKUP_TABLE default
1.67908
1.73482
1.74885
1.72781
1.72883
1.73783
1.73644
1.73313
1.73461
1.73597
1.73512
1.73471
1.73524
1.73536
1.7351
1.7351
1.73523
1.73521
1.73515
1.73517
1.73519
1.73516
1.73515
1.73515
1.73515
1.73513
1.73512
1.73512
1.73511
1.7351
1.73509
1.73507
1.73506
1.73505
1.73504
1.73502
1.73501
1.73499
1.73498
1.73496
1.73495
1.73493
1.73491
1.73489
1.73487
1.73485
1.73483
1.73481
1.73479
1.73477
1.73474
1.73472
1.7347
1.73467
1.73465
1.73463
1.7346
1.73458
1.73456
1.73454
1.73452
1.7345
1.73448
1.73446
1.73445
1.73444
1.73443
1.73442
1.73442
1.73441
1.73441
1.73442
1.73443
1.73444
1.73446
1.73447
1.7345
1.73453
1.73456
1.7346
1.73464
1.73469
1.73474
1.73479
1.73485
1.73491
1.73498
1.73505
1.73512
1.7352
1.73528
1.73536
1.73544
1.73552
1.73561
1.73569
1.73577
1.73586
1.73594
1.73602
1.7361
1.73618
1.73625
1.73633
1.7364
1.73646
1.73653
1.73659
1.73665
1.7367
1.73675
1.7368
1.73684
1.73688
1.73691
1.73695
1.73697
1.737
1.73702
1.73704
1.73706
1.73707
1.73709
1.73709
1.7371
1.73711
1.73711
1.73711
1.73711
1.73711
1.73711
1.7371
1.7371
1.73709
1.73708
1.73707
1.73706
1.73706
1.73705
1.73703
1.73702
1.73701
1.737
1.73699
1.73698
1.73697
1.73696
1.73694
1.73693
1.73692
1.73691
1.7369
1.73689
1.73688
1.73687
1.73686
1.73685
1.73684
1.73683
1.73682
1.73681
1.7368
1.73679
1.73678
1.73678
1.73677
1.73676
1.73675
1.73674
1.73674
1.73673
1.73672
1.73672
1.73671
1.7367
1.7367
1.73669
1.73668
1.73668
1.73667
1.73666
1.73665
1.73665
1.73664
1.73663
1.73662
1.73661
1.7366
1.73659
1.73658
1.73657
1.73656
1.73655
1.73654
1.73652
1.73651
1.73649
1.73648
1.73646
1.73644
1.73642
1.7364
1.73637
1.73635
1.73633
1.7363
1.73627
1.73624
1.73621
1.73617
1.73614
1.7361
1.73607
1.73603
1.73598
1.73594
1.7359
1.73585
1.7358
1.73575
1.7357
1.73565
1.7356
1.73554
1.73549
1.73543
1.73538
1.73532
1.73526
1.73521
1.73515
1.73509
1.73504
1.73498
1.73493
1.73488
1.73483
1.73478
1.73474
1.73469
1.73465
1.73462
1.73458
1.73456
1.73453
1.73451
1.7345
1.73449
1.73449
1.73449
1.7345
1.73452
1.73454
1.73457
1.73461
1.73466
1.73471
1.73478
1.73485
1.73493
1.73502
1.73512
1.73523
1.73535
1.73547
1.73561
1.73576
1.73591
1.73607
1.73625
1.73643
1.73662
1.73681
1.73702
1.73723
1.73744
1.73767
1.73789
1.73813
1.73836
1.7386
1.73884
1.73908
1.73932
1.73957
1.7398
1.74004
1.74027
1.7405
1.74072
1.74093
1.74113
1.74133
1.74151
1.74169
1.74185
1.74199
1.74213
1.74225
1.74235
1.74244
1.74252
1.74257
1.74261
1.74264
1.74264
1.74263
1.74261
1.74256
1.7425
1.74243
1.74234
1.74223
1.74211
1.74198
1.74183
1.74168
1.74151
1.74133
1.74114
1.74094
1.74074
1.74053
1.74032
1.7401
1.73988
1.73965
1.73943
1.7392
1.73897
1.73875
1.73853
1.73831
1.73809
1.73788
1.73768
1.73748
1.73729
1.7371
1.73693
1.73676
1.7366
1.73645
1.73631
1.73618
1.73606
1.73595
1.73586
1.73577
1.7357
1.73564
1.73559
1.73556
1.73554
1.73553
1.73554
1.73556
1.7356
1.73566
1.73573
1.73581
1.73592
1.73604
1.73618
1.73634
1.73652
1.73671
1.73693
1.73718
1.73744
1.73773
1.73805
1.73839
1.73876
1.73915
1.73958
1.74005
1.74053
1.74105
1.74164
1.74224
1.74283
1.74355
1.74436
1.74501
1.74578
1.74699
1.74785
1.74832
1.75013
1.75204
1.7515
1.75313
1.75898
1.75746
1.75415
1.76961
1.77656
1.748
1.78365
1.69872
1.72207
1.73701
1.7308
1.7313
1.73468
1.73489
1.73391
1.73445
1.73503
1.73488
1.73477
1.73497
1.73505
1.73501
1.73501
1.73507
1.73507
1.73507
1.73507
1.73509
1.73508
1.73508
1.73508
1.73508
1.73507
1.73507
1.73506
1.73506
1.73505
1.73504
1.73503
1.73502
1.73501
1.735
1.73499
1.73498
1.73496
1.73495
1.73493
1.73492
1.7349
1.73488
1.73486
1.73485
1.73483
1.73481
1.73479
1.73477
1.73474
1.73472
1.7347
1.73468
1.73465
1.73463
1.73461
1.73459
1.73456
1.73454
1.73452
1.7345
1.73448
1.73447
1.73445
1.73444
1.73442
1.73442
1.73441
1.7344
1.7344
1.7344
1.73441
1.73442
1.73443
1.73445
1.73447
1.73449
1.73452
1.73456
1.73459
1.73464
1.73468
1.73474
1.73479
1.73485
1.73491
1.73498
1.73505
1.73512
1.7352
1.73528
1.73536
1.73544
1.73552
1.73561
1.73569
1.73578
1.73586
1.73594
1.73602
1.7361
1.73618
1.73626
1.73633
1.7364
1.73646
1.73653
1.73659
1.73665
1.7367
1.73675
1.73679
1.73684
1.73687
1.73691
1.73694
1.73697
1.73699
1.73702
1.73704
1.73705
1.73707
1.73708
1.73709
1.73709
1.7371
1.7371
1.7371
1.7371
1.7371
1.7371
1.73709
1.73709
1.73708
1.73707
1.73707
1.73706
1.73705
1.73704
1.73703
1.73702
1.73701
1.737
1.73698
1.73697
1.73696
1.73695
1.73694
1.73693
1.73692
1.73691
1.73689
1.73688
1.73687
1.73686
1.73685
1.73684
1.73683
1.73682
1.73681
1.7368
1.73679
1.73679
1.73678
1.73677
1.73676
1.73675
1.73675
1.73674
1.73673
1.73673
1.73672
1.73671
1.7367
1.7367
1.73669
1.73668
1.73668
1.73667
1.73666
1.73666
1.73665
1.73664
1.73663
1.73663
1.73662
1.73661
1.7366
1.73659
1.73658
1.73657
1.73656
1.73655
1.73653
1.73652
1.7365
1.73649
1.73647
1.73645
1.73643
1.73641
1.73639
1.73637
1.73635
1.73632
1.73629
1.73626
1.73623
1.7362
1.73617
1.73613
1.7361
1.73606
1.73602
1.73598
1.73593
1.73589
1.73584
1.7358
1.73575
1.7357
1.73564
1.73559
1.73554
1.73548
1.73543
1.73537
1.73531
1.73526
1.7352
1.73514
1.73509
1.73503
1.73498
1.73493
1.73487
1.73482
1.73478
1.73473
1.73469
1.73465
1.73461
1.73458
1.73455
1.73453
1.73451
1.7345
1.73449
1.73449
1.73449
1.7345
1.73452
1.73454
1.73458
1.73462
1.73466
1.73472
1.73478
1.73486
1.73494
1.73503
1.73513
1.73524
1.73536
1.73549
1.73562
1.73577
1.73592
1.73609
1.73626
1.73644
1.73663
1.73683
1.73703
1.73724
1.73746
1.73769
1.73791
1.73815
1.73838
1.73862
1.73886
1.7391
1.73934
1.73958
1.73982
1.74006
1.74029
1.74051
1.74073
1.74094
1.74114
1.74134
1.74152
1.74169
1.74185
1.742
1.74213
1.74225
1.74235
1.74244
1.74251
1.74257
1.74261
1.74263
1.74263
1.74262
1.74259
1.74255
1.74249
1.74241
1.74232
1.74221
1.74209
1.74196
1.74181
1.74165
1.74148
1.7413
1.74112
1.74092
1.74072
1.74051
1.74029
1.74007
1.73985
1.73963
1.7394
1.73918
1.73895
1.73873
1.73851
1.73829
1.73808
1.73787
1.73766
1.73746
1.73727
1.73709
1.73691
1.73675
1.73659
1.73644
1.7363
1.73617
1.73606
1.73595
1.73585
1.73577
1.7357
1.73564
1.73559
1.73556
1.73554
1.73554
1.73555
1.73557
1.73561
1.73567
1.73574
1.73583
1.73593
1.73605
1.73619
1.73636
1.73654
1.73674
1.73696
1.7372
1.73747
1.73776
1.73808
1.73842
1.73879
1.7392
1.73963
1.74008
1.74058
1.74111
1.74168
1.74227
1.74293
1.74363
1.74433
1.74512
1.74602
1.74689
1.74776
1.74892
1.75021
1.75115
1.75242
1.75466
1.75647
1.75685
1.76041
1.76656
1.76748
1.76414
1.78858
1.75084
1.72306
1.71329
1.73635
1.73908
1.72984
1.73161
1.73614
1.73493
1.7334
1.73454
1.73522
1.7347
1.73459
1.73496
1.735
1.73487
1.73492
1.73501
1.73499
1.73498
1.735
1.73502
1.73501
1.73501
1.73501
1.73501
1.73501
1.73501
1.735
1.735
1.73499
1.73498
1.73497
1.73496
1.73495
1.73494
1.73493
1.73492
1.7349
1.73489
1.73487
1.73486
1.73484
1.73482
1.7348
1.73479
1.73476
1.73474
1.73472
1.7347
1.73468
1.73466
1.73463
1.73461
1.73459
1.73457
1.73455
1.73453
1.7345
1.73449
1.73447
1.73445
1.73443
1.73442
1.73441
1.7344
1.73439
1.73439
1.73439
1.73439
1.7344
1.73441
1.73442
1.73444
1.73446
1.73448
1.73451
1.73455
1.73459
1.73463
1.73468
1.73473
1.73479
1.73485
1.73491
1.73498
1.73505
1.73512
1.7352
1.73528
1.73536
1.73544
1.73552
1.73561
1.73569
1.73578
1.73586
1.73594
1.73603
1.73611
1.73618
1.73626
1.73633
1.7364
1.73647
1.73653
1.73659
1.73665
1.7367
1.73675
1.73679
1.73684
1.73687
1.73691
1.73694
1.73697
1.73699
1.73701
1.73703
1.73705
1.73706
1.73707
1.73708
1.73709
1.73709
1.7371
1.7371
1.7371
1.73709
1.73709
1.73709
1.73708
1.73707
1.73707
1.73706
1.73705
1.73704
1.73703
1.73702
1.73701
1.737
1.73699
1.73698
1.73697
1.73695
1.73694
1.73693
1.73692
1.73691
1.7369
1.73689
1.73688
1.73687
1.73686
1.73685
1.73684
1.73683
1.73682
1.73681
1.7368
1.73679
1.73678
1.73677
1.73676
1.73676
1.73675
1.73674
1.73673
1.73673
1.73672
1.73671
1.73671
1.7367
1.73669
1.73669
1.73668
1.73667
1.73667
1.73666
1.73665
1.73665
1.73664
1.73663
1.73662
1.73661
1.73661
1.7366
1.73659
1.73658
1.73657
1.73655
1.73654
1.73653
1.73651
1.7365
1.73648
1.73647
1.73645
1.73643
1.73641
1.73639
1.73637
1.73634
1.73632
1.73629
1.73626
1.73623
1.7362
1.73616
1.73613
1.73609
1.73605
1.73601
1.73597
1.73593
1.73588
1.73584
1.73579
1.73574
1.73569
1.73564
1.73559
1.73553
1.73548
1.73542
1.73536
1.73531
1.73525
1.73519
1.73514
1.73508
1.73503
1.73497
1.73492
1.73487
1.73482
1.73477
1.73472
1.73468
1.73464
1.73461
1.73458
1.73455
1.73452
1.73451
1.73449
1.73448
1.73448
1.73449
1.7345
1.73452
1.73454
1.73457
1.73461
1.73466
1.73472
1.73478
1.73486
1.73494
1.73503
1.73513
1.73524
1.73536
1.73549
1.73563
1.73577
1.73593
1.73609
1.73627
1.73645
1.73664
1.73684
1.73704
1.73726
1.73747
1.7377
1.73793
1.73816
1.7384
1.73864
1.73888
1.73912
1.73936
1.7396
1.73984
1.74008
1.74031
1.74053
1.74075
1.74096
1.74116
1.74136
1.74154
1.74171
1.74187
1.74202
1.74215
1.74226
1.74237
1.74245
1.74252
1.74258
1.74261
1.74263
1.74264
1.74262
1.74259
1.74255
1.74248
1.7424
1.74231
1.7422
1.74208
1.74194
1.7418
1.74164
1.74147
1.74129
1.7411
1.7409
1.7407
1.74049
1.74027
1.74005
1.73983
1.7396
1.73938
1.73915
1.73893
1.7387
1.73848
1.73826
1.73805
1.73784
1.73764
1.73744
1.73725
1.73707
1.73689
1.73673
1.73657
1.73642
1.73628
1.73616
1.73604
1.73593
1.73584
1.73576
1.73569
1.73563
1.73558
1.73555
1.73553
1.73553
1.73554
1.73557
1.73561
1.73566
1.73573
1.73582
1.73593
1.73605
1.73619
1.73635
1.73654
1.73674
1.73696
1.73721
1.73747
1.73777
1.73809
1.73843
1.7388
1.7392
1.73963
1.74009
1.74059
1.74113
1.74167
1.74228
1.74297
1.74362
1.74429
1.7452
1.74608
1.74669
1.7478
1.74931
1.74976
1.75057
1.7537
1.7547
1.75313
1.75883
1.76538
1.75668
1.7598
1.78803
1.77786
1.73353
1.73016
1.73051
1.73315
1.7314
1.7328
1.73452
1.73386
1.73361
1.73443
1.73467
1.73442
1.73453
1.73477
1.73478
1.73474
1.73482
1.73488
1.73488
1.73489
1.73492
1.73494
1.73494
1.73495
1.73496
1.73496
1.73496
1.73496
1.73496
1.73496
1.73495
1.73495
1.73494
1.73494
1.73493
1.73492
1.73491
1.7349
1.73489
1.73488
1.73486
1.73485
1.73483
1.73482
1.7348
1.73478
1.73476
1.73474
1.73472
1.7347
1.73468
1.73466
1.73464
1.73462
1.73459
1.73457
1.73455
1.73453
1.73451
1.73449
1.73447
1.73445
1.73443
1.73442
1.73441
1.73439
1.73439
1.73438
1.73438
1.73437
1.73438
1.73438
1.73439
1.73441
1.73442
1.73445
1.73447
1.7345
1.73454
1.73458
1.73462
1.73467
1.73472
1.73478
1.73484
1.7349
1.73497
1.73504
1.73512
1.7352
1.73528
1.73536
1.73544
1.73553
1.73561
1.7357
1.73578
1.73586
1.73595
1.73603
1.73611
1.73619
1.73626
1.73634
1.73641
1.73647
1.73653
1.73659
1.73665
1.7367
1.73675
1.7368
1.73684
1.73688
1.73691
1.73694
1.73697
1.73699
1.73701
1.73703
1.73705
1.73706
1.73707
1.73708
1.73709
1.73709
1.73709
1.73709
1.73709
1.73709
1.73709
1.73708
1.73708
1.73707
1.73706
1.73705
1.73704
1.73703
1.73702
1.73701
1.737
1.73699
1.73698
1.73697
1.73696
1.73695
1.73694
1.73692
1.73691
1.7369
1.73689
1.73688
1.73687
1.73686
1.73685
1.73684
1.73683
1.73682
1.73681
1.7368
1.73679
1.73678
1.73677
1.73677
1.73676
1.73675
1.73674
1.73674
1.73673
1.73672
1.73671
1.73671
1.7367
1.73669
1.73669
1.73668
1.73667
1.73667
1.73666
1.73665
1.73665
1.73664
1.73663
1.73663
1.73662
1.73661
1.7366
1.73659
1.73658
1.73657
1.73656
1.73655
1.73654
1.73652
1.73651
1.7365
1.73648
1.73646
1.73645
1.73643
1.73641
1.73639
1.73636
1.73634
1.73631
1.73629
1.73626
1.73623
1.7362
1.73616
1.73613
1.73609
1.73605
1.73601
1.73597
1.73593
1.73588
1.73583
1.73579
1.73574
1.73569
1.73563
1.73558
1.73553
1.73547
1.73541
1.73536
1.7353
1.73524
1.73519
1.73513
1.73507
1.73502
1.73496
1.73491
1.73486
1.73481
1.73476
1.73471
1.73467
1.73463
1.7346
1.73456
1.73454
1.73451
1.73449
1.73448
1.73447
1.73447
1.73448
1.73449
1.7345
1.73453
1.73456
1.7346
1.73465
1.73471
1.73477
1.73485
1.73493
1.73502
1.73512
1.73523
1.73535
1.73548
1.73562
1.73577
1.73592
1.73609
1.73627
1.73645
1.73664
1.73684
1.73705
1.73726
1.73748
1.73771
1.73794
1.73817
1.73841
1.73865
1.73889
1.73914
1.73938
1.73962
1.73986
1.7401
1.74033
1.74055
1.74077
1.74099
1.74119
1.74138
1.74157
1.74174
1.7419
1.74204
1.74217
1.74229
1.74239
1.74248
1.74255
1.7426
1.74263
1.74265
1.74265
1.74264
1.74261
1.74256
1.74249
1.74241
1.74232
1.74221
1.74208
1.74194
1.74179
1.74163
1.74146
1.74128
1.74108
1.74089
1.74068
1.74047
1.74025
1.74003
1.73981
1.73958
1.73935
1.73913
1.7389
1.73868
1.73845
1.73824
1.73802
1.73781
1.73761
1.73741
1.73722
1.73704
1.73687
1.7367
1.73654
1.73639
1.73626
1.73613
1.73601
1.73591
1.73581
1.73573
1.73566
1.73561
1.73556
1.73553
1.73551
1.73551
1.73552
1.73555
1.73559
1.73564
1.73571
1.7358
1.73591
1.73603
1.73617
1.73633
1.73652
1.73672
1.73694
1.73718
1.73745
1.73775
1.73806
1.73841
1.73878
1.73918
1.73961
1.74007
1.74056
1.74109
1.74166
1.74226
1.74289
1.74359
1.74433
1.74508
1.74591
1.74685
1.74775
1.74873
1.74995
1.75111
1.75228
1.75395
1.75553
1.75687
1.75951
1.76231
1.76335
1.76929
1.76774
1.72212
1.73441
1.74001
1.72846
1.72876
1.7365
1.73486
1.73185
1.73384
1.73525
1.7342
1.73396
1.73471
1.73481
1.73453
1.73464
1.73483
1.7348
1.73477
1.73484
1.73488
1.73487
1.73487
1.7349
1.73491
1.73491
1.73491
1.73492
1.73492
1.73492
1.73492
1.73491
1.73491
1.7349
1.7349
1.73489
1.73488
1.73487
1.73486
1.73485
1.73484
1.73482
1.73481
1.73479
1.73478
1.73476
1.73474
1.73472
1.7347
1.73468
1.73466
1.73464
1.73462
1.7346
1.73458
1.73456
1.73453
1.73451
1.73449
1.73447
1.73445
1.73443
1.73442
1.7344
1.73439
1.73438
1.73437
1.73436
1.73436
1.73436
1.73436
1.73437
1.73438
1.73439
1.73441
1.73443
1.73446
1.73449
1.73452
1.73456
1.73461
1.73466
1.73471
1.73477
1.73483
1.7349
1.73497
1.73504
1.73511
1.73519
1.73527
1.73536
1.73544
1.73553
1.73561
1.7357
1.73578
1.73587
1.73595
1.73603
1.73612
1.73619
1.73627
1.73634
1.73641
1.73648
1.73654
1.7366
1.73666
1.73671
1.73676
1.7368
1.73684
1.73688
1.73691
1.73694
1.73697
1.73699
1.73701
1.73703
1.73705
1.73706
1.73707
1.73708
1.73708
1.73709
1.73709
1.73709
1.73709
1.73709
1.73708
1.73708
1.73707
1.73706
1.73706
1.73705
1.73704
1.73703
1.73702
1.73701
1.737
1.73699
1.73697
1.73696
1.73695
1.73694
1.73693
1.73692
1.73691
1.73689
1.73688
1.73687
1.73686
1.73685
1.73684
1.73683
1.73682
1.73681
1.7368
1.73679
1.73678
1.73678
1.73677
1.73676
1.73675
1.73674
1.73674
1.73673
1.73672
1.73671
1.73671
1.7367
1.7367
1.73669
1.73668
1.73668
1.73667
1.73666
1.73666
1.73665
1.73664
1.73664
1.73663
1.73662
1.73661
1.73661
1.7366
1.73659
1.73658
1.73657
1.73656
1.73655
1.73653
1.73652
1.73651
1.73649
1.73648
1.73646
1.73644
1.73642
1.7364
1.73638
1.73636
1.73634
1.73631
1.73628
1.73625
1.73622
1.73619
1.73616
1.73612
1.73609
1.73605
1.73601
1.73597
1.73592
1.73588
1.73583
1.73578
1.73573
1.73568
1.73563
1.73557
1.73552
1.73546
1.73541
1.73535
1.73529
1.73524
1.73518
1.73512
1.73506
1.73501
1.73495
1.7349
1.73485
1.7348
1.73475
1.7347
1.73466
1.73462
1.73458
1.73455
1.73452
1.7345
1.73448
1.73447
1.73446
1.73445
1.73446
1.73447
1.73449
1.73451
1.73454
1.73458
1.73463
1.73469
1.73475
1.73483
1.73491
1.735
1.73511
1.73522
1.73534
1.73547
1.73561
1.73575
1.73591
1.73608
1.73626
1.73644
1.73663
1.73683
1.73704
1.73726
1.73748
1.73771
1.73794
1.73818
1.73842
1.73866
1.7389
1.73915
1.73939
1.73964
1.73988
1.74012
1.74035
1.74058
1.7408
1.74102
1.74122
1.74142
1.7416
1.74177
1.74193
1.74208
1.74221
1.74233
1.74243
1.74251
1.74258
1.74263
1.74267
1.74268
1.74268
1.74267
1.74263
1.74258
1.74251
1.74243
1.74233
1.74222
1.74209
1.74195
1.7418
1.74163
1.74146
1.74127
1.74108
1.74087
1.74067
1.74045
1.74023
1.74001
1.73978
1.73956
1.73933
1.7391
1.73887
1.73865
1.73842
1.73821
1.73799
1.73778
1.73758
1.73738
1.73719
1.73701
1.73683
1.73666
1.73651
1.73636
1.73622
1.7361
1.73598
1.73587
1.73578
1.7357
1.73563
1.73557
1.73553
1.7355
1.73548
1.73548
1.73549
1.73551
1.73555
1.73561
1.73568
1.73577
1.73587
1.736
1.73614
1.7363
1.73648
1.73668
1.7369
1.73714
1.73741
1.7377
1.73801
1.73836
1.73873
1.73912
1.73955
1.74001
1.7405
1.74101
1.7416
1.74219
1.74279
1.7435
1.74428
1.74492
1.74572
1.74684
1.74762
1.7482
1.74989
1.75138
1.75106
1.75283
1.75715
1.75596
1.75378
1.7637
1.7676
1.75554
1.76127
1.73462
1.73227
1.73062
1.73288
1.73538
1.733
1.73216
1.73451
1.73478
1.73365
1.73401
1.73475
1.73456
1.73435
1.73461
1.73476
1.73468
1.73469
1.73479
1.73481
1.73479
1.73482
1.73485
1.73486
1.73486
1.73487
1.73488
1.73488
1.73488
1.73489
1.73489
1.73488
1.73488
1.73488
1.73487
1.73487
1.73486
1.73485
1.73484
1.73483
1.73482
1.7348
1.73479
1.73477
1.73476
1.73474
1.73473
1.73471
1.73469
1.73467
1.73465
1.73463
1.73461
1.73458
1.73456
1.73454
1.73452
1.7345
1.73448
1.73446
1.73444
1.73442
1.7344
1.73439
1.73437
1.73436
1.73435
1.73435
1.73434
1.73434
1.73435
1.73435
1.73436
1.73438
1.73439
1.73442
1.73444
1.73447
1.73451
1.73455
1.7346
1.73464
1.7347
1.73476
1.73482
1.73489
1.73496
1.73503
1.73511
1.73519
1.73527
1.73535
1.73544
1.73552
1.73561
1.7357
1.73579
1.73587
1.73596
1.73604
1.73612
1.7362
1.73628
1.73635
1.73642
1.73648
1.73655
1.73661
1.73666
1.73671
1.73676
1.73681
1.73685
1.73688
1.73692
1.73695
1.73697
1.737
1.73702
1.73703
1.73705
1.73706
1.73707
1.73708
1.73708
1.73708
1.73709
1.73709
1.73708
1.73708
1.73708
1.73707
1.73707
1.73706
1.73705
1.73704
1.73703
1.73702
1.73701
1.737
1.73699
1.73698
1.73697
1.73696
1.73694
1.73693
1.73692
1.73691
1.7369
1.73689
1.73688
1.73687
1.73686
1.73684
1.73683
1.73682
1.73681
1.7368
1.7368
1.73679
1.73678
1.73677
1.73676
1.73675
1.73674
1.73674
1.73673
1.73672
1.73672
1.73671
1.7367
1.7367
1.73669
1.73668
1.73668
1.73667
1.73666
1.73666
1.73665
1.73664
1.73664
1.73663
1.73662
1.73662
1.73661
1.7366
1.73659
1.73658
1.73657
1.73656
1.73655
1.73654
1.73653
1.73652
1.7365
1.73649
1.73647
1.73646
1.73644
1.73642
1.7364
1.73638
1.73636
1.73633
1.73631
1.73628
1.73625
1.73622
1.73619
1.73616
1.73612
1.73608
1.73605
1.736
1.73596
1.73592
1.73587
1.73583
1.73578
1.73573
1.73568
1.73562
1.73557
1.73551
1.73546
1.7354
1.73534
1.73529
1.73523
1.73517
1.73511
1.73506
1.735
1.73494
1.73489
1.73484
1.73478
1.73473
1.73469
1.73464
1.7346
1.73457
1.73453
1.7345
1.73448
1.73446
1.73445
1.73444
1.73443
1.73444
1.73445
1.73446
1.73449
1.73452
1.73456
1.73461
1.73467
1.73473
1.73481
1.73489
1.73498
1.73508
1.73519
1.73531
1.73544
1.73558
1.73573
1.73589
1.73606
1.73624
1.73642
1.73662
1.73682
1.73703
1.73725
1.73747
1.7377
1.73793
1.73817
1.73842
1.73866
1.73891
1.73916
1.73941
1.73965
1.7399
1.74014
1.74038
1.74061
1.74083
1.74105
1.74126
1.74145
1.74164
1.74181
1.74197
1.74212
1.74225
1.74237
1.74247
1.74256
1.74262
1.74267
1.74271
1.74272
1.74272
1.7427
1.74266
1.74261
1.74254
1.74245
1.74235
1.74224
1.7421
1.74196
1.7418
1.74164
1.74146
1.74127
1.74107
1.74087
1.74065
1.74044
1.74022
1.73999
1.73976
1.73953
1.7393
1.73907
1.73884
1.73861
1.73839
1.73817
1.73795
1.73774
1.73754
1.73734
1.73715
1.73697
1.73679
1.73662
1.73647
1.73632
1.73618
1.73606
1.73594
1.73583
1.73574
1.73566
1.73559
1.73553
1.73549
1.73546
1.73544
1.73544
1.73545
1.73547
1.73551
1.73556
1.73564
1.73572
1.73583
1.73595
1.73609
1.73625
1.73642
1.73662
1.73684
1.73708
1.73735
1.73763
1.73795
1.73828
1.73865
1.73904
1.73946
1.73992
1.74041
1.74092
1.74146
1.74207
1.7427
1.74334
1.74405
1.74486
1.7456
1.74637
1.74743
1.74839
1.74906
1.75039
1.75201
1.75242
1.75332
1.7564
1.75751
1.75696
1.75999
1.76096
1.76156
1.73766
1.73216
1.73005
1.73557
1.73498
1.73145
1.73356
1.73535
1.7338
1.73351
1.73466
1.73469
1.73421
1.73444
1.73475
1.73464
1.73459
1.73472
1.73478
1.73474
1.73476
1.73481
1.73482
1.73482
1.73484
1.73485
1.73485
1.73485
1.73486
1.73486
1.73486
1.73486
1.73486
1.73486
1.73485
1.73485
1.73484
1.73483
1.73482
1.73481
1.7348
1.73479
1.73477
1.73476
1.73474
1.73473
1.73471
1.73469
1.73467
1.73465
1.73463
1.73461
1.73459
1.73457
1.73455
1.73453
1.73451
1.73448
1.73446
1.73444
1.73442
1.73441
1.73439
1.73437
1.73436
1.73435
1.73434
1.73433
1.73433
1.73433
1.73433
1.73434
1.73435
1.73436
1.73438
1.7344
1.73443
1.73446
1.7345
1.73454
1.73458
1.73463
1.73469
1.73475
1.73481
1.73488
1.73495
1.73502
1.7351
1.73518
1.73527
1.73535
1.73544
1.73552
1.73561
1.7357
1.73579
1.73587
1.73596
1.73604
1.73613
1.73621
1.73628
1.73635
1.73643
1.73649
1.73656
1.73661
1.73667
1.73672
1.73677
1.73681
1.73685
1.73689
1.73692
1.73695
1.73698
1.737
1.73702
1.73703
1.73705
1.73706
1.73707
1.73708
1.73708
1.73708
1.73708
1.73708
1.73708
1.73708
1.73707
1.73707
1.73706
1.73705
1.73704
1.73703
1.73703
1.73701
1.737
1.73699
1.73698
1.73697
1.73696
1.73695
1.73694
1.73693
1.73691
1.7369
1.73689
1.73688
1.73687
1.73686
1.73685
1.73684
1.73683
1.73682
1.73681
1.7368
1.73679
1.73678
1.73677
1.73676
1.73675
1.73675
1.73674
1.73673
1.73672
1.73672
1.73671
1.7367
1.7367
1.73669
1.73668
1.73668
1.73667
1.73666
1.73666
1.73665
1.73664
1.73664
1.73663
1.73663
1.73662
1.73661
1.7366
1.7366
1.73659
1.73658
1.73657
1.73656
1.73655
1.73654
1.73653
1.73651
1.7365
1.73649
1.73647
1.73646
1.73644
1.73642
1.7364
1.73638
1.73636
1.73633
1.73631
1.73628
1.73625
1.73622
1.73619
1.73615
1.73612
1.73608
1.73604
1.736
1.73596
1.73592
1.73587
1.73582
1.73577
1.73572
1.73567
1.73562
1.73557
1.73551
1.73545
1.7354
1.73534
1.73528
1.73522
1.73516
1.7351
1.73505
1.73499
1.73493
1.73488
1.73482
1.73477
1.73472
1.73467
1.73463
1.73459
1.73455
1.73451
1.73448
1.73446
1.73444
1.73442
1.73441
1.73441
1.73441
1.73442
1.73444
1.73446
1.73449
1.73453
1.73458
1.73464
1.7347
1.73478
1.73486
1.73495
1.73505
1.73516
1.73528
1.73542
1.73556
1.73571
1.73587
1.73603
1.73621
1.7364
1.7366
1.7368
1.73701
1.73723
1.73746
1.73769
1.73793
1.73817
1.73841
1.73866
1.73891
1.73916
1.73942
1.73967
1.73991
1.74016
1.7404
1.74063
1.74086
1.74108
1.74129
1.74149
1.74168
1.74186
1.74202
1.74217
1.7423
1.74242
1.74252
1.7426
1.74267
1.74272
1.74275
1.74277
1.74276
1.74274
1.7427
1.74265
1.74257
1.74248
1.74238
1.74226
1.74212
1.74198
1.74182
1.74164
1.74146
1.74127
1.74107
1.74086
1.74064
1.74042
1.7402
1.73997
1.73974
1.73951
1.73927
1.73904
1.73881
1.73858
1.73835
1.73813
1.73791
1.7377
1.7375
1.7373
1.73711
1.73692
1.73675
1.73658
1.73642
1.73627
1.73614
1.73601
1.73589
1.73579
1.73569
1.73561
1.73554
1.73548
1.73544
1.73541
1.73539
1.73539
1.7354
1.73542
1.73546
1.73551
1.73558
1.73567
1.73577
1.73589
1.73603
1.73618
1.73636
1.73655
1.73677
1.73701
1.73727
1.73755
1.73786
1.73819
1.73855
1.73894
1.73935
1.73979
1.74028
1.74079
1.74132
1.74189
1.74255
1.74317
1.7438
1.74463
1.74544
1.74602
1.74697
1.74828
1.74876
1.7493
1.75155
1.75276
1.75162
1.75405
1.75833
1.75543
1.75466
1.76191
1.75958
1.73187
1.73409
1.73553
1.73308
1.73201
1.73468
1.73509
1.73316
1.73364
1.73496
1.73449
1.73398
1.73451
1.73478
1.73452
1.73451
1.73473
1.73474
1.73468
1.73473
1.73479
1.73478
1.73478
1.73481
1.73483
1.73483
1.73483
1.73484
1.73484
1.73484
1.73485
1.73485
1.73484
1.73484
1.73484
1.73483
1.73482
1.73482
1.73481
1.7348
1.73479
1.73477
1.73476
1.73475
1.73473
1.73471
1.7347
1.73468
1.73466
1.73464
1.73462
1.7346
1.73458
1.73456
1.73454
1.73452
1.73449
1.73447
1.73445
1.73443
1.73441
1.7344
1.73438
1.73436
1.73435
1.73434
1.73433
1.73432
1.73432
1.73432
1.73432
1.73432
1.73433
1.73435
1.73437
1.73439
1.73442
1.73445
1.73448
1.73452
1.73457
1.73462
1.73468
1.73474
1.7348
1.73487
1.73494
1.73502
1.7351
1.73518
1.73526
1.73535
1.73543
1.73552
1.73561
1.7357
1.73579
1.73588
1.73596
1.73605
1.73613
1.73621
1.73629
1.73636
1.73643
1.7365
1.73656
1.73662
1.73668
1.73673
1.73677
1.73682
1.73686
1.73689
1.73693
1.73695
1.73698
1.737
1.73702
1.73704
1.73705
1.73706
1.73707
1.73707
1.73708
1.73708
1.73708
1.73708
1.73708
1.73707
1.73707
1.73706
1.73705
1.73705
1.73704
1.73703
1.73702
1.73701
1.737
1.73699
1.73698
1.73696
1.73695
1.73694
1.73693
1.73692
1.73691
1.73689
1.73688
1.73687
1.73686
1.73685
1.73684
1.73683
1.73682
1.73681
1.7368
1.73679
1.73678
1.73677
1.73676
1.73675
1.73675
1.73674
1.73673
1.73672
1.73672
1.73671
1.7367
1.73669
1.73669
1.73668
1.73668
1.73667
1.73666
1.73666
1.73665
1.73664
1.73664
1.73663
1.73663
1.73662
1.73661
1.73661
1.7366
1.73659
1.73658
1.73657
1.73657
1.73656
1.73655
1.73654
1.73652
1.73651
1.7365
1.73648
1.73647
1.73645
1.73644
1.73642
1.7364
1.73638
1.73635
1.73633
1.7363
1.73628
1.73625
1.73622
1.73619
1.73615
1.73612
1.73608
1.73604
1.736
1.73596
1.73591
1.73587
1.73582
1.73577
1.73572
1.73567
1.73562
1.73556
1.7355
1.73545
1.73539
1.73533
1.73527
1.73521
1.73515
1.73509
1.73503
1.73498
1.73492
1.73486
1.73481
1.73476
1.7347
1.73466
1.73461
1.73457
1.73453
1.73449
1.73446
1.73444
1.73442
1.7344
1.73439
1.73438
1.73439
1.73439
1.73441
1.73443
1.73446
1.7345
1.73455
1.7346
1.73467
1.73474
1.73482
1.73492
1.73502
1.73513
1.73525
1.73538
1.73552
1.73567
1.73583
1.736
1.73618
1.73637
1.73657
1.73677
1.73699
1.73721
1.73743
1.73767
1.73791
1.73815
1.7384
1.73865
1.73891
1.73916
1.73942
1.73967
1.73993
1.74017
1.74042
1.74066
1.74089
1.74111
1.74132
1.74153
1.74172
1.7419
1.74206
1.74221
1.74235
1.74247
1.74257
1.74266
1.74272
1.74277
1.7428
1.74282
1.74281
1.74279
1.74274
1.74269
1.74261
1.74252
1.74241
1.74228
1.74214
1.74199
1.74183
1.74165
1.74147
1.74127
1.74106
1.74085
1.74063
1.74041
1.74018
1.73995
1.73971
1.73948
1.73924
1.73901
1.73877
1.73854
1.73831
1.73809
1.73787
1.73766
1.73745
1.73725
1.73706
1.73687
1.7367
1.73653
1.73637
1.73622
1.73608
1.73596
1.73584
1.73574
1.73564
1.73556
1.73549
1.73543
1.73539
1.73535
1.73534
1.73533
1.73534
1.73536
1.7354
1.73545
1.73552
1.7356
1.7357
1.73582
1.73595
1.73611
1.73628
1.73647
1.73668
1.73692
1.73717
1.73745
1.73775
1.73808
1.73843
1.73881
1.73922
1.73966
1.74011
1.74062
1.74116
1.74171
1.74229
1.74297
1.74363
1.74425
1.74508
1.74597
1.74654
1.74735
1.74872
1.74944
1.74964
1.7514
1.7532
1.7526
1.75338
1.75626
1.75605
1.75553
1.75592
1.73258
1.73442
1.73494
1.73284
1.73366
1.73508
1.7338
1.73349
1.73473
1.73462
1.734
1.73441
1.73477
1.73452
1.73447
1.7347
1.73473
1.73465
1.7347
1.73477
1.73477
1.73476
1.73479
1.73481
1.73481
1.73482
1.73483
1.73483
1.73483
1.73483
1.73484
1.73483
1.73483
1.73483
1.73483
1.73482
1.73481
1.73481
1.7348
1.73479
1.73478
1.73476
1.73475
1.73474
1.73472
1.73471
1.73469
1.73467
1.73465
1.73463
1.73461
1.73459
1.73457
1.73455
1.73453
1.73451
1.73449
1.73447
1.73444
1.73442
1.7344
1.73439
1.73437
1.73435
1.73434
1.73433
1.73432
1.73431
1.73431
1.73431
1.73431
1.73431
1.73432
1.73434
1.73436
1.73438
1.73441
1.73444
1.73447
1.73451
1.73456
1.73461
1.73467
1.73473
1.73479
1.73486
1.73493
1.73501
1.73509
1.73517
1.73526
1.73534
1.73543
1.73552
1.73561
1.7357
1.73579
1.73588
1.73597
1.73605
1.73614
1.73622
1.73629
1.73637
1.73644
1.7365
1.73657
1.73663
1.73668
1.73673
1.73678
1.73682
1.73686
1.7369
1.73693
1.73696
1.73698
1.737
1.73702
1.73704
1.73705
1.73706
1.73707
1.73707
1.73708
1.73708
1.73708
1.73707
1.73707
1.73707
1.73706
1.73706
1.73705
1.73704
1.73703
1.73702
1.73701
1.737
1.73699
1.73698
1.73697
1.73696
1.73694
1.73693
1.73692
1.73691
1.7369
1.73689
1.73687
1.73686
1.73685
1.73684
1.73683
1.73682
1.73681
1.7368
1.73679
1.73678
1.73677
1.73676
1.73675
1.73675
1.73674
1.73673
1.73672
1.73671
1.73671
1.7367
1.73669
1.73669
1.73668
1.73667
1.73667
1.73666
1.73666
1.73665
1.73664
1.73664
1.73663
1.73663
1.73662
1.73661
1.73661
1.7366
1.73659
1.73659
1.73658
1.73657
1.73656
1.73655
1.73654
1.73653
1.73652
1.73651
1.73649
1.73648
1.73647
1.73645
1.73643
1.73641
1.73639
1.73637
1.73635
1.73633
1.7363
1.73628
1.73625
1.73622
1.73618
1.73615
1.73612
1.73608
1.73604
1.736
1.73596
1.73591
1.73587
1.73582
1.73577
1.73572
1.73567
1.73561
1.73556
1.7355
1.73544
1.73538
1.73532
1.73526
1.7352
1.73514
1.73508
1.73502
1.73497
1.73491
1.73485
1.73479
1.73474
1.73469
1.73464
1.73459
1.73455
1.73451
1.73447
1.73444
1.73441
1.73439
1.73437
1.73436
1.73436
1.73436
1.73436
1.73438
1.7344
1.73443
1.73447
1.73451
1.73457
1.73463
1.73471
1.73479
1.73488
1.73498
1.73509
1.73521
1.73534
1.73548
1.73563
1.73579
1.73597
1.73615
1.73633
1.73653
1.73674
1.73696
1.73718
1.73741
1.73765
1.73789
1.73814
1.73839
1.73864
1.7389
1.73916
1.73942
1.73968
1.73993
1.74018
1.74043
1.74068
1.74091
1.74114
1.74136
1.74156
1.74176
1.74194
1.74211
1.74226
1.7424
1.74252
1.74262
1.74271
1.74277
1.74282
1.74285
1.74287
1.74286
1.74283
1.74279
1.74272
1.74264
1.74255
1.74244
1.74231
1.74217
1.74201
1.74184
1.74166
1.74147
1.74127
1.74106
1.74084
1.74062
1.74039
1.74016
1.73992
1.73969
1.73945
1.73921
1.73897
1.73873
1.7385
1.73827
1.73805
1.73782
1.73761
1.7374
1.7372
1.73701
1.73682
1.73664
1.73648
1.73632
1.73617
1.73603
1.7359
1.73579
1.73568
1.73559
1.7355
1.73543
1.73537
1.73533
1.7353
1.73528
1.73527
1.73528
1.7353
1.73533
1.73539
1.73545
1.73553
1.73563
1.73574
1.73588
1.73603
1.73619
1.73638
1.73659
1.73681
1.73706
1.73734
1.73763
1.73795
1.7383
1.73866
1.73906
1.7395
1.73994
1.74042
1.74095
1.74151
1.74205
1.74268
1.74339
1.74399
1.74462
1.74557
1.74635
1.74678
1.74782
1.74921
1.74938
1.74979
1.75208
1.75268
1.75155
1.75415
1.75575
1.75283
1.7541
1.73557
1.73379
1.7329
1.73469
1.73513
1.73339
1.73363
1.73508
1.73456
1.7338
1.7345
1.73488
1.73443
1.7344
1.73475
1.73474
1.7346
1.73469
1.73479
1.73475
1.73474
1.73479
1.73481
1.7348
1.73481
1.73482
1.73483
1.73482
1.73483
1.73483
1.73483
1.73483
1.73483
1.73482
1.73482
1.73481
1.73481
1.7348
1.73479
1.73478
1.73477
1.73476
1.73474
1.73473
1.73472
1.7347
1.73468
1.73467
1.73465
1.73463
1.73461
1.73459
1.73457
1.73455
1.73452
1.7345
1.73448
1.73446
1.73444
1.73442
1.7344
1.73438
1.73436
1.73435
1.73433
1.73432
1.73431
1.73431
1.7343
1.7343
1.7343
1.73431
1.73432
1.73433
1.73435
1.73437
1.7344
1.73443
1.73447
1.73451
1.73455
1.73461
1.73466
1.73472
1.73479
1.73486
1.73493
1.73501
1.73509
1.73517
1.73526
1.73534
1.73543
1.73552
1.73561
1.7357
1.73579
1.73588
1.73597
1.73605
1.73614
1.73622
1.7363
1.73637
1.73644
1.73651
1.73657
1.73663
1.73668
1.73673
1.73678
1.73682
1.73686
1.7369
1.73693
1.73696
1.73698
1.737
1.73702
1.73703
1.73705
1.73706
1.73706
1.73707
1.73707
1.73707
1.73707
1.73707
1.73707
1.73706
1.73706
1.73705
1.73704
1.73703
1.73702
1.73701
1.737
1.73699
1.73698
1.73697
1.73696
1.73695
1.73694
1.73692
1.73691
1.7369
1.73689
1.73688
1.73687
1.73686
1.73684
1.73683
1.73682
1.73681
1.7368
1.73679
1.73678
1.73677
1.73676
1.73675
1.73675
1.73674
1.73673
1.73672
1.73671
1.73671
1.7367
1.73669
1.73669
1.73668
1.73667
1.73667
1.73666
1.73666