# vtk DataFile Version 2.0
LBE two cylinders
ASCII
DATASET STRUCTURED_POINTS
DIMENSIONS 400 100 1
ASPECT_RATIO 1 1 1
ORIGIN 0 0 0
POINT_DATA 40000
SCALARS rho double 1
LOOKUP_TABLE default
1.67913
1.73486
1.7489
1.72785
1.72888
1.73787
1.73648
1.73318
1.73466
1.73602
1.73517
1.73476
1.73529
1.73541
1.73515
1.73516
1.73529
1.73526
1.7352
1.73522
1.73525
1.73522
1.73521
1.73522
1.73521
1.7352
1.7352
1.73519
1.73518
1.73517
1.73517
1.73515
1.73515
1.73513
1.73512
1.73511
1.7351
1.73508
1.73507
1.73506
1.73504
1.73502
1.73501
1.73499
1.73497
1.73495
1.73493
1.7349
1.73488
1.73486
1.73484
1.73481
1.73479
1.73476
1.73474
1.73471
1.73468
1.73466
1.73463
1.73461
1.73459
1.73456
1.73454
1.73452
1.73451
1.73449
1.73448
1.73446
1.73446
1.73445
1.73445
1.73445
1.73445
1.73446
1.73448
1.73449
1.73451
1.73454
1.73457
1.7346
1.73464
1.73469
1.73473
1.73479
1.73484
1.7349
1.73497
1.73504
1.73511
1.73518
1.73526
1.73534
1.73542
1.7355
1.73558
1.73567
1.73575
1.73583
1.73591
1.73599
1.73607
1.73615
1.73623
1.7363
1.73637
1.73644
1.7365
1.73656
1.73662
1.73667
1.73672
1.73677
1.73681
1.73685
1.73688
1.73691
1.73694
1.73697
1.73699
1.73701
1.73703
1.73704
1.73705
1.73706
1.73707
1.73708
1.73708
1.73708
1.73708
1.73708
1.73707
1.73707
1.73706
1.73706
1.73705
1.73704
1.73703
1.73702
1.73701
1.737
1.73699
1.73698
1.73697
1.73695
1.73694
1.73693
1.73692
1.7369
1.73689
1.73688
1.73686
1.73685
1.73684
1.73682
1.73681
1.7368
1.73679
1.73677
1.73676
1.73675
1.73674
1.73672
1.73671
1.7367
1.73669
1.73668
1.73667
1.73665
1.73664
1.73663
1.73662
1.73661
1.7366
1.73659
1.73658
1.73657
1.73656
1.73654
1.73653
1.73652
1.73651
1.7365
1.73649
1.73647
1.73646
1.73645
1.73643
1.73642
1.7364
1.73639
1.73637
1.73635
1.73634
1.73632
1.7363
1.73628
1.73625
1.73623
1.73621
1.73618
1.73616
1.73613
1.7361
1.73607
1.73604
1.736
1.73597
1.73593
1.7359
1.73586
1.73582
1.73578
1.73573
1.73569
1.73564
1.73559
1.73555
1.7355
1.73545
1.73539
1.73534
1.73529
1.73523
1.73518
1.73512
1.73506
1.73501
1.73495
1.7349
1.73484
1.73479
1.73473
1.73468
1.73463
1.73458
1.73453
1.73449
1.73444
1.7344
1.73436
1.73433
1.7343
1.73427
1.73425
1.73424
1.73422
1.73422
1.73422
1.73422
1.73423
1.73425
1.73428
1.73431
1.73435
1.73439
1.73445
1.73451
1.73459
1.73467
1.73476
1.73485
1.73496
1.73508
1.7352
1.73534
1.73548
1.73564
1.7358
1.73597
1.73615
1.73634
1.73653
1.73674
1.73695
1.73717
1.73739
1.73762
1.73785
1.73809
1.73833
1.73857
1.73882
1.73906
1.73931
1.73955
1.73979
1.74003
1.74026
1.74049
1.74071
1.74093
1.74113
1.74133
1.74151
1.74169
1.74185
1.74199
1.74213
1.74225
1.74235
1.74244
1.74251
1.74257
1.7426
1.74263
1.74263
1.74262
1.74259
1.74254
1.74248
1.7424
1.74231
1.7422
1.74208
1.74194
1.7418
1.74164
1.74146
1.74128
1.74109
1.74089
1.74069
1.74048
1.74026
1.74004
1.73982
1.73959
1.73936
1.73913
1.73891
1.73868
1.73846
1.73824
1.73802
1.73781
1.73761
1.73741
1.73722
1.73703
1.73686
1.73669
1.73653
1.73638
1.73624
1.73611
1.73599
1.73589
1.73579
1.73571
1.73564
1.73558
1.73554
1.7355
1.73549
1.73548
1.73549
1.73552
1.73556
1.73562
1.73569
1.73578
1.73589
1.73601
1.73616
1.73632
1.7365
1.7367
1.73693
1.73718
1.73745
1.73774
1.73806
1.73841
1.73879
1.73918
1.73962
1.74009
1.74058
1.7411
1.74169
1.74229
1.74289
1.74361
1.74442
1.74507
1.74584
1.74706
1.74792
1.74838
1.75019
1.7521
1.75156
1.75319
1.75903
1.75751
1.7542
1.76966
1.77661
1.74805
1.7837
1.69876
1.72212
1.73705
1.73085
1.73135
1.73473
1.73494
1.73395
1.7345
1.73508
1.73493
1.73482
1.73502
1.7351
1.73506
1.73507
1.73512
1.73513
1.73512
1.73513
1.73515
1.73514
1.73514
1.73514
1.73515
1.73514
1.73514
1.73513
1.73513
1.73512
1.73512
1.73511
1.7351
1.73509
1.73509
1.73507
1.73507
1.73505
1.73504
1.73502
1.73501
1.73499
1.73498
1.73496
1.73494
1.73492
1.7349
1.73488
1.73486
1.73484
1.73481
1.73479
1.73477
1.73474
1.73472
1.73469
1.73467
1.73464
1.73462
1.73459
1.73457
1.73455
1.73453
1.73451
1.73449
1.73448
1.73446
1.73445
1.73445
1.73444
1.73444
1.73444
1.73445
1.73445
1.73447
1.73449
1.73451
1.73453
1.73456
1.7346
1.73464
1.73468
1.73473
1.73479
1.73484
1.7349
1.73497
1.73504
1.73511
1.73518
1.73526
1.73534
1.73542
1.7355
1.73559
1.73567
1.73575
1.73583
1.73592
1.736
1.73608
1.73615
1.73623
1.7363
1.73637
1.73643
1.7365
1.73656
1.73662
1.73667
1.73672
1.73676
1.73681
1.73684
1.73688
1.73691
1.73694
1.73696
1.73699
1.73701
1.73702
1.73704
1.73705
1.73706
1.73706
1.73707
1.73707
1.73707
1.73707
1.73707
1.73707
1.73706
1.73706
1.73705
1.73704
1.73703
1.73703
1.73702
1.73701
1.73699
1.73698
1.73697
1.73696
1.73695
1.73693
1.73692
1.73691
1.7369
1.73688
1.73687
1.73686
1.73684
1.73683
1.73682
1.73681
1.73679
1.73678
1.73677
1.73676
1.73674
1.73673
1.73672
1.73671
1.7367
1.73668
1.73667
1.73666
1.73665
1.73664
1.73663
1.73662
1.73661
1.73659
1.73658
1.73657
1.73656
1.73655
1.73654
1.73653
1.73652
1.73651
1.73649
1.73648
1.73647
1.73646
1.73644
1.73643
1.73641
1.7364
1.73638
1.73637
1.73635
1.73633
1.73631
1.73629
1.73627
1.73625
1.73623
1.7362
1.73618
1.73615
1.73612
1.73609
1.73606
1.73603
1.736
1.73596
1.73593
1.73589
1.73585
1.73581
1.73577
1.73573
1.73568
1.73564
1.73559
1.73554
1.73549
1.73544
1.73539
1.73533
1.73528
1.73523
1.73517
1.73511
1.73506
1.735
1.73495
1.73489
1.73484
1.73478
1.73473
1.73467
1.73462
1.73457
1.73453
1.73448
1.73444
1.7344
1.73436
1.73433
1.7343
1.73427
1.73425
1.73424
1.73422
1.73422
1.73422
1.73422
1.73423
1.73425
1.73428
1.73431
1.73435
1.7344
1.73446
1.73452
1.73459
1.73467
1.73476
1.73486
1.73497
1.73509
1.73522
1.73535
1.7355
1.73565
1.73581
1.73599
1.73617
1.73636
1.73655
1.73676
1.73697
1.73718
1.73741
1.73764
1.73787
1.73811
1.73835
1.73859
1.73884
1.73908
1.73933
1.73957
1.73981
1.74005
1.74028
1.74051
1.74073
1.74094
1.74114
1.74134
1.74152
1.74169
1.74185
1.742
1.74213
1.74225
1.74235
1.74244
1.74251
1.74256
1.7426
1.74262
1.74262
1.74261
1.74257
1.74253
1.74246
1.74238
1.74229
1.74218
1.74206
1.74192
1.74177
1.74161
1.74144
1.74126
1.74107
1.74087
1.74066
1.74045
1.74023
1.74001
1.73979
1.73956
1.73934
1.73911
1.73888
1.73866
1.73844
1.73822
1.738
1.7378
1.73759
1.73739
1.7372
1.73702
1.73684
1.73668
1.73652
1.73637
1.73623
1.73611
1.73599
1.73588
1.73579
1.73571
1.73564
1.73558
1.73554
1.73551
1.73549
1.73549
1.7355
1.73553
1.73557
1.73563
1.7357
1.73579
1.7359
1.73603
1.73617
1.73634
1.73652
1.73673
1.73695
1.7372
1.73748
1.73777
1.73809
1.73844
1.73882
1.73922
1.73966
1.74012
1.74062
1.74116
1.74173
1.74232
1.74299
1.74369
1.74439
1.74518
1.74608
1.74695
1.74783
1.74898
1.75027
1.75121
1.75248
1.75472
1.75652
1.7569
1.76046
1.76661
1.76753
1.76419
1.78863
1.75088
1.7231
1.71334
1.7364
1.73913
1.72988
1.73166
1.73618
1.73497
1.73345
1.73459
1.73527
1.73475
1.73464
1.73501
1.73505
1.73493
1.73497
1.73507
1.73505
1.73504
1.73506
1.73508
1.73507
1.73508
1.73508
1.73508
1.73508
1.73508
1.73508
1.73507
1.73507
1.73506
1.73506
1.73505
1.73504
1.73503
1.73502
1.73501
1.735
1.73498
1.73497
1.73495
1.73493
1.73492
1.7349
1.73488
1.73486
1.73484
1.73481
1.73479
1.73477
1.73475
1.73472
1.7347
1.73467
1.73465
1.73462
1.7346
1.73458
1.73455
1.73453
1.73451
1.73449
1.73448
1.73446
1.73445
1.73444
1.73443
1.73443
1.73443
1.73443
1.73443
1.73444
1.73446
1.73448
1.7345
1.73452
1.73456
1.73459
1.73463
1.73468
1.73473
1.73478
1.73484
1.7349
1.73497
1.73504
1.73511
1.73518
1.73526
1.73534
1.73542
1.7355
1.73559
1.73567
1.73575
1.73584
1.73592
1.736
1.73608
1.73616
1.73623
1.7363
1.73637
1.73644
1.7365
1.73656
1.73662
1.73667
1.73672
1.73676
1.7368
1.73684
1.73688
1.73691
1.73694
1.73696
1.73698
1.737
1.73702
1.73703
1.73704
1.73705
1.73706
1.73706
1.73707
1.73707
1.73707
1.73706
1.73706
1.73706
1.73705
1.73704
1.73704
1.73703
1.73702
1.73701
1.737
1.73699
1.73698
1.73696
1.73695
1.73694
1.73693
1.73691
1.7369
1.73689
1.73688
1.73686
1.73685
1.73684
1.73682
1.73681
1.7368
1.73679
1.73677
1.73676
1.73675
1.73674
1.73673
1.73671
1.7367
1.73669
1.73668
1.73667
1.73666
1.73664
1.73663
1.73662
1.73661
1.7366
1.73659
1.73658
1.73657
1.73656
1.73655
1.73653
1.73652
1.73651
1.7365
1.73649
1.73648
1.73646
1.73645
1.73644
1.73642
1.73641
1.73639
1.73638
1.73636
1.73634
1.73633
1.73631
1.73629
1.73627
1.73625
1.73622
1.7362
1.73617
1.73615
1.73612
1.73609
1.73606
1.73603
1.73599
1.73596
1.73592
1.73589
1.73585
1.73581
1.73576
1.73572
1.73568
1.73563
1.73558
1.73553
1.73548
1.73543
1.73538
1.73533
1.73527
1.73522
1.73516
1.73511
1.73505
1.735
1.73494
1.73488
1.73483
1.73477
1.73472
1.73467
1.73462
1.73457
1.73452
1.73447
1.73443
1.73439
1.73435
1.73432
1.73429
1.73427
1.73424
1.73423
1.73422
1.73421
1.73421
1.73422
1.73423
1.73425
1.73427
1.73431
1.73435
1.7344
1.73445
1.73452
1.73459
1.73467
1.73476
1.73486
1.73497
1.73509
1.73522
1.73536
1.7355
1.73566
1.73582
1.73599
1.73617
1.73636
1.73656
1.73677
1.73698
1.7372
1.73742
1.73765
1.73788
1.73812
1.73836
1.73861
1.73885
1.7391
1.73934
1.73959
1.73983
1.74007
1.7403
1.74053
1.74075
1.74096
1.74116
1.74136
1.74154
1.74171
1.74187
1.74202
1.74215
1.74226
1.74236
1.74245
1.74252
1.74257
1.7426
1.74262
1.74262
1.74261
1.74258
1.74253
1.74246
1.74238
1.74228
1.74217
1.74205
1.74191
1.74176
1.7416
1.74142
1.74124
1.74105
1.74085
1.74064
1.74043
1.74021
1.73999
1.73977
1.73954
1.73931
1.73909
1.73886
1.73863
1.73841
1.73819
1.73798
1.73777
1.73757
1.73737
1.73718
1.737
1.73682
1.73666
1.7365
1.73635
1.73621
1.73609
1.73597
1.73587
1.73577
1.73569
1.73563
1.73557
1.73553
1.7355
1.73548
1.73548
1.73549
1.73552
1.73556
1.73562
1.7357
1.73579
1.7359
1.73603
1.73617
1.73634
1.73652
1.73673
1.73696
1.73721
1.73748
1.73778
1.7381
1.73845
1.73882
1.73923
1.73967
1.74013
1.74063
1.74118
1.74172
1.74233
1.74303
1.74368
1.74435
1.74526
1.74614
1.74675
1.74787
1.74938
1.74983
1.75063
1.75375
1.75476
1.75319
1.75889
1.76543
1.75673
1.75985
1.78808
1.77791
1.73358
1.73021
1.73055
1.73319
1.73145
1.73285
1.73457
1.73391
1.73365
1.73448
1.73472
1.73447
1.73458
1.73482
1.73483
1.7348
1.73488
1.73494
1.73494
1.73495
1.73498
1.735
1.735
1.73501
1.73502
1.73503
1.73503
1.73503
1.73503
1.73503
1.73503
1.73503
1.73503
1.73502
1.73501
1.73501
1.735
1.73499
1.73498
1.73497
1.73496
1.73494
1.73493
1.73491
1.73489
1.73488
1.73486
1.73484
1.73482
1.73479
1.73477
1.73475
1.73473
1.7347
1.73468
1.73465
1.73463
1.73461
1.73458
1.73456
1.73454
1.73452
1.7345
1.73448
1.73446
1.73445
1.73443
1.73442
1.73442
1.73441
1.73441
1.73441
1.73442
1.73443
1.73444
1.73446
1.73449
1.73451
1.73455
1.73458
1.73462
1.73467
1.73472
1.73477
1.73483
1.73489
1.73496
1.73503
1.7351
1.73518
1.73526
1.73534
1.73542
1.7355
1.73559
1.73567
1.73576
1.73584
1.73592
1.736
1.73608
1.73616
1.73624
1.73631
1.73638
1.73644
1.73651
1.73656
1.73662
1.73667
1.73672
1.73677
1.73681
1.73684
1.73688
1.73691
1.73694
1.73696
1.73698
1.737
1.73702
1.73703
1.73704
1.73705
1.73706
1.73706
1.73706
1.73706
1.73706
1.73706
1.73706
1.73705
1.73704
1.73704
1.73703
1.73702
1.73701
1.737
1.73699
1.73698
1.73697
1.73696
1.73695
1.73693
1.73692
1.73691
1.7369
1.73688
1.73687
1.73686
1.73684
1.73683
1.73682
1.7368
1.73679
1.73678
1.73677
1.73675
1.73674
1.73673
1.73672
1.73671
1.7367
1.73668
1.73667
1.73666
1.73665
1.73664
1.73663
1.73662
1.73661
1.7366
1.73658
1.73657
1.73656
1.73655
1.73654
1.73653
1.73652
1.73651
1.7365
1.73648
1.73647
1.73646
1.73645
1.73643
1.73642
1.73641
1.73639
1.73637
1.73636
1.73634
1.73632
1.7363
1.73628
1.73626
1.73624
1.73622
1.7362
1.73617
1.73614
1.73612
1.73609
1.73606
1.73602
1.73599
1.73596
1.73592
1.73588
1.73584
1.7358
1.73576
1.73572
1.73567
1.73563
1.73558
1.73553
1.73548
1.73543
1.73538
1.73532
1.73527
1.73521
1.73516
1.7351
1.73505
1.73499
1.73493
1.73488
1.73482
1.73477
1.73471
1.73466
1.73461
1.73456
1.73451
1.73446
1.73442
1.73438
1.73434
1.73431
1.73428
1.73426
1.73423
1.73422
1.73421
1.7342
1.7342
1.73421
1.73422
1.73424
1.73426
1.7343
1.73434
1.73439
1.73444
1.73451
1.73458
1.73466
1.73476
1.73486
1.73497
1.73509
1.73521
1.73535
1.7355
1.73565
1.73582
1.73599
1.73617
1.73636
1.73656
1.73677
1.73698
1.7372
1.73743
1.73766
1.73789
1.73813
1.73838
1.73862
1.73887
1.73912
1.73936
1.73961
1.73985
1.74009
1.74032
1.74055
1.74077
1.74099
1.74119
1.74138
1.74157
1.74174
1.7419
1.74204
1.74217
1.74229
1.74239
1.74247
1.74254
1.74259
1.74263
1.74264
1.74264
1.74262
1.74259
1.74254
1.74247
1.74239
1.74229
1.74218
1.74205
1.74191
1.74175
1.74159
1.74141
1.74123
1.74104
1.74083
1.74062
1.74041
1.74019
1.73997
1.73974
1.73952
1.73929
1.73906
1.73883
1.73861
1.73838
1.73817
1.73795
1.73774
1.73754
1.73734
1.73715
1.73697
1.73679
1.73663
1.73647
1.73632
1.73619
1.73606
1.73595
1.73584
1.73575
1.73567
1.7356
1.73555
1.7355
1.73547
1.73546
1.73546
1.73547
1.7355
1.73554
1.7356
1.73568
1.73577
1.73588
1.73601
1.73615
1.73632
1.7365
1.73671
1.73693
1.73718
1.73746
1.73775
1.73808
1.73843
1.7388
1.73921
1.73964
1.74011
1.7406
1.74113
1.74171
1.74231
1.74295
1.74365
1.74439
1.74514
1.74597
1.74691
1.74782
1.74879
1.75001
1.75117
1.75233
1.75401
1.75559
1.75692
1.75956
1.76235
1.7634
1.76934
1.76779
1.72217
1.73446
1.74006
1.7285
1.72881
1.73655
1.73491
1.7319
1.73389
1.73529
1.73425
1.734
1.73476
1.73486
1.73458
1.73469
1.73489
1.73486
1.73482
1.73489
1.73494
1.73493
1.73494
1.73496
1.73497
1.73497
1.73498
1.73499
1.73499
1.73499
1.73499
1.73499
1.73499
1.73499
1.73498
1.73498
1.73497
1.73496
1.73495
1.73494
1.73493
1.73492
1.7349
1.73489
1.73487
1.73485
1.73484
1.73482
1.7348
1.73478
1.73475
1.73473
1.73471
1.73468
1.73466
1.73464
1.73461
1.73459
1.73457
1.73454
1.73452
1.7345
1.73448
1.73446
1.73445
1.73443
1.73442
1.73441
1.7344
1.7344
1.7344
1.7344
1.7344
1.73441
1.73443
1.73445
1.73447
1.7345
1.73453
1.73457
1.73461
1.73466
1.73471
1.73476
1.73482
1.73489
1.73495
1.73503
1.7351
1.73518
1.73526
1.73534
1.73542
1.7355
1.73559
1.73567
1.73576
1.73584
1.73593
1.73601
1.73609
1.73617
1.73624
1.73631
1.73638
1.73645
1.73651
1.73657
1.73663
1.73668
1.73673
1.73677
1.73681
1.73685
1.73688
1.73691
1.73694
1.73696
1.73698
1.737
1.73702
1.73703
1.73704
1.73705
1.73705
1.73706
1.73706
1.73706
1.73706
1.73705
1.73705
1.73705
1.73704
1.73703
1.73702
1.73701
1.73701
1.737
1.73698
1.73697
1.73696
1.73695
1.73694
1.73693
1.73691
1.7369
1.73689
1.73687
1.73686
1.73685
1.73684
1.73682
1.73681
1.7368
1.73679
1.73677
1.73676
1.73675
1.73674
1.73672
1.73671
1.7367
1.73669
1.73668
1.73667
1.73665
1.73664
1.73663
1.73662
1.73661
1.7366
1.73659
1.73658
1.73657
1.73656
1.73655
1.73654
1.73653
1.73651
1.7365
1.73649
1.73648
1.73647
1.73646
1.73644
1.73643
1.73642
1.7364
1.73639
1.73637
1.73635
1.73634
1.73632
1.7363
1.73628
1.73626
1.73624
1.73622
1.73619
1.73617
1.73614
1.73611
1.73608
1.73605
1.73602
1.73599
1.73595
1.73592
1.73588
1.73584
1.7358
1.73576
1.73571
1.73567
1.73562
1.73557
1.73553
1.73548
1.73542
1.73537
1.73532
1.73526
1.73521
1.73515
1.7351
1.73504
1.73498
1.73492
1.73487
1.73481
1.73476
1.7347
1.73465
1.7346
1.73455
1.7345
1.73445
1.73441
1.73437
1.73433
1.7343
1.73427
1.73424
1.73422
1.7342
1.73419
1.73418
1.73418
1.73419
1.7342
1.73422
1.73425
1.73428
1.73432
1.73437
1.73443
1.73449
1.73457
1.73465
1.73474
1.73484
1.73495
1.73507
1.7352
1.73534
1.73548
1.73564
1.73581
1.73598
1.73616
1.73636
1.73656
1.73676
1.73698
1.7372
1.73743
1.73766
1.7379
1.73814
1.73838
1.73863
1.73888
1.73913
1.73938
1.73963
1.73987
1.74011
1.74035
1.74058
1.7408
1.74102
1.74122
1.74142
1.7416
1.74178
1.74193
1.74208
1.74221
1.74233
1.74243
1.74251
1.74258
1.74263
1.74266
1.74267
1.74267
1.74265
1.74261
1.74256
1.74249
1.7424
1.7423
1.74219
1.74206
1.74191
1.74176
1.74159
1.74141
1.74122
1.74103
1.74082
1.74061
1.74039
1.74017
1.73995
1.73972
1.73949
1.73926
1.73903
1.7388
1.73858
1.73835
1.73813
1.73792
1.73771
1.7375
1.7373
1.73711
1.73693
1.73676
1.73659
1.73643
1.73629
1.73615
1.73603
1.73591
1.73581
1.73571
1.73563
1.73557
1.73551
1.73547
1.73544
1.73542
1.73542
1.73544
1.73546
1.73551
1.73557
1.73564
1.73573
1.73584
1.73597
1.73611
1.73628
1.73646
1.73667
1.73689
1.73714
1.73741
1.73771
1.73803
1.73838
1.73875
1.73915
1.73958
1.74005
1.74054
1.74106
1.74165
1.74225
1.74284
1.74356
1.74434
1.74499
1.74578
1.74691
1.74768
1.74827
1.74996
1.75145
1.75112
1.75288
1.75721
1.75601
1.75383
1.76375
1.76765
1.75559
1.76132
1.73467
1.73231
1.73066
1.73292
1.73543
1.73305
1.73221
1.73455
1.73483
1.7337
1.73406
1.7348
1.73461
1.7344
1.73466
1.73481
1.73473
1.73474
1.73484
1.73487
1.73485
1.73488
1.73491
1.73492
1.73493
1.73494
1.73495
1.73495
1.73496
1.73496
1.73496
1.73496
1.73496
1.73496
1.73496
1.73495
1.73495
1.73494
1.73493
1.73492
1.73491
1.7349
1.73488
1.73487
1.73485
1.73484
1.73482
1.7348
1.73478
1.73476
1.73474
1.73471
1.73469
1.73467
1.73465
1.73462
1.7346
1.73457
1.73455
1.73453
1.73451
1.73448
1.73446
1.73445
1.73443
1.73441
1.7344
1.73439
1.73439
1.73438
1.73438
1.73438
1.73439
1.7344
1.73441
1.73443
1.73446
1.73448
1.73452
1.73456
1.7346
1.73464
1.7347
1.73475
1.73481
1.73488
1.73495
1.73502
1.73509
1.73517
1.73525
1.73533
1.73542
1.7355
1.73559
1.73568
1.73576
1.73585
1.73593
1.73601
1.73609
1.73617
1.73625
1.73632
1.73639
1.73646
1.73652
1.73658
1.73663
1.73668
1.73673
1.73678
1.73682
1.73685
1.73689
1.73692
1.73694
1.73697
1.73699
1.737
1.73702
1.73703
1.73704
1.73705
1.73705
1.73705
1.73706
1.73706
1.73705
1.73705
1.73705
1.73704
1.73703
1.73703
1.73702
1.73701
1.737
1.73699
1.73698
1.73697
1.73696
1.73694
1.73693
1.73692
1.73691
1.73689
1.73688
1.73687
1.73686
1.73684
1.73683
1.73682
1.7368
1.73679
1.73678
1.73677
1.73675
1.73674
1.73673
1.73672
1.73671
1.73669
1.73668
1.73667
1.73666
1.73665
1.73664
1.73663
1.73662
1.73661
1.73659
1.73658
1.73657
1.73656
1.73655
1.73654
1.73653
1.73652
1.73651
1.7365
1.73649
1.73648
1.73646
1.73645
1.73644
1.73643
1.73641
1.7364
1.73638
1.73637
1.73635
1.73633
1.73632
1.7363
1.73628
1.73626
1.73624
1.73621
1.73619
1.73616
1.73614
1.73611
1.73608
1.73605
1.73602
1.73599
1.73595
1.73592
1.73588
1.73584
1.7358
1.73576
1.73571
1.73567
1.73562
1.73557
1.73552
1.73547
1.73542
1.73537
1.73531
1.73526
1.7352
1.73515
1.73509
1.73503
1.73497
1.73492
1.73486
1.7348
1.73475
1.73469
1.73464
1.73459
1.73454
1.73449
1.73444
1.7344
1.73435
1.73432
1.73428
1.73425
1.73422
1.7342
1.73418
1.73417
1.73417
1.73416
1.73417
1.73418
1.7342
1.73422
1.73426
1.7343
1.73435
1.7344
1.73447
1.73454
1.73462
1.73472
1.73482
1.73493
1.73505
1.73518
1.73532
1.73546
1.73562
1.73579
1.73596
1.73615
1.73634
1.73654
1.73675
1.73697
1.73719
1.73742
1.73766
1.7379
1.73814
1.73839
1.73864
1.73889
1.73914
1.73939
1.73964
1.73989
1.74013
1.74037
1.74061
1.74083
1.74105
1.74126
1.74145
1.74164
1.74182
1.74198
1.74212
1.74225
1.74237
1.74247
1.74255
1.74262
1.74267
1.7427
1.74271
1.74271
1.74269
1.74265
1.74259
1.74252
1.74243
1.74232
1.74221
1.74207
1.74192
1.74177
1.74159
1.74141
1.74122
1.74102
1.74081
1.7406
1.74038
1.74016
1.73993
1.7397
1.73947
1.73923
1.739
1.73877
1.73854
1.73832
1.7381
1.73788
1.73767
1.73746
1.73726
1.73707
1.73689
1.73671
1.73655
1.73639
1.73625
1.73611
1.73598
1.73587
1.73576
1.73567
1.73559
1.73552
1.73547
1.73543
1.7354
1.73538
1.73538
1.73539
1.73542
1.73546
1.73552
1.7356
1.73569
1.73579
1.73592
1.73606
1.73623
1.73641
1.73661
1.73683
1.73708
1.73735
1.73764
1.73796
1.7383
1.73867
1.73907
1.7395
1.73995
1.74045
1.74097
1.74151
1.74212
1.74276
1.7434
1.74411
1.74492
1.74566
1.74644
1.7475
1.74845
1.74913
1.75045
1.75207
1.75248
1.75337
1.75646
1.75756
1.75701
1.76004
1.76101
1.76161
1.7377
1.73221
1.7301
1.73562
1.73503
1.7315
1.7336
1.73539
1.73385
1.73355
1.73471
1.73474
1.73426
1.73449
1.7348
1.73469
1.73464
1.73477
1.73483
1.7348
1.73482
1.73487
1.73488
1.73488
1.7349
1.73492
1.73492
1.73493
1.73493
1.73494
1.73494
1.73494
1.73494
1.73494
1.73493
1.73493
1.73492
1.73492
1.73491
1.7349
1.73489
1.73488
1.73487
1.73485
1.73484
1.73482
1.7348
1.73478
1.73476
1.73474
1.73472
1.7347
1.73468
1.73465
1.73463
1.73461
1.73458
1.73456
1.73454
1.73451
1.73449
1.73447
1.73445
1.73443
1.73442
1.7344
1.73439
1.73438
1.73437
1.73437
1.73437
1.73437
1.73437
1.73438
1.7344
1.73442
1.73444
1.73447
1.7345
1.73454
1.73459
1.73463
1.73469
1.73474
1.7348
1.73487
1.73494
1.73501
1.73509
1.73517
1.73525
1.73533
1.73542
1.7355
1.73559
1.73568
1.73576
1.73585
1.73594
1.73602
1.7361
1.73618
1.73625
1.73633
1.7364
1.73646
1.73653
1.73658
1.73664
1.73669
1.73674
1.73678
1.73682
1.73686
1.73689
1.73692
1.73695
1.73697
1.73699
1.737
1.73702
1.73703
1.73704
1.73704
1.73705
1.73705
1.73705
1.73705
1.73705
1.73705
1.73704
1.73704
1.73703
1.73702
1.73701
1.737
1.73699
1.73698
1.73697
1.73696
1.73695
1.73694
1.73692
1.73691
1.7369
1.73689
1.73687
1.73686
1.73685
1.73683
1.73682
1.73681
1.7368
1.73678
1.73677
1.73676
1.73675
1.73673
1.73672
1.73671
1.7367
1.73669
1.73668
1.73666
1.73665
1.73664
1.73663
1.73662
1.73661
1.7366
1.73659
1.73658
1.73657
1.73656
1.73655
1.73654
1.73653
1.73652
1.7365
1.73649
1.73648
1.73647
1.73646
1.73645
1.73643
1.73642
1.73641
1.73639
1.73638
1.73636
1.73635
1.73633
1.73631
1.7363
1.73628
1.73626
1.73623
1.73621
1.73619
1.73616
1.73614
1.73611
1.73608
1.73605
1.73602
1.73598
1.73595
1.73591
1.73588
1.73584
1.7358
1.73575
1.73571
1.73566
1.73562
1.73557
1.73552
1.73547
1.73542
1.73536
1.73531
1.73525
1.7352
1.73514
1.73508
1.73502
1.73497
1.73491
1.73485
1.73479
1.73474
1.73468
1.73463
1.73457
1.73452
1.73447
1.73442
1.73438
1.73434
1.7343
1.73426
1.73423
1.7342
1.73418
1.73416
1.73415
1.73414
1.73414
1.73415
1.73416
1.73417
1.7342
1.73423
1.73427
1.73432
1.73438
1.73444
1.73451
1.7346
1.73469
1.73479
1.7349
1.73502
1.73515
1.73529
1.73544
1.73559
1.73576
1.73594
1.73612
1.73632
1.73652
1.73673
1.73695
1.73718
1.73741
1.73764
1.73789
1.73813
1.73838
1.73864
1.73889
1.73915
1.7394
1.73966
1.73991
1.74015
1.7404
1.74063
1.74086
1.74108
1.74129
1.74149
1.74168
1.74186
1.74202
1.74217
1.7423
1.74242
1.74252
1.7426
1.74267
1.74272
1.74275
1.74276
1.74275
1.74273
1.74269
1.74263
1.74255
1.74246
1.74235
1.74223
1.74209
1.74194
1.74178
1.7416
1.74142
1.74122
1.74102
1.74081
1.74059
1.74036
1.74014
1.73991
1.73967
1.73944
1.7392
1.73897
1.73874
1.73851
1.73828
1.73806
1.73784
1.73762
1.73742
1.73722
1.73703
1.73684
1.73667
1.7365
1.73634
1.7362
1.73606
1.73593
1.73582
1.73571
1.73562
1.73554
1.73547
1.73542
1.73538
1.73535
1.73533
1.73533
1.73534
1.73537
1.73541
1.73547
1.73554
1.73563
1.73573
1.73586
1.736
1.73616
1.73634
1.73654
1.73676
1.737
1.73727
1.73755
1.73787
1.73821
1.73857
1.73897
1.73939
1.73983
1.74032
1.74084
1.74137
1.74195
1.7426
1.74323
1.74386
1.7447
1.74551
1.74608
1.74704
1.74835
1.74883
1.74936
1.75161
1.75281
1.75167
1.7541
1.75838
1.75548
1.75471
1.76196
1.75963
1.73191
1.73414
1.73557
1.73312
1.73205
1.73472
1.73513
1.73321
1.73368
1.73501
1.73454
1.73403
1.73455
1.73483
1.73457
1.73456
1.73478
1.7348
1.73473
1.73479
1.73485
1.73484
1.73484
1.73487
1.73489
1.73489
1.7349
1.73491
1.73492
1.73492
1.73492
1.73492
1.73492
1.73492
1.73492
1.73491
1.73491
1.7349
1.73489
1.73489
1.73488
1.73486
1.73485
1.73484
1.73482
1.73481
1.73479
1.73477
1.73475
1.73473
1.73471
1.73469
1.73467
1.73464
1.73462
1.7346
1.73457
1.73455
1.73452
1.7345
1.73448
1.73446
1.73444
1.73442
1.7344
1.73439
1.73438
1.73437
1.73436
1.73435
1.73435
1.73436
1.73436
1.73437
1.73439
1.73441
1.73443
1.73446
1.73449
1.73453
1.73457
1.73462
1.73467
1.73473
1.73479
1.73486
1.73493
1.735
1.73508
1.73516
1.73524
1.73533
1.73542
1.7355
1.73559
1.73568
1.73577
1.73585
1.73594
1.73602
1.73611
1.73618
1.73626
1.73633
1.7364
1.73647
1.73653
1.73659
1.73665
1.7367
1.73675
1.73679
1.73683
1.73686
1.7369
1.73692
1.73695
1.73697
1.73699
1.73701
1.73702
1.73703
1.73704
1.73704
1.73705
1.73705
1.73705
1.73705
1.73705
1.73704
1.73704
1.73703
1.73702
1.73702
1.73701
1.737
1.73699
1.73698
1.73697
1.73695
1.73694
1.73693
1.73692
1.7369
1.73689
1.73688
1.73687
1.73685
1.73684
1.73683
1.73681
1.7368
1.73679
1.73678
1.73676
1.73675
1.73674
1.73673
1.73671
1.7367
1.73669
1.73668
1.73667
1.73666
1.73665
1.73664
1.73662
1.73661
1.7366
1.73659
1.73658
1.73657
1.73656
1.73655
1.73654
1.73653
1.73652
1.73651
1.7365
1.73649
1.73648
1.73647
1.73646
1.73644
1.73643
1.73642
1.7364
1.73639
1.73638
1.73636
1.73635
1.73633
1.73631
1.73629
1.73627
1.73625
1.73623
1.73621
1.73619
1.73616
1.73613
1.73611
1.73608
1.73605
1.73602
1.73598
1.73595
1.73591
1.73587
1.73584
1.73579
1.73575
1.73571
1.73566
1.73561
1.73557
1.73552
1.73547
1.73541
1.73536
1.7353
1.73525
1.73519
1.73513
1.73508
1.73502
1.73496
1.7349
1.73484
1.73478
1.73473
1.73467
1.73461
1.73456
1.73451
1.73446
1.73441
1.73436
1.73432
1.73428
1.73424
1.73421
1.73418
1.73416
1.73414
1.73413
1.73412
1.73411
1.73412
1.73413
1.73415
1.73417
1.7342
1.73424
1.73429
1.73434
1.73441
1.73448
1.73456
1.73465
1.73475
1.73486
1.73498
1.73511
1.73525
1.7354
1.73556
1.73573
1.73591
1.73609
1.73629
1.73649
1.73671
1.73693
1.73715
1.73739
1.73763
1.73787
1.73812
1.73838
1.73863
1.73889
1.73915
1.73941
1.73967
1.73992
1.74017
1.74042
1.74066
1.74089
1.74111
1.74133
1.74153
1.74172
1.7419
1.74207
1.74222
1.74235
1.74247
1.74257
1.74265
1.74272
1.74277
1.7428
1.74281
1.7428
1.74277
1.74273
1.74267
1.74259
1.74249
1.74238
1.74225
1.74211
1.74196
1.74179
1.74161
1.74142
1.74122
1.74101
1.7408
1.74058
1.74035
1.74012
1.73988
1.73965
1.73941
1.73917
1.73893
1.7387
1.73847
1.73824
1.73801
1.73779
1.73758
1.73737
1.73717
1.73698
1.73679
1.73662
1.73645
1.73629
1.73614
1.73601
1.73588
1.73576
1.73566
1.73557
1.73549
1.73542
1.73536
1.73532
1.73529
1.73527
1.73527
1.73528
1.73531
1.73535
1.7354
1.73547
1.73556
1.73567
1.73579
1.73593
1.73608
1.73626
1.73645
1.73667
1.73691
1.73717
1.73745
1.73776
1.73809
1.73845
1.73883
1.73925
1.73969
1.74015
1.74066
1.74121
1.74176
1.74235
1.74303
1.74369
1.74431
1.74514
1.74603
1.7466
1.74741
1.74879
1.7495
1.7497
1.75146
1.75326
1.75265
1.75344
1.75631
1.7561
1.75558
1.75597
1.73262
1.73446
1.73498
1.73288
1.7337
1.73512
1.73384
1.73354
1.73478
1.73466
1.73405
1.73445
1.73481
1.73457
1.73452
1.73475
1.73478
1.7347
1.73475
1.73483
1.73482
1.73482
1.73485
1.73487
1.73487
1.73488
1.7349
1.7349
1.7349
1.73491
1.73491
1.73491
1.73491
1.73491
1.73491
1.7349
1.7349
1.73489
1.73488
1.73487
1.73486
1.73485
1.73484
1.73483
1.73481
1.7348
1.73478
1.73476
1.73474
1.73472
1.7347
1.73468
1.73466
1.73463
1.73461
1.73459
1.73456
1.73454
1.73452
1.73449
1.73447
1.73445
1.73443
1.73441
1.73439
1.73438
1.73437
1.73436
1.73435
1.73434
1.73434
1.73435
1.73435
1.73436
1.73438
1.7344
1.73442
1.73445
1.73448
1.73452
1.73456
1.73461
1.73467
1.73472
1.73479
1.73485
1.73492
1.735
1.73508
1.73516
1.73524
1.73533
1.73541
1.7355
1.73559
1.73568
1.73577
1.73586
1.73594
1.73603
1.73611
1.73619
1.73627
1.73634
1.73641
1.73648
1.73654
1.7366
1.73665
1.7367
1.73675
1.73679
1.73683
1.73687
1.7369
1.73693
1.73695
1.73697
1.73699
1.73701
1.73702
1.73703
1.73704
1.73704
1.73705
1.73705
1.73705
1.73705
1.73704
1.73704
1.73703
1.73703
1.73702
1.73701
1.737
1.73699
1.73698
1.73697
1.73696
1.73695
1.73693
1.73692
1.73691
1.7369
1.73688
1.73687
1.73686
1.73685
1.73683
1.73682
1.73681
1.73679
1.73678
1.73677
1.73676
1.73674
1.73673
1.73672
1.73671
1.7367
1.73668
1.73667
1.73666
1.73665
1.73664
1.73663
1.73662
1.73661
1.7366
1.73659
1.73658
1.73657
1.73656
1.73655
1.73654
1.73653
1.73652
1.73651
1.73649
1.73648
1.73647
1.73646
1.73645
1.73644
1.73643
1.73641
1.7364
1.73639
1.73637
1.73636
1.73634
1.73633
1.73631
1.73629
1.73627
1.73625
1.73623
1.73621
1.73618
1.73616
1.73613
1.73611
1.73608
1.73605
1.73602
1.73598
1.73595
1.73591
1.73587
1.73583
1.73579
1.73575
1.73571
1.73566
1.73561
1.73556
1.73551
1.73546
1.73541
1.73535
1.7353
1.73524
1.73519
1.73513
1.73507
1.73501
1.73495
1.73489
1.73483
1.73477
1.73472
1.73466
1.7346
1.73455
1.73449
1.73444
1.73439
1.73435
1.7343
1.73426
1.73422
1.73419
1.73416
1.73413
1.73411
1.7341
1.73409
1.73409
1.73409
1.7341
1.73411
1.73414
1.73417
1.73421
1.73425
1.73431
1.73437
1.73444
1.73453
1.73462
1.73472
1.73483
1.73495
1.73508
1.73522
1.73536
1.73552
1.73569
1.73587
1.73606
1.73626
1.73646
1.73667
1.7369
1.73713
1.73736
1.73761
1.73785
1.73811
1.73836
1.73862
1.73888
1.73915
1.73941
1.73967
1.73993
1.74018
1.74043
1.74068
1.74091
1.74114
1.74136
1.74157
1.74176
1.74194
1.74211
1.74226
1.7424
1.74252
1.74262
1.74271
1.74277
1.74282
1.74285
1.74286
1.74285
1.74282
1.74277
1.74271
1.74262
1.74252
1.74241
1.74228
1.74213
1.74197
1.7418
1.74162
1.74142
1.74122
1.74101
1.74079
1.74056
1.74033
1.7401
1.73986
1.73962
1.73938
1.73914
1.7389
1.73866
1.73842
1.73819
1.73796
1.73774
1.73753
1.73732
1.73712
1.73692
1.73674
1.73656
1.73639
1.73623
1.73609
1.73595
1.73582
1.73571
1.7356
1.73551
1.73543
1.73536
1.7353
1.73526
1.73523
1.73521
1.73521
1.73522
1.73524
1.73528
1.73533
1.7354
1.73549
1.73559
1.73571
1.73584
1.736
1.73617
1.73636
1.73657
1.73681
1.73706
1.73734
1.73764
1.73796
1.73831
1.73869
1.73909
1.73953
1.73998
1.74046
1.741
1.74156
1.7421
1.74273
1.74345
1.74405
1.74469
1.74563
1.74642
1.74684
1.74788
1.74927
1.74943
1.74984
1.75214
1.75274
1.7516
1.7542
1.7558
1.75288
1.75415
1.73561
1.73384
1.73294
1.73473
1.73517
1.73344
1.73367
1.73512
1.7346
1.73385
1.73454
1.73493
1.73448
1.73445
1.7348
1.73479
1.73465
1.73474
1.73484
1.73481
1.73479
1.73485
1.73487
1.73486
1.73487
1.73489
1.73489
1.73489
1.7349
1.73491
1.73491
1.73491
1.73491
1.7349
1.7349
1.7349
1.73489
1.73488
1.73488
1.73487
1.73486
1.73485
1.73483
1.73482
1.73481
1.73479
1.73477
1.73475
1.73473
1.73471
1.73469
1.73467
1.73465
1.73463
1.7346
1.73458
1.73456
1.73453
1.73451
1.73449
1.73446
1.73444
1.73442
1.7344
1.73439
1.73437
1.73436
1.73435
1.73434
1.73434
1.73434
1.73434
1.73434
1.73435
1.73437
1.73439
1.73441
1.73444
1.73448
1.73451
1.73456
1.73461
1.73466
1.73472
1.73478
1.73485
1.73492
1.73499
1.73507
1.73516
1.73524
1.73533
1.73541
1.7355
1.73559
1.73568
1.73577
1.73586
1.73595
1.73603
1.73611
1.73619
1.73627
1.73634
1.73641
1.73648
1.73654
1.7366
1.73666
1.73671
1.73675
1.7368
1.73683
1.73687
1.7369
1.73693
1.73695
1.73697
1.73699
1.737
1.73702
1.73703
1.73703
1.73704
1.73704
1.73704
1.73704
1.73704
1.73704
1.73703
1.73703
1.73702
1.73701
1.737
1.73699
1.73698
1.73697
1.73696
1.73695
1.73694
1.73693
1.73691
1.7369
1.73689
1.73688
1.73686
1.73685
1.73684
1.73683
1.73681
1.7368
1.73679
1.73677
1.73676
1.73675
1.73674
1.73672
1.73671
1.7367
1.73669
1.73668
1.73667
1.73665
1.73664
1.73663
1.73662
1.73661
1.7366
1.73659
1.73658
1.73657
1.73656
1.73655
1.73654