# vtk DataFile Version 2.0
LBE two cylinders
ASCII
DATASET STRUCTURED_POINTS
DIMENSIONS 400 100 1
ASPECT_RATIO 1 1 1
ORIGIN 0 0 0
POINT_DATA 40000
SCALARS rho double 1
LOOKUP_TABLE default
1.6794
1.73514
1.74919
1.72813
1.72916
1.73816
1.73677
1.73347
1.73495
1.73631
1.73547
1.73507
1.73561
1.73573
1.73548
1.73549
1.73563
1.73561
1.73556
1.73559
1.73562
1.7356
1.73559
1.7356
1.7356
1.73559
1.73559
1.73558
1.73558
1.73556
1.73556
1.73554
1.73553
1.73552
1.7355
1.73548
1.73547
1.73545
1.73543
1.7354
1.73538
1.73535
1.73533
1.7353
1.73528
1.73524
1.73522
1.73518
1.73515
1.73512
1.73508
1.73505
1.73502
1.73498
1.73494
1.73491
1.73487
1.73483
1.7348
1.73476
1.73473
1.73469
1.73466
1.73463
1.7346
1.73457
1.73454
1.73451
1.73449
1.73447
1.73445
1.73443
1.73442
1.73441
1.7344
1.73439
1.73439
1.73439
1.7344
1.73441
1.73443
1.73444
1.73446
1.73449
1.73452
1.73455
1.73459
1.73462
1.73467
1.73471
1.73476
1.73481
1.73486
1.73491
1.73497
1.73503
1.73508
1.73514
1.7352
1.73525
1.73531
1.73536
1.73542
1.73547
1.73552
1.73557
1.73562
1.73566
1.7357
1.73574
1.73578
1.73582
1.73585
1.73588
1.73591
1.73593
1.73595
1.73597
1.73599
1.736
1.73602
1.73603
1.73604
1.73605
1.73605
1.73605
1.73606
1.73606
1.73606
1.73605
1.73605
1.73605
1.73604
1.73603
1.73603
1.73602
1.73601
1.736
1.73599
1.73598
1.73596
1.73595
1.73594
1.73593
1.73592
1.7359
1.73589
1.73588
1.73586
1.73585
1.73584
1.73582
1.73581
1.7358
1.73579
1.73577
1.73576
1.73575
1.73574
1.73573
1.73571
1.7357
1.73569
1.73568
1.73567
1.73566
1.73565
1.73564
1.73563
1.73562
1.73561
1.73559
1.73559
1.73557
1.73556
1.73555
1.73554
1.73553
1.73553
1.73552
1.73551
1.7355
1.73549
1.73548
1.73547
1.73546
1.73546
1.73545
1.73544
1.73543
1.73543
1.73542
1.73542
1.73541
1.73541
1.73541
1.7354
1.7354
1.7354
1.7354
1.7354
1.7354
1.7354
1.7354
1.7354
1.73541
1.73541
1.73541
1.73542
1.73542
1.73542
1.73542
1.73543
1.73543
1.73543
1.73543
1.73544
1.73544
1.73544
1.73543
1.73543
1.73543
1.73543
1.73542
1.73541
1.73541
1.7354
1.73539
1.73538
1.73536
1.73535
1.73533
1.73532
1.7353
1.73528
1.73526
1.73524
1.73522
1.7352
1.73518
1.73515
1.73513
1.73511
1.73509
1.73507
1.73505
1.73504
1.73502
1.73501
1.735
1.735
1.73499
1.73499
1.735
1.73501
1.73502
1.73504
1.73506
1.73509
1.73513
1.73517
1.73522
1.73528
1.73535
1.73542
1.7355
1.73559
1.73568
1.73579
1.7359
1.73602
1.73615
1.73629
1.73643
1.73659
1.73675
1.73692
1.73709
1.73727
1.73746
1.73766
1.73785
1.73805
1.73826
1.73847
1.73867
1.73888
1.73909
1.7393
1.73951
1.73971
1.73991
1.7401
1.74029
1.74047
1.74064
1.74081
1.74096
1.74111
1.74124
1.74137
1.74148
1.74158
1.74166
1.74173
1.74179
1.74184
1.74187
1.74189
1.74189
1.74189
1.74187
1.74183
1.74179
1.74173
1.74166
1.74158
1.74149
1.74139
1.74128
1.74116
1.74104
1.74091
1.74077
1.74063
1.74048
1.74033
1.74018
1.74003
1.73987
1.73971
1.73956
1.7394
1.73925
1.7391
1.73895
1.7388
1.73866
1.73853
1.7384
1.73828
1.73816
1.73805
1.73794
1.73785
1.73776
1.73768
1.73761
1.73755
1.7375
1.73746
1.73743
1.7374
1.73739
1.73739
1.7374
1.73743
1.73746
1.7375
1.73756
1.73763
1.73772
1.73782
1.73793
1.73806
1.7382
1.73836
1.73854
1.73874
1.73895
1.73919
1.73945
1.73973
1.74004
1.74037
1.74073
1.74114
1.74155
1.742
1.74253
1.74307
1.7436
1.74426
1.74502
1.74562
1.74635
1.74753
1.74836
1.7488
1.7506
1.7525
1.75197
1.7536
1.75946
1.75795
1.75465
1.77012
1.77708
1.74852
1.78417
1.69904
1.7224
1.73733
1.73113
1.73163
1.73501
1.73522
1.73424
1.73479
1.73537
1.73523
1.73512
1.73533
1.73542
1.73538
1.7354
1.73546
1.73547
1.73548
1.73549
1.73551
1.73551
1.73552
1.73552
1.73553
1.73552
1.73553
1.73552
1.73552
1.73551
1.73551
1.7355
1.73549
1.73547
1.73546
1.73544
1.73543
1.73541
1.73539
1.73537
1.73535
1.73532
1.7353
1.73527
1.73525
1.73522
1.73519
1.73516
1.73513
1.73509
1.73506
1.73503
1.73499
1.73496
1.73492
1.73489
1.73485
1.73481
1.73478
1.73475
1.73471
1.73468
1.73465
1.73461
1.73458
1.73455
1.73453
1.7345
1.73448
1.73445
1.73444
1.73442
1.73441
1.7344
1.73439
1.73438
1.73439
1.73439
1.7344
1.7344
1.73442
1.73444
1.73446
1.73448
1.73452
1.73455
1.73459
1.73462
1.73467
1.73471
1.73476
1.73481
1.73486
1.73492
1.73497
1.73503
1.73509
1.73514
1.7352
1.73526
1.73531
1.73537
1.73542
1.73547
1.73552
1.73557
1.73562
1.73566
1.73571
1.73574
1.73578
1.73582
1.73585
1.73588
1.73591
1.73593
1.73595
1.73597
1.73599
1.736
1.73602
1.73603
1.73604
1.73604
1.73605
1.73605
1.73606
1.73605
1.73606
1.73605
1.73605
1.73604
1.73604
1.73603
1.73602
1.73602
1.73601
1.736
1.73599
1.73597
1.73596
1.73595
1.73594
1.73593
1.73592
1.7359
1.73589
1.73588
1.73586
1.73585
1.73584
1.73582
1.73581
1.7358
1.73579
1.73577
1.73576
1.73575
1.73574
1.73573
1.73572
1.7357
1.73569
1.73568
1.73567
1.73566
1.73565
1.73564
1.73563
1.73562
1.73561
1.7356
1.73559
1.73558
1.73557
1.73556
1.73555
1.73554
1.73553
1.73552
1.73551
1.7355
1.73549
1.73548
1.73548
1.73547
1.73546
1.73545
1.73545
1.73544
1.73543
1.73543
1.73542
1.73542
1.73542
1.73541
1.73541
1.73541
1.73541
1.73541
1.73541
1.73541
1.73541
1.73541
1.73541
1.73541
1.73542
1.73542
1.73542
1.73542
1.73543
1.73543
1.73543
1.73543
1.73544
1.73544
1.73544
1.73544
1.73544
1.73544
1.73544
1.73543
1.73543
1.73542
1.73542
1.73541
1.7354
1.73539
1.73538
1.73537
1.73535
1.73534
1.73532
1.7353
1.73528
1.73526
1.73524
1.73522
1.7352
1.73518
1.73516
1.73514
1.73511
1.73509
1.73508
1.73506
1.73504
1.73503
1.73502
1.73501
1.735
1.735
1.735
1.735
1.73501
1.73503
1.73505
1.73507
1.7351
1.73514
1.73518
1.73523
1.73529
1.73535
1.73543
1.73551
1.7356
1.73569
1.7358
1.73591
1.73604
1.73616
1.7363
1.73645
1.7366
1.73677
1.73693
1.73711
1.73729
1.73748
1.73767
1.73787
1.73807
1.73828
1.73848
1.73869
1.7389
1.73911
1.73932
1.73952
1.73973
1.73992
1.74012
1.7403
1.74048
1.74065
1.74082
1.74097
1.74112
1.74125
1.74137
1.74148
1.74158
1.74166
1.74173
1.74179
1.74183
1.74186
1.74188
1.74188
1.74188
1.74185
1.74182
1.74177
1.74171
1.74164
1.74156
1.74147
1.74137
1.74126
1.74114
1.74102
1.74089
1.74075
1.74061
1.74046
1.74031
1.74016
1.74001
1.73985
1.7397
1.73954
1.73938
1.73923
1.73908
1.73893
1.73879
1.73865
1.73852
1.73839
1.73826
1.73815
1.73804
1.73794
1.73784
1.73775
1.73768
1.73761
1.73755
1.7375
1.73746
1.73742
1.7374
1.73739
1.73739
1.7374
1.73743
1.73746
1.73751
1.73757
1.73764
1.73773
1.73782
1.73794
1.73807
1.73821
1.73837
1.73855
1.73875
1.73897
1.73921
1.73947
1.73975
1.74006
1.7404
1.74077
1.74116
1.74159
1.74206
1.74256
1.74309
1.74369
1.74433
1.74498
1.74572
1.74658
1.74741
1.74826
1.7494
1.75068
1.75161
1.75288
1.75513
1.75694
1.75734
1.76091
1.76707
1.768
1.76466
1.78911
1.75116
1.72337
1.71361
1.73667
1.7394
1.73015
1.73193
1.73646
1.73526
1.73373
1.73488
1.73557
1.73505
1.73495
1.73533
1.73538
1.73526
1.73531
1.73541
1.7354
1.73539
1.73542
1.73545
1.73544
1.73545
1.73546
1.73547
1.73546
1.73546
1.73546
1.73546
1.73545
1.73544
1.73543
1.73542
1.7354
1.73539
1.73537
1.73536
1.73533
1.73532
1.73529
1.73527
1.73524
1.73522
1.73519
1.73516
1.73513
1.7351
1.73507
1.73504
1.735
1.73497
1.73493
1.7349
1.73486
1.73483
1.73479
1.73476
1.73473
1.73469
1.73466
1.73463
1.73459
1.73457
1.73454
1.73451
1.73448
1.73446
1.73444
1.73442
1.7344
1.73439
1.73438
1.73438
1.73437
1.73437
1.73438
1.73438
1.73439
1.73441
1.73443
1.73445
1.73448
1.73451
1.73454
1.73458
1.73462
1.73467
1.73471
1.73476
1.73481
1.73486
1.73492
1.73498
1.73503
1.73509
1.73515
1.7352
1.73526
1.73532
1.73537
1.73543
1.73548
1.73553
1.73558
1.73563
1.73567
1.73571
1.73575
1.73579
1.73582
1.73585
1.73588
1.73591
1.73593
1.73596
1.73598
1.73599
1.73601
1.73602
1.73603
1.73604
1.73605
1.73605
1.73606
1.73606
1.73606
1.73606
1.73606
1.73605
1.73605
1.73604
1.73604
1.73603
1.73602
1.73601
1.736
1.73599
1.73598
1.73597
1.73596
1.73595
1.73593
1.73592
1.73591
1.7359
1.73588
1.73587
1.73586
1.73585
1.73583
1.73582
1.73581
1.7358
1.73578
1.73577
1.73576
1.73575
1.73574
1.73573
1.73571
1.7357
1.73569
1.73568
1.73567
1.73566
1.73565
1.73564
1.73563
1.73562
1.73561
1.7356
1.73559
1.73558
1.73557
1.73556
1.73555
1.73554
1.73553
1.73552
1.73551
1.7355
1.73549
1.73549
1.73548
1.73547
1.73546
1.73546
1.73545
1.73545
1.73544
1.73544
1.73543
1.73543
1.73542
1.73542
1.73542
1.73542
1.73542
1.73542
1.73542
1.73542
1.73542
1.73542
1.73543
1.73543
1.73543
1.73543
1.73544
1.73544
1.73544
1.73545
1.73545
1.73545
1.73545
1.73545
1.73545
1.73545
1.73545
1.73545
1.73545
1.73544
1.73544
1.73543
1.73542
1.73541
1.7354
1.73539
1.73538
1.73536
1.73535
1.73533
1.73531
1.73529
1.73527
1.73525
1.73523
1.73521
1.73519
1.73517
1.73514
1.73512
1.7351
1.73508
1.73506
1.73505
1.73503
1.73502
1.73501
1.73501
1.735
1.735
1.73501
1.73502
1.73503
1.73505
1.73507
1.73511
1.73514
1.73519
1.73524
1.7353
1.73536
1.73543
1.73551
1.7356
1.7357
1.73581
1.73592
1.73604
1.73617
1.73631
1.73646
1.73662
1.73678
1.73695
1.73712
1.73731
1.7375
1.73769
1.73789
1.73809
1.7383
1.7385
1.73871
1.73892
1.73913
1.73934
1.73954
1.73975
1.73994
1.74014
1.74032
1.7405
1.74068
1.74084
1.74099
1.74114
1.74127
1.74139
1.7415
1.74159
1.74167
1.74174
1.7418
1.74184
1.74187
1.74189
1.74189
1.74188
1.74185
1.74182
1.74177
1.74171
1.74164
1.74155
1.74146
1.74136
1.74125
1.74113
1.74101
1.74087
1.74074
1.74059
1.74045
1.7403
1.74014
1.73999
1.73983
1.73968
1.73952
1.73937
1.73921
1.73906
1.73891
1.73877
1.73863
1.7385
1.73837
1.73825
1.73813
1.73802
1.73792
1.73782
1.73774
1.73766
1.73759
1.73753
1.73748
1.73744
1.73741
1.73739
1.73738
1.73738
1.73739
1.73742
1.73745
1.7375
1.73756
1.73763
1.73772
1.73782
1.73793
1.73806
1.7382
1.73837
1.73855
1.73874
1.73896
1.7392
1.73946
1.73975
1.74006
1.7404
1.74076
1.74115
1.74159
1.74206
1.74254
1.74308
1.74371
1.74431
1.74492
1.74579
1.74662
1.7472
1.74829
1.74978
1.75022
1.75101
1.75415
1.75516
1.7536
1.75932
1.76588
1.75719
1.76031
1.78855
1.77837
1.73384
1.73047
1.73081
1.73345
1.73171
1.73311
1.73483
1.73417
1.73392
1.73475
1.735
1.73475
1.73487
1.73512
1.73514
1.73511
1.7352
1.73527
1.73527
1.73529
1.73533
1.73535
1.73536
1.73537
1.73539
1.73539
1.7354
1.7354
1.73541
1.7354
1.7354
1.7354
1.73539
1.73538
1.73538
1.73536
1.73535
1.73533
1.73532
1.7353
1.73528
1.73526
1.73524
1.73521
1.73519
1.73516
1.73513
1.7351
1.73507
1.73504
1.73501
1.73498
1.73495
1.73491
1.73488
1.73484
1.73481
1.73477
1.73474
1.7347
1.73467
1.73464
1.73461
1.73457
1.73455
1.73452
1.73449
1.73446
1.73444
1.73442
1.7344
1.73439
1.73438
1.73436
1.73436
1.73435
1.73436
1.73436
1.73437
1.73438
1.7344
1.73442
1.73444
1.73447
1.7345
1.73453
1.73457
1.73461
1.73466
1.73471
1.73476
1.73481
1.73486
1.73492
1.73498
1.73503
1.73509
1.73515
1.73521
1.73527
1.73533
1.73538
1.73544
1.73549
1.73554
1.73559
1.73564
1.73568
1.73572
1.73576
1.7358
1.73583
1.73587
1.73589
1.73592
1.73594
1.73597
1.73599
1.736
1.73602
1.73603
1.73604
1.73605
1.73606
1.73606
1.73607
1.73607
1.73607
1.73607
1.73607
1.73606
1.73606
1.73605
1.73605
1.73604
1.73603
1.73602
1.73601
1.736
1.73599
1.73598
1.73597
1.73596
1.73595
1.73593
1.73592
1.73591
1.7359
1.73588
1.73587
1.73586
1.73585
1.73583
1.73582
1.73581
1.7358
1.73579
1.73577
1.73576
1.73575
1.73574
1.73573
1.73572
1.73571
1.7357
1.73569
1.73568
1.73566
1.73566
1.73564
1.73563
1.73562
1.73561
1.7356
1.73559
1.73558
1.73558
1.73557
1.73556
1.73555
1.73554
1.73553
1.73552
1.73551
1.7355
1.7355
1.73549
1.73548
1.73548
1.73547
1.73546
1.73546
1.73545
1.73545
1.73545
1.73544
1.73544
1.73544
1.73544
1.73544
1.73544
1.73544
1.73544
1.73544
1.73544
1.73545
1.73545
1.73545
1.73546
1.73546
1.73546
1.73546
1.73547
1.73547
1.73547
1.73547
1.73548
1.73548
1.73548
1.73547
1.73547
1.73547
1.73546
1.73546
1.73545
1.73544
1.73543
1.73542
1.73541
1.7354
1.73538
1.73537
1.73535
1.73533
1.73531
1.73529
1.73527
1.73525
1.73523
1.7352
1.73518
1.73516
1.73514
1.73512
1.7351
1.73508
1.73506
1.73504
1.73503
1.73502
1.73501
1.73501
1.73501
1.73501
1.73502
1.73504
1.73505
1.73508
1.73511
1.73515
1.73519
1.73524
1.7353
1.73536
1.73544
1.73552
1.73561
1.7357
1.73581
1.73592
1.73605
1.73618
1.73632
1.73647
1.73662
1.73678
1.73696
1.73713
1.73732
1.73751
1.7377
1.7379
1.73811
1.73831
1.73852
1.73873
1.73894
1.73915
1.73936
1.73957
1.73977
1.73997
1.74017
1.74035
1.74053
1.74071
1.74087
1.74102
1.74116
1.7413
1.74142
1.74152
1.74162
1.7417
1.74177
1.74182
1.74186
1.74189
1.7419
1.7419
1.74189
1.74187
1.74183
1.74178
1.74171
1.74164
1.74156
1.74146
1.74136
1.74125
1.74113
1.741
1.74087
1.74073
1.74058
1.74043
1.74028
1.74013
1.73997
1.73981
1.73966
1.7395
1.73934
1.73919
1.73904
1.73889
1.73875
1.73861
1.73847
1.73834
1.73822
1.7381
1.738
1.73789
1.7378
1.73771
1.73764
1.73757
1.73751
1.73746
1.73742
1.73739
1.73737
1.73736
1.73736
1.73737
1.73739
1.73743
1.73747
1.73753
1.7376
1.73769
1.73779
1.7379
1.73803
1.73818
1.73834
1.73852
1.73871
1.73893
1.73917
1.73943
1.73971
1.74002
1.74035
1.74072
1.74112
1.74154
1.742
1.74251
1.74304
1.74361
1.74425
1.74494
1.74564
1.74643
1.74734
1.74821
1.74917
1.75038
1.75153
1.7527
1.75439
1.75598
1.75733
1.75999
1.7628
1.76385
1.76979
1.76823
1.72241
1.73471
1.7403
1.72875
1.72905
1.73679
1.73516
1.73215
1.73415
1.73555
1.73451
1.73428
1.73503
1.73514
1.73488
1.73499
1.73519
1.73517
1.73515
1.73522
1.73527
1.73527
1.73528
1.73531
1.73533
1.73533
1.73534
1.73535
1.73535
1.73535
1.73535
1.73535
1.73535
1.73534
1.73533
1.73532
1.73531
1.7353
1.73528
1.73526
1.73525
1.73522
1.7352
1.73518
1.73516
1.73513
1.7351
1.73507
1.73505
1.73501
1.73498
1.73495
1.73492
1.73489
1.73485
1.73482
1.73478
1.73475
1.73472
1.73468
1.73465
1.73461
1.73458
1.73455
1.73452
1.73449
1.73447
1.73444
1.73442
1.7344
1.73438
1.73437
1.73435
1.73434
1.73434
1.73434
1.73434
1.73434
1.73435
1.73436
1.73438
1.7344
1.73443
1.73445
1.73449
1.73452
1.73456
1.73461
1.73465
1.7347
1.73475
1.73481
1.73486
1.73492
1.73498
1.73504
1.7351
1.73516
1.73522
1.73528
1.73533
1.73539
1.73545
1.7355
1.73555
1.7356
1.73565
1.73569
1.73574
1.73578
1.73581
1.73585
1.73588
1.73591
1.73594
1.73596
1.73598
1.736
1.73602
1.73603
1.73605
1.73606
1.73607
1.73607
1.73608
1.73608
1.73608
1.73608
1.73608
1.73608
1.73608
1.73607
1.73607
1.73606
1.73606
1.73605
1.73604
1.73603
1.73602
1.73601
1.736
1.73599
1.73598
1.73596
1.73595
1.73594
1.73593
1.73591
1.7359
1.73589
1.73588
1.73587
1.73585
1.73584
1.73583
1.73582
1.73581
1.73579
1.73578
1.73577
1.73576
1.73575
1.73574
1.73573
1.73572
1.73571
1.7357
1.73569
1.73568
1.73567
1.73566
1.73565
1.73564
1.73563
1.73562
1.73561
1.7356
1.73559
1.73558
1.73557
1.73556
1.73555
1.73554
1.73554
1.73553
1.73552
1.73551
1.73551
1.7355
1.73549
1.73549
1.73548
1.73548
1.73548
1.73547
1.73547
1.73547
1.73547
1.73547
1.73547
1.73547
1.73547
1.73547
1.73547
1.73547
1.73548
1.73548
1.73548
1.73548
1.73549
1.73549
1.73549
1.7355
1.7355
1.7355
1.7355
1.7355
1.7355
1.7355
1.7355
1.7355
1.7355
1.73549
1.73549
1.73548
1.73547
1.73546
1.73545
1.73544
1.73542
1.73541
1.73539
1.73537
1.73536
1.73534
1.73531
1.73529
1.73527
1.73525
1.73522
1.7352
1.73518
1.73516
1.73513
1.73511
1.73509
1.73508
1.73506
1.73504
1.73503
1.73503
1.73502
1.73502
1.73502
1.73503
1.73504
1.73506
1.73508
1.73511
1.73515
1.73519
1.73524
1.7353
1.73536
1.73544
1.73552
1.73561
1.7357
1.73581
1.73592
1.73605
1.73618
1.73632
1.73647
1.73662
1.73679
1.73696
1.73714
1.73732
1.73752
1.73771
1.73791
1.73812
1.73833
1.73854
1.73875
1.73897
1.73918
1.73939
1.7396
1.7398
1.74
1.7402
1.74039
1.74057
1.74074
1.74091
1.74106
1.7412
1.74133
1.74145
1.74156
1.74165
1.74174
1.7418
1.74186
1.7419
1.74192
1.74193
1.74193
1.74192
1.74189
1.74185
1.74179
1.74173
1.74165
1.74157
1.74147
1.74136
1.74125
1.74113
1.741
1.74086
1.74072
1.74057
1.74042
1.74027
1.74011
1.73995
1.73979
1.73963
1.73948
1.73932
1.73916
1.73901
1.73886
1.73872
1.73858
1.73844
1.73831
1.73819
1.73807
1.73796
1.73786
1.73777
1.73768
1.7376
1.73753
1.73747
1.73742
1.73738
1.73735
1.73733
1.73732
1.73732
1.73733
1.73736
1.73739
1.73744
1.73749
1.73757
1.73765
1.73775
1.73786
1.73799
1.73813
1.73829
1.73847
1.73866
1.73888
1.73911
1.73937
1.73965
1.73996
1.74029
1.74065
1.74104
1.74146
1.74191
1.74242
1.74295
1.74348
1.74414
1.74486
1.74546
1.74621
1.7473
1.74805
1.74861
1.75029
1.75178
1.75146
1.75323
1.75758
1.75639
1.75423
1.76416
1.76807
1.756
1.76175
1.7349
1.73254
1.73089
1.73315
1.73566
1.73328
1.73244
1.73479
1.73506
1.73394
1.73431
1.73506
1.73487
1.73467
1.73494
1.7351
1.73502
1.73504
1.73515
1.73518
1.73517
1.7352
1.73524
1.73525
1.73526
1.73528
1.73529
1.7353
1.7353
1.73531
1.73531
1.73531
1.7353
1.7353
1.73529
1.73528
1.73527
1.73526
1.73525
1.73523
1.73521
1.73519
1.73517
1.73515
1.73513
1.7351
1.73507
1.73505
1.73502
1.73499
1.73496
1.73493
1.73489
1.73486
1.73483
1.73479
1.73476
1.73473
1.73469
1.73466
1.73463
1.73459
1.73456
1.73453
1.7345
1.73447
1.73445
1.73442
1.7344
1.73438
1.73436
1.73434
1.73433
1.73432
1.73432
1.73432
1.73432
1.73432
1.73433
1.73435
1.73436
1.73438
1.73441
1.73444
1.73448
1.73451
1.73455
1.7346
1.73465
1.7347
1.73475
1.7348
1.73486
1.73492
1.73498
1.73504
1.7351
1.73516
1.73523
1.73529
1.73535
1.7354
1.73546
1.73551
1.73557
1.73562
1.73567
1.73571
1.73575
1.73579
1.73583
1.73587
1.7359
1.73593
1.73596
1.73598
1.736
1.73602
1.73604
1.73605
1.73607
1.73608
1.73609
1.73609
1.7361
1.7361
1.7361
1.7361
1.7361
1.7361
1.7361
1.73609
1.73609
1.73608
1.73608
1.73607
1.73606
1.73605
1.73604
1.73603
1.73602
1.73601
1.736
1.73599
1.73597
1.73596
1.73595
1.73594
1.73593
1.73591
1.7359
1.73589
1.73588
1.73587
1.73586
1.73584
1.73583
1.73582
1.73581
1.7358
1.73579
1.73578
1.73577
1.73576
1.73575
1.73573
1.73572
1.73571
1.7357
1.73569
1.73568
1.73567
1.73567
1.73566
1.73565
1.73564
1.73563
1.73562
1.73561
1.7356
1.73559
1.73558
1.73558
1.73557
1.73556
1.73555
1.73555
1.73554
1.73553
1.73553
1.73552
1.73552
1.73551
1.73551
1.73551
1.7355
1.7355
1.7355
1.7355
1.7355
1.7355
1.7355
1.7355
1.73551
1.73551
1.73551
1.73551
1.73552
1.73552
1.73552
1.73553
1.73553
1.73553
1.73554
1.73554
1.73554
1.73554
1.73554
1.73554
1.73554
1.73554
1.73553
1.73553
1.73552
1.73552
1.73551
1.7355
1.73549
1.73547
1.73546
1.73544
1.73543
1.73541
1.73539
1.73537
1.73535
1.73532
1.7353
1.73528
1.73525
1.73523
1.7352
1.73518
1.73516
1.73514
1.73511
1.7351
1.73508
1.73506
1.73505
1.73504
1.73503
1.73503
1.73503
1.73504
1.73505
1.73507
1.73509
1.73512
1.73515
1.73519
1.73524
1.7353
1.73536
1.73543
1.73551
1.7356
1.7357
1.73581
1.73592
1.73604
1.73618
1.73632
1.73647
1.73662
1.73679
1.73696
1.73714
1.73733
1.73752
1.73772
1.73792
1.73813
1.73834
1.73856
1.73877
1.73899
1.7392
1.73942
1.73963
1.73983
1.74004
1.74023
1.74043
1.74061
1.74078
1.74095
1.7411
1.74125
1.74138
1.7415
1.74161
1.7417
1.74178
1.74185
1.7419
1.74194
1.74196
1.74197
1.74197
1.74195
1.74192
1.74187
1.74182
1.74175
1.74167
1.74158
1.74148
1.74137
1.74125
1.74113
1.741
1.74086
1.74071
1.74056
1.74041
1.74025
1.7401
1.73993
1.73977
1.73961
1.73945
1.73929
1.73914
1.73898
1.73883
1.73869
1.73855
1.73841
1.73828
1.73816
1.73804
1.73793
1.73782
1.73773
1.73764
1.73756
1.73749
1.73743
1.73738
1.73734
1.73731
1.73729
1.73728
1.73728
1.73729
1.73731
1.73734
1.73739
1.73745
1.73752
1.7376
1.73769
1.7378
1.73793
1.73807
1.73823
1.7384
1.73859
1.7388
1.73904
1.73929
1.73956
1.73987
1.74019
1.74055
1.74093
1.74135
1.74179
1.74227
1.7428
1.74338
1.74395
1.7446
1.74536
1.74606
1.7468
1.74783
1.74877
1.74943
1.75075
1.75237
1.75279
1.7537
1.7568
1.75792
1.75739
1.76042
1.7614
1.762
1.73791
1.73241
1.7303
1.73582
1.73523
1.73171
1.73381
1.73561
1.73406
1.73377
1.73493
1.73497
1.7345
1.73474
1.73505
1.73495
1.73491
1.73505
1.73511
1.73509
1.73512
1.73517
1.73519
1.73519
1.73522
1.73524
1.73524
1.73525
1.73526
1.73526
1.73526
1.73526
1.73526
1.73526
1.73525
1.73524
1.73524
1.73522
1.73521
1.73519
1.73518
1.73516
1.73514
1.73512
1.7351
1.73507
1.73505
1.73502
1.73499
1.73496
1.73493
1.7349
1.73487
1.73484
1.7348
1.73477
1.73474
1.7347
1.73467
1.73463
1.7346
1.73457
1.73454
1.73451
1.73448
1.73445
1.73442
1.7344
1.73437
1.73435
1.73434
1.73432
1.73431
1.7343
1.7343
1.73429
1.7343
1.7343
1.73431
1.73433
1.73435
1.73437
1.7344
1.73443
1.73446
1.7345
1.73454
1.73459
1.73464
1.73469
1.73475
1.7348
1.73486
1.73492
1.73498
1.73505
1.73511
1.73517
1.73523
1.7353
1.73536
1.73542
1.73547
1.73553
1.73558
1.73563
1.73568
1.73573
1.73577
1.73581
1.73585
1.73589
1.73592
1.73595
1.73598
1.736
1.73602
1.73604
1.73606
1.73608
1.73609
1.7361
1.73611
1.73611
1.73612
1.73612
1.73613
1.73613
1.73613
1.73612
1.73612
1.73612
1.73611
1.73611
1.7361
1.73609
1.73608
1.73608
1.73607
1.73606
1.73605
1.73604
1.73603
1.73601
1.736
1.73599
1.73598
1.73597
1.73596
1.73594
1.73593
1.73592
1.73591
1.7359
1.73589
1.73587
1.73586
1.73585
1.73584
1.73583
1.73582
1.73581
1.7358
1.73579
1.73578
1.73577
1.73576
1.73575
1.73574
1.73573
1.73572
1.73571
1.7357
1.73569
1.73568
1.73567
1.73566
1.73565
1.73565
1.73564
1.73563
1.73562
1.73561
1.7356
1.7356
1.73559
1.73558
1.73558
1.73557
1.73557
1.73556
1.73556
1.73555
1.73555
1.73555
1.73554
1.73554
1.73554
1.73554
1.73554
1.73554
1.73554
1.73555
1.73555
1.73555
1.73555
1.73556
1.73556
1.73556
1.73557
1.73557
1.73557
1.73558
1.73558
1.73558
1.73558
1.73559
1.73559
1.73559
1.73558
1.73558
1.73558
1.73557
1.73557
1.73556
1.73555
1.73554
1.73553
1.73552
1.7355
1.73549
1.73547
1.73545
1.73543
1.73541
1.73538
1.73536
1.73534
1.73531
1.73529
1.73526
1.73524
1.73521
1.73519
1.73516
1.73514
1.73512
1.7351
1.73508
1.73507
1.73506
1.73505
1.73505
1.73505
1.73505
1.73506
1.73508
1.7351
1.73512
1.73516
1.7352
1.73524
1.7353
1.73536
1.73543
1.73551
1.7356
1.7357
1.7358
1.73591
1.73604
1.73617
1.73631
1.73646
1.73662
1.73679
1.73696
1.73714
1.73733
1.73753
1.73773
1.73793
1.73814
1.73836
1.73857
1.73879
1.73901
1.73923
1.73944
1.73966
1.73987
1.74007
1.74027
1.74047
1.74065
1.74083
1.741
1.74115
1.7413
1.74143
1.74155
1.74166
1.74175
1.74183
1.7419
1.74195
1.74198
1.742
1.74201
1.74201
1.74199
1.74195
1.7419
1.74185
1.74177
1.74169
1.7416
1.7415
1.74138
1.74126
1.74113
1.741
1.74086
1.74071
1.74056
1.7404
1.74024
1.74008
1.73992
1.73975
1.73959
1.73943
1.73927
1.73911
1.73895
1.7388
1.73865
1.73851
1.73837
1.73824
1.73812
1.738
1.73789
1.73778
1.73769
1.7376
1.73752
1.73745
1.73739
1.73734
1.73729
1.73726
1.73724
1.73723
1.73723
1.73724
1.73726
1.73729
1.73733
1.73739
1.73745
1.73754
1.73763
1.73774
1.73786
1.738
1.73815
1.73832
1.73851
1.73872
1.73894
1.73919
1.73946
1.73975
1.74008
1.74042
1.74079
1.7412
1.74165
1.7421
1.74261
1.7432
1.74376
1.74433
1.74511
1.74588
1.74641
1.74734
1.74862
1.74909
1.74962
1.75187
1.75309
1.75196
1.7544
1.75871
1.75581
1.75506
1.76232
1.75999
1.7321
1.73432
1.73575
1.7333
1.73223
1.73491
1.73532
1.7334
1.73388
1.7352
1.73474
1.73424
1.73477
1.73505
1.7348
1.7348
1.73502
1.73505
1.73499
1.73505
1.73512
1.73512
1.73513
1.73516
1.73518
1.73519
1.7352
1.73521
1.73522
1.73522
1.73523
1.73523
1.73522
1.73522
1.73522
1.73521
1.7352
1.73519
1.73518
1.73516
1.73515
1.73513
1.73511
1.73509
1.73507
1.73504
1.73502
1.73499
1.73496
1.73494
1.73491
1.73488
1.73484
1.73481
1.73478
1.73475
1.73471
1.73468
1.73465
1.73461
1.73458
1.73455
1.73452
1.73448
1.73445
1.73443
1.7344
1.73438
1.73435
1.73433
1.73432
1.7343
1.73429
1.73428
1.73428
1.73427
1.73428
1.73428
1.73429
1.73431
1.73433
1.73435
1.73438
1.73441
1.73445
1.73449
1.73453
1.73458
1.73463
1.73468
1.73474
1.7348
1.73486
1.73492
1.73499
1.73505
1.73512
1.73518
1.73524
1.73531
1.73537
1.73543
1.73549
1.73555
1.7356
1.73565
1.7357
1.73575
1.7358
1.73584
1.73588
1.73591
1.73594
1.73597
1.736
1.73603
1.73605
1.73607
1.73609
1.7361
1.73611
1.73613
1.73613
1.73614
1.73615
1.73615
1.73615
1.73615
1.73615
1.73615
1.73615
1.73615
1.73614
1.73614
1.73613
1.73612
1.73611
1.73611
1.7361
1.73609
1.73608
1.73607
1.73606
1.73605
1.73604
1.73602
1.73601
1.736
1.73599
1.73598
1.73597
1.73596
1.73594
1.73593
1.73592
1.73591
1.7359
1.73589
1.73588
1.73587
1.73586
1.73585
1.73584
1.73583
1.73582
1.73581
1.7358
1.73579
1.73578
1.73577
1.73576
1.73575
1.73574
1.73573
1.73572
1.73571
1.7357
1.7357
1.73569
1.73568
1.73567
1.73566
1.73565
1.73565
1.73564
1.73563
1.73563
1.73562
1.73562
1.73561
1.73561
1.7356
1.7356
1.7356
1.73559
1.73559
1.73559
1.73559
1.73559
1.73559
1.73559
1.73559
1.7356
1.7356
1.7356
1.7356
1.73561
1.73561
1.73561
1.73562
1.73562
1.73563
1.73563
1.73563
1.73563
1.73564
1.73564
1.73564
1.73564
1.73564
1.73563
1.73563
1.73562
1.73562
1.73561
1.7356
1.73559
1.73558
1.73557
1.73555
1.73553
1.73552
1.7355
1.73547
1.73545
1.73543
1.73541
1.73538
1.73535
1.73533
1.7353
1.73527
1.73525
1.73522
1.7352
1.73517
1.73515
1.73513
1.73511
1.73509
1.73508
1.73507
1.73507
1.73506
1.73507
1.73507
1.73509
1.73511
1.73513
1.73516
1.7352
1.73525
1.7353
1.73536
1.73543
1.73551
1.73559
1.73569
1.73579
1.73591
1.73603
1.73616
1.7363
1.73645
1.73661
1.73678
1.73696
1.73714
1.73733
1.73753
1.73773
1.73794
1.73815
1.73837
1.73858
1.73881
1.73903
1.73925
1.73947
1.73969
1.7399
1.74011
1.74031
1.74051
1.7407
1.74087
1.74104
1.7412
1.74135
1.74148
1.7416
1.74171
1.74181
1.74188
1.74195
1.742
1.74203
1.74205
1.74206
1.74205
1.74203
1.74199
1.74194
1.74188
1.7418
1.74172
1.74162
1.74151
1.7414
1.74127
1.74114
1.741
1.74085
1.7407
1.74055
1.74039
1.74023
1.74006
1.7399
1.73973
1.73956
1.7394
1.73924
1.73908
1.73892
1.73877
1.73862
1.73847
1.73833
1.7382
1.73807
1.73795
1.73784
1.73774
1.73764
1.73755
1.73747
1.7374
1.73734
1.73728
1.73724
1.73721
1.73718
1.73717
1.73717
1.73718
1.73719
1.73723
1.73727
1.73732
1.73739
1.73746
1.73756
1.73766
1.73778
1.73791
1.73806
1.73823
1.73841
1.73861
1.73883
1.73908
1.73934
1.73962
1.73993
1.74027
1.74064
1.74102
1.74145
1.74193
1.7424
1.74292
1.74354
1.74413
1.7447
1.74548
1.74633
1.74687
1.74765
1.74901
1.74972
1.74992
1.75169
1.7535
1.75291
1.75372
1.75661
1.75641
1.7559
1.7563
1.73277
1.73462
1.73513
1.73303
1.73385
1.73528
1.734
1.7337
1.73494
1.73483
1.73422
1.73463
1.735
1.73477
1.73472
1.73495
1.735
1.73493
1.73499
1.73507
1.73507
1.73507
1.73511
1.73513
1.73514
1.73515
1.73517
1.73518
1.73518
1.73519
1.73519
1.73519
1.73519
1.73519
1.73518
1.73518
1.73517
1.73516
1.73515
1.73513
1.73512
1.7351
1.73508
1.73506
1.73504
1.73502
1.73499
1.73497
1.73494
1.73491
1.73488
1.73485
1.73482
1.73479
1.73476
1.73472
1.73469
1.73466
1.73462
1.73459
1.73456
1.73453
1.73449
1.73446
1.73443
1.73441
1.73438
1.73435
1.73433
1.73431
1.7343
1.73428
1.73427
1.73426
1.73426
1.73426
1.73426
1.73427
1.73428
1.73429
1.73431
1.73434
1.73437
1.7344
1.73444
1.73448
1.73452
1.73457
1.73463
1.73468
1.73474
1.7348
1.73486
1.73493
1.73499
1.73506
1.73512
1.73519
1.73526
1.73532
1.73538
1.73545
1.73551
1.73556
1.73562
1.73567
1.73572
1.73577
1.73582
1.73586
1.7359
1.73594
1.73597
1.736
1.73603
1.73605
1.73608
1.7361
1.73611
1.73613
1.73614
1.73615
1.73616
1.73617
1.73618
1.73618
1.73618
1.73618
1.73618
1.73618
1.73618
1.73618
1.73617
1.73617
1.73616
1.73615
1.73615
1.73614
1.73613
1.73612
1.73611
1.7361
1.73609
1.73608
1.73607
1.73606
1.73605
1.73604
1.73603
1.73602
1.73601
1.736
1.73598
1.73597
1.73596
1.73595
1.73594
1.73593
1.73592
1.73591
1.7359
1.73589
1.73588
1.73587
1.73586
1.73585
1.73584
1.73583
1.73582
1.73581
1.7358
1.73579
1.73579
1.73578
1.73577
1.73576
1.73575
1.73574
1.73573
1.73573
1.73572
1.73571
1.7357
1.7357
1.73569
1.73568
1.73568
1.73567
1.73567
1.73566
1.73566
1.73565
1.73565
1.73565
1.73565
1.73564
1.73564
1.73564
1.73564
1.73564
1.73565
1.73565
1.73565
1.73565
1.73566
1.73566
1.73566
1.73567
1.73567
1.73567
1.73568
1.73568
1.73569
1.73569
1.73569
1.73569
1.73569
1.73569
1.73569
1.73569
1.73569
1.73569
1.73568
1.73567
1.73567
1.73566
1.73565
1.73563
1.73562
1.7356
1.73559
1.73557
1.73555
1.73553
1.7355
1.73548
1.73545
1.73543
1.7354
1.73537
1.73535
1.73532
1.73529
1.73526
1.73523
1.73521
1.73518
1.73516
1.73514
1.73512
1.73511
1.7351
1.73509
1.73508
1.73508
1.73509
1.7351
1.73512
1.73514
1.73517
1.73521
1.73525
1.7353
1.73536
1.73543
1.7355
1.73559
1.73568
1.73579
1.7359
1.73602
1.73616
1.7363
1.73645
1.73661
1.73677
1.73695
1.73713
1.73733
1.73752
1.73773
1.73794
1.73815
1.73837
1.7386
1.73882
1.73904
1.73927
1.73949
1.73971
1.73993
1.74014
1.74035
1.74055
1.74074
1.74092
1.74109
1.74125
1.7414
1.74154
1.74166
1.74177
1.74186
1.74194
1.742
1.74205
1.74208
1.7421
1.74211
1.74209
1.74207
1.74203
1.74198
1.74191
1.74183
1.74174
1.74164
1.74153
1.74141
1.74128
1.74115
1.741
1.74085
1.7407
1.74054
1.74038
1.74021
1.74004
1.73987
1.73971
1.73954
1.73937
1.7392
1.73904
1.73888
1.73873
1.73857
1.73843
1.73829
1.73815
1.73803
1.7379
1.73779
1.73768
1.73759
1.7375
1.73742
1.73734
1.73728
1.73723
1.73718
1.73715
1.73712
1.73711
1.7371
1.73711
1.73713
1.73716
1.7372
1.73725
1.73731
1.73739
1.73747
1.73758
1.73769
1.73782
1.73797
1.73813
1.7383
1.7385
1.73872
1.73895
1.7392
1.73948
1.73978
1.74011
1.74047
1.74084
1.74124
1.7417
1.74219
1.74266
1.74322
1.74387
1.74441
1.745
1.7459
1.74665
1.74705
1.74807
1.74945
1.74962
1.75004
1.75234
1.75296
1.75184
1.75446
1.75608
1.75317
1.75444
1.73573
1.73396
1.73306
1.73485
1.73529
1.73356
1.7338
1.73525
1.73473
1.73399
1.73468
1.73508
1.73464
1.73461
1.73497
1.73497
1.73484
1.73493
1.73504
1.73501
1.73501
1.73507
1.73509
1.73509
1.73511
1.73513
1.73514
1.73514
1.73515
1.73516
1.73516
1.73516
1.73516
1.73516
1.73515
1.73515
1.73514
1.73513
1.73512
1.7351
1.73509
1.73507
1.73505
1.73503
1.73501
1.73499
1.73497
1.73494
1.73491
1.73489
1.73486
1.73483
1.7348
1.73477
1.73473
1.7347
1.73467
1.73464
1.7346
1.73457
1.73454
1.73451
1.73448
1.73444
1.73442
1.73439
1.73436
1.73434
1.73431
1.7343
1.73428
1.73426
1.73425
1.73424
1.73424
1.73424
1.73424
1.73425
1.73426
1.73428
1.7343
1.73433
1.73436
1.73439
1.73443
1.73447
1.73452
1.73457
1.73462
1.73468
1.73474
1.7348
1.73486
1.73493
1.735
1.73506
1.73513
1.7352
1.73527
1.73533
1.7354
1.73546
1.73552
1.73558
1.73564
1.73569
1.73574
1.73579
1.73584
1.73588
1.73592
1.73596
1.73599
1.73602
1.73605
1.73608
1.7361
1.73612
1.73614
1.73616
1.73617
1.73618
1.73619
1.7362
1.73621
1.73621
1.73621
1.73622
1.73622
1.73622
1.73621
1.73621
1.73621
1.7362
1.7362
1.73619
1.73618
1.73618
1.73617
1.73616
1.73615
1.73614
1.73613
1.73612
1.73611
1.7361
1.73609
1.73608
1.73607
1.73606
1.73605
1.73604
1.73603
1.73602
1.73601
1.736
1.73599
1.73598
1.73597
1.73596
1.73595
1.73594
1.73593
1.73592
1.73591
1.7359
1.73589
1.73588
1.73587
1.73586
1.73585
1.73584
1.73584
1.73583
1.73582
1.73581
1.7358
1.73579
1.73579
1.73578
1.73577
1.73576
1.73576
1.73575
1.73574
1.73574
1.73573