# vtk DataFile Version 2.0
LBE two cylinders
ASCII
DATASET STRUCTURED_POINTS
DIMENSIONS 400 100 1
ASPECT_RATIO 1 1 1
ORIGIN 0 0 0
POINT_DATA 40000
SCALARS rho double 1
LOOKUP_TABLE default
1.67921
1.73494
1.74898
1.72793
1.72896
1.73795
1.73656
1.73326
1.73474
1.73609
1.73525
1.73484
1.73537
1.73549
1.73523
1.73523
1.73537
1.73534
1.73528
1.7353
1.73532
1.7353
1.73529
1.73529
1.73529
1.73528
1.73527
1.73526
1.73526
1.73525
1.73524
1.73523
1.73522
1.7352
1.73519
1.73518
1.73517
1.73515
1.73514
1.73512
1.73511
1.73509
1.73507
1.73505
1.73503
1.73501
1.73499
1.73496
1.73494
1.73491
1.73489
1.73486
1.73484
1.73481
1.73479
1.73476
1.73474
1.73471
1.73468
1.73466
1.73463
1.73461
1.73459
1.73457
1.73455
1.73453
1.73452
1.73451
1.7345
1.73449
1.73449
1.73449
1.73449
1.7345
1.73451
1.73453
1.73455
1.73457
1.7346
1.73463
1.73467
1.73471
1.73476
1.73481
1.73487
1.73493
1.73499
1.73506
1.73513
1.7352
1.73528
1.73535
1.73543
1.73551
1.7356
1.73568
1.73576
1.73584
1.73592
1.736
1.73608
1.73616
1.73623
1.7363
1.73637
1.73643
1.7365
1.73656
1.73661
1.73666
1.73671
1.73675
1.7368
1.73683
1.73687
1.7369
1.73692
1.73695
1.73697
1.73699
1.737
1.73701
1.73702
1.73703
1.73703
1.73704
1.73704
1.73704
1.73704
1.73703
1.73703
1.73702
1.73701
1.737
1.73699
1.73698
1.73697
1.73696
1.73695
1.73693
1.73692
1.73691
1.73689
1.73688
1.73686
1.73685
1.73683
1.73682
1.7368
1.73679
1.73677
1.73676
1.73674
1.73673
1.73671
1.7367
1.73668
1.73667
1.73666
1.73664
1.73663
1.73661
1.7366
1.73658
1.73657
1.73655
1.73654
1.73653
1.73651
1.7365
1.73648
1.73647
1.73646
1.73644
1.73643
1.73641
1.7364
1.73638
1.73637
1.73635
1.73634
1.73632
1.7363
1.73629
1.73627
1.73625
1.73623
1.73621
1.73619
1.73617
1.73615
1.73613
1.73611
1.73608
1.73606
1.73603
1.73601
1.73598
1.73595
1.73592
1.73589
1.73586
1.73582
1.73579
1.73575
1.73571
1.73567
1.73563
1.73559
1.73555
1.7355
1.73546
1.73541
1.73536
1.73531
1.73526
1.73521
1.73516
1.7351
1.73505
1.73499
1.73494
1.73488
1.73483
1.73477
1.73471
1.73466
1.7346
1.73454
1.73449
1.73444
1.73438
1.73433
1.73428
1.73424
1.73419
1.73415
1.73411
1.73408
1.73404
1.73401
1.73399
1.73397
1.73395
1.73394
1.73394
1.73394
1.73395
1.73396
1.73398
1.734
1.73404
1.73408
1.73413
1.73418
1.73425
1.73432
1.7344
1.73449
1.73459
1.7347
1.73481
1.73494
1.73507
1.73522
1.73537
1.73553
1.7357
1.73588
1.73607
1.73626
1.73646
1.73667
1.73689
1.73711
1.73734
1.73758
1.73782
1.73806
1.7383
1.73855
1.7388
1.73905
1.7393
1.73954
1.73979
1.74003
1.74026
1.74049
1.74072
1.74093
1.74114
1.74134
1.74152
1.7417
1.74186
1.74201
1.74214
1.74226
1.74236
1.74245
1.74252
1.74258
1.74262
1.74264
1.74264
1.74263
1.7426
1.74255
1.74249
1.74241
1.74232
1.74221
1.74208
1.74194
1.74179
1.74163
1.74146
1.74127
1.74108
1.74088
1.74067
1.74046
1.74024
1.74001
1.73979
1.73956
1.73933
1.7391
1.73887
1.73864
1.73841
1.73819
1.73797
1.73776
1.73755
1.73735
1.73716
1.73697
1.7368
1.73663
1.73647
1.73632
1.73618
1.73605
1.73593
1.73582
1.73573
1.73565
1.73558
1.73552
1.73548
1.73545
1.73543
1.73543
1.73544
1.73547
1.73552
1.73558
1.73565
1.73575
1.73586
1.73599
1.73613
1.7363
1.73649
1.7367
1.73692
1.73718
1.73745
1.73775
1.73808
1.73843
1.73881
1.73921
1.73965
1.74012
1.74061
1.74114
1.74173
1.74234
1.74294
1.74366
1.74448
1.74513
1.7459
1.74712
1.74798
1.74844
1.75025
1.75216
1.75162
1.75325
1.75909
1.75757
1.75426
1.76971
1.77666
1.74811
1.78375
1.69884
1.7222
1.73713
1.73093
1.73143
1.73481
1.73501
1.73403
1.73458
1.73516
1.73501
1.7349
1.7351
1.73518
1.73513
1.73515
1.7352
1.73521
1.7352
1.73521
1.73522
1.73522
1.73522
1.73522
1.73522
1.73522
1.73521
1.73521
1.73521
1.7352
1.73519
1.73518
1.73518
1.73517
1.73516
1.73514
1.73513
1.73512
1.73511
1.73509
1.73508
1.73506
1.73504
1.73502
1.735
1.73498
1.73496
1.73494
1.73492
1.73489
1.73487
1.73484
1.73482
1.73479
1.73477
1.73474
1.73472
1.73469
1.73467
1.73464
1.73462
1.7346
1.73457
1.73455
1.73454
1.73452
1.73451
1.73449
1.73449
1.73448
1.73448
1.73448
1.73448
1.73449
1.7345
1.73452
1.73454
1.73457
1.7346
1.73463
1.73467
1.73471
1.73476
1.73481
1.73487
1.73493
1.73499
1.73506
1.73513
1.7352
1.73528
1.73536
1.73544
1.73552
1.7356
1.73568
1.73576
1.73584
1.73592
1.736
1.73608
1.73616
1.73623
1.7363
1.73637
1.73643
1.7365
1.73655
1.73661
1.73666
1.73671
1.73675
1.73679
1.73683
1.73686
1.73689
1.73692
1.73694
1.73696
1.73698
1.737
1.73701
1.73702
1.73702
1.73703
1.73703
1.73703
1.73703
1.73703
1.73702
1.73702
1.73701
1.737
1.737
1.73699
1.73698
1.73696
1.73695
1.73694
1.73693
1.73691
1.7369
1.73689
1.73687
1.73686
1.73684
1.73683
1.73681
1.7368
1.73678
1.73677
1.73675
1.73674
1.73672
1.73671
1.73669
1.73668
1.73666
1.73665
1.73663
1.73662
1.73661
1.73659
1.73658
1.73656
1.73655
1.73654
1.73652
1.73651
1.73649
1.73648
1.73647
1.73645
1.73644
1.73642
1.73641
1.73639
1.73638
1.73636
1.73635
1.73633
1.73632
1.7363
1.73628
1.73627
1.73625
1.73623
1.73621
1.73619
1.73617
1.73615
1.73613
1.7361
1.73608
1.73605
1.73603
1.736
1.73597
1.73595
1.73591
1.73588
1.73585
1.73582
1.73578
1.73575
1.73571
1.73567
1.73563
1.73559
1.73554
1.7355
1.73545
1.7354
1.73536
1.73531
1.73526
1.7352
1.73515
1.7351
1.73504
1.73499
1.73493
1.73488
1.73482
1.73476
1.73471
1.73465
1.73459
1.73454
1.73448
1.73443
1.73438
1.73433
1.73428
1.73423
1.73419
1.73415
1.73411
1.73407
1.73404
1.73401
1.73399
1.73397
1.73395
1.73394
1.73394
1.73394
1.73395
1.73396
1.73398
1.73401
1.73404
1.73408
1.73413
1.73419
1.73425
1.73433
1.73441
1.7345
1.7346
1.73471
1.73482
1.73495
1.73509
1.73523
1.73538
1.73554
1.73572
1.7359
1.73608
1.73628
1.73648
1.73669
1.73691
1.73713
1.73736
1.7376
1.73783
1.73808
1.73832
1.73857
1.73882
1.73907
1.73931
1.73956
1.7398
1.74004
1.74028
1.74051
1.74073
1.74094
1.74115
1.74135
1.74153
1.7417
1.74186
1.74201
1.74214
1.74226
1.74236
1.74245
1.74252
1.74257
1.74261
1.74263
1.74263
1.74262
1.74259
1.74254
1.74247
1.74239
1.7423
1.74218
1.74206
1.74192
1.74177
1.74161
1.74143
1.74125
1.74106
1.74085
1.74065
1.74043
1.74021
1.73999
1.73976
1.73953
1.7393
1.73907
1.73884
1.73862
1.73839
1.73817
1.73795
1.73774
1.73754
1.73734
1.73714
1.73696
1.73678
1.73661
1.73646
1.73631
1.73617
1.73604
1.73592
1.73582
1.73573
1.73565
1.73558
1.73552
1.73548
1.73545
1.73544
1.73544
1.73545
1.73548
1.73553
1.73559
1.73566
1.73576
1.73587
1.736
1.73615
1.73632
1.73651
1.73672
1.73695
1.7372
1.73748
1.73778
1.73811
1.73846
1.73884
1.73925
1.73969
1.74016
1.74066
1.7412
1.74177
1.74237
1.74304
1.74374
1.74445
1.74524
1.74614
1.74701
1.74789
1.74904
1.75033
1.75127
1.75254
1.75478
1.75658
1.75695
1.76051
1.76666
1.76759
1.76424
1.78868
1.75096
1.72318
1.71342
1.73648
1.7392
1.72996
1.73173
1.73626
1.73505
1.73353
1.73467
1.73535
1.73483
1.73472
1.73508
1.73513
1.735
1.73505
1.73514
1.73513
1.73511
1.73514
1.73516
1.73515
1.73515
1.73516
1.73516
1.73515
1.73515
1.73515
1.73515
1.73514
1.73514
1.73513
1.73512
1.73511
1.7351
1.73509
1.73507
1.73506
1.73505
1.73503
1.73501
1.735
1.73498
1.73496
1.73494
1.73492
1.73489
1.73487
1.73485
1.73482
1.7348
1.73477
1.73475
1.73472
1.7347
1.73467
1.73465
1.73462
1.7346
1.73458
1.73456
1.73454
1.73452
1.7345
1.73449
1.73448
1.73447
1.73447
1.73447
1.73447
1.73447
1.73448
1.73449
1.73451
1.73453
1.73456
1.73459
1.73462
1.73466
1.73471
1.73475
1.73481
1.73486
1.73492
1.73499
1.73506
1.73513
1.7352
1.73528
1.73536
1.73544
1.73552
1.7356
1.73568
1.73577
1.73585
1.73593
1.73601
1.73609
1.73616
1.73623
1.7363
1.73637
1.73644
1.7365
1.73656
1.73661
1.73666
1.73671
1.73675
1.73679
1.73683
1.73686
1.73689
1.73692
1.73694
1.73696
1.73698
1.73699
1.737
1.73701
1.73702
1.73702
1.73703
1.73703
1.73703
1.73702
1.73702
1.73701
1.73701
1.737
1.73699
1.73698
1.73697
1.73696
1.73695
1.73693
1.73692
1.73691
1.73689
1.73688
1.73686
1.73685
1.73684
1.73682
1.73681
1.73679
1.73678
1.73676
1.73675
1.73673
1.73672
1.7367
1.73669
1.73667
1.73666
1.73664
1.73663
1.73662
1.7366
1.73659
1.73657
1.73656
1.73654
1.73653
1.73652
1.7365
1.73649
1.73648
1.73646
1.73645
1.73643
1.73642
1.7364
1.73639
1.73637
1.73636
1.73634
1.73633
1.73631
1.7363
1.73628
1.73626
1.73624
1.73623
1.73621
1.73619
1.73617
1.73614
1.73612
1.7361
1.73608
1.73605
1.73603
1.736
1.73597
1.73594
1.73591
1.73588
1.73585
1.73581
1.73578
1.73574
1.7357
1.73566
1.73562
1.73558
1.73554
1.73549
1.73545
1.7354
1.73535
1.7353
1.73525
1.7352
1.73515
1.73509
1.73504
1.73498
1.73493
1.73487
1.73481
1.73476
1.7347
1.73464
1.73459
1.73453
1.73448
1.73442
1.73437
1.73432
1.73427
1.73423
1.73418
1.73414
1.7341
1.73407
1.73403
1.73401
1.73398
1.73396
1.73395
1.73394
1.73393
1.73394
1.73394
1.73396
1.73398
1.734
1.73404
1.73408
1.73413
1.73419
1.73425
1.73433
1.73441
1.7345
1.7346
1.73471
1.73483
1.73495
1.73509
1.73523
1.73539
1.73555
1.73572
1.7359
1.73609
1.73629
1.73649
1.7367
1.73692
1.73715
1.73738
1.73761
1.73785
1.73809
1.73834
1.73859
1.73884
1.73909
1.73933
1.73958
1.73982
1.74006
1.7403
1.74053
1.74075
1.74097
1.74117
1.74137
1.74155
1.74172
1.74188
1.74203
1.74216
1.74228
1.74238
1.74246
1.74253
1.74258
1.74262
1.74264
1.74264
1.74262
1.74259
1.74254
1.74247
1.74239
1.74229
1.74218
1.74205
1.74191
1.74176
1.74159
1.74142
1.74123
1.74104
1.74083
1.74062
1.74041
1.74019
1.73996
1.73974
1.73951
1.73928
1.73905
1.73882
1.73859
1.73837
1.73815
1.73793
1.73772
1.73751
1.73731
1.73712
1.73694
1.73676
1.73659
1.73644
1.73629
1.73615
1.73602
1.73591
1.7358
1.73571
1.73563
1.73556
1.73551
1.73547
1.73544
1.73543
1.73543
1.73544
1.73547
1.73552
1.73558
1.73566
1.73575
1.73587
1.736
1.73615
1.73632
1.73651
1.73672
1.73695
1.7372
1.73748
1.73778
1.73811
1.73847
1.73885
1.73926
1.7397
1.74016
1.74067
1.74122
1.74177
1.74238
1.74308
1.74374
1.74441
1.74532
1.7462
1.74681
1.74793
1.74944
1.74989
1.75069
1.75381
1.75481
1.75324
1.75894
1.76549
1.75678
1.7599
1.78813
1.77796
1.73365
1.73029
1.73063
1.73327
1.73152
1.73292
1.73464
1.73398
1.73373
1.73455
1.73479
1.73454
1.73466
1.7349
1.73491
1.73487
1.73495
1.73501
1.73501
1.73502
1.73506
1.73507
1.73508
1.73509
1.7351
1.7351
1.7351
1.73511
1.73511
1.7351
1.7351
1.7351
1.7351
1.73509
1.73508
1.73507
1.73507
1.73506
1.73504
1.73503
1.73502
1.735
1.73499
1.73497
1.73495
1.73493
1.73492
1.73489
1.73487
1.73485
1.73483
1.7348
1.73478
1.73475
1.73473
1.7347
1.73468
1.73465
1.73463
1.73461
1.73458
1.73456
1.73454
1.73452
1.7345
1.73449
1.73448
1.73446
1.73446
1.73445
1.73445
1.73445
1.73446
1.73447
1.73448
1.7345
1.73452
1.73454
1.73458
1.73461
1.73465
1.7347
1.73475
1.7348
1.73486
1.73492
1.73498
1.73505
1.73513
1.7352
1.73528
1.73536
1.73544
1.73552
1.7356
1.73569
1.73577
1.73585
1.73593
1.73601
1.73609
1.73617
1.73624
1.73631
1.73638
1.73644
1.7365
1.73656
1.73662
1.73667
1.73671
1.73676
1.7368
1.73683
1.73686
1.73689
1.73692
1.73694
1.73696
1.73698
1.73699
1.737
1.73701
1.73702
1.73702
1.73702
1.73702
1.73702
1.73702
1.73701
1.73701
1.737
1.73699
1.73698
1.73697
1.73696
1.73695
1.73694
1.73693
1.73691
1.7369
1.73689
1.73687
1.73686
1.73684
1.73683
1.73682
1.7368
1.73679
1.73677
1.73676
1.73674
1.73673
1.73671
1.7367
1.73668
1.73667
1.73665
1.73664
1.73662
1.73661
1.7366
1.73658
1.73657
1.73655
1.73654
1.73653
1.73651
1.7365
1.73648
1.73647
1.73646
1.73644
1.73643
1.73642
1.7364
1.73639
1.73637
1.73636
1.73634
1.73633
1.73631
1.73629
1.73628
1.73626
1.73624
1.73622
1.7362
1.73618
1.73616
1.73614
1.73612
1.7361
1.73607
1.73605
1.73602
1.736
1.73597
1.73594
1.73591
1.73588
1.73584
1.73581
1.73577
1.73574
1.7357
1.73566
1.73562
1.73558
1.73553
1.73549
1.73544
1.7354
1.73535
1.7353
1.73525
1.7352
1.73514
1.73509
1.73503
1.73498
1.73492
1.73486
1.73481
1.73475
1.73469
1.73464
1.73458
1.73453
1.73447
1.73442
1.73436
1.73431
1.73426
1.73422
1.73417
1.73413
1.73409
1.73406
1.73403
1.734
1.73397
1.73395
1.73394
1.73393
1.73392
1.73393
1.73393
1.73395
1.73397
1.73399
1.73403
1.73407
1.73412
1.73418
1.73424
1.73432
1.7344
1.73449
1.73459
1.7347
1.73482
1.73495
1.73508
1.73523
1.73538
1.73555
1.73572
1.7359
1.73609
1.73629
1.73649
1.73671
1.73693
1.73715
1.73738
1.73762
1.73786
1.73811
1.73835
1.7386
1.73885
1.7391
1.73935
1.7396
1.73985
1.74009
1.74032
1.74055
1.74078
1.74099
1.7412
1.74139
1.74158
1.74175
1.74191
1.74206
1.74219
1.7423
1.7424
1.74249
1.74255
1.74261
1.74264
1.74265
1.74265
1.74264
1.7426
1.74255
1.74248
1.74239
1.74229
1.74218
1.74205
1.74191
1.74175
1.74158
1.74141
1.74122
1.74102
1.74082
1.74061
1.74039
1.74017
1.73994
1.73971
1.73948
1.73925
1.73902
1.73879
1.73856
1.73834
1.73812
1.7379
1.73769
1.73748
1.73728
1.73709
1.73691
1.73673
1.73656
1.73641
1.73626
1.73612
1.736
1.73588
1.73578
1.73568
1.73561
1.73554
1.73548
1.73544
1.73542
1.7354
1.7354
1.73542
1.73545
1.7355
1.73556
1.73564
1.73573
1.73585
1.73598
1.73613
1.7363
1.73649
1.7367
1.73693
1.73718
1.73746
1.73776
1.73809
1.73844
1.73882
1.73923
1.73967
1.74014
1.74064
1.74118
1.74176
1.74236
1.743
1.7437
1.74445
1.7452
1.74603
1.74697
1.74788
1.74885
1.75007
1.75123
1.75239
1.75406
1.75564
1.75697
1.75961
1.76241
1.76345
1.76939
1.76784
1.72224
1.73453
1.74013
1.72858
1.72888
1.73662
1.73498
1.73197
1.73397
1.73537
1.73432
1.73408
1.73483
1.73493
1.73466
1.73476
1.73496
1.73493
1.7349
1.73497
1.73501
1.735
1.73501
1.73504
1.73505
1.73505
1.73506
1.73506
1.73506
1.73506
1.73507
1.73506
1.73506
1.73506
1.73505
1.73504
1.73504
1.73503
1.73502
1.73501
1.73499
1.73498
1.73496
1.73495
1.73493
1.73491
1.73489
1.73487
1.73485
1.73483
1.73481
1.73478
1.73476
1.73474
1.73471
1.73469
1.73466
1.73464
1.73461
1.73459
1.73457
1.73454
1.73452
1.7345
1.73449
1.73447
1.73446
1.73445
1.73444
1.73443
1.73443
1.73443
1.73444
1.73445
1.73446
1.73448
1.7345
1.73453
1.73456
1.7346
1.73464
1.73468
1.73473
1.73479
1.73485
1.73491
1.73498
1.73505
1.73512
1.7352
1.73527
1.73535
1.73544
1.73552
1.7356
1.73569
1.73577
1.73585
1.73594
1.73602
1.7361
1.73617
1.73625
1.73632
1.73638
1.73645
1.73651
1.73657
1.73662
1.73667
1.73672
1.73676
1.7368
1.73684
1.73687
1.7369
1.73692
1.73694
1.73696
1.73698
1.73699
1.737
1.73701
1.73702
1.73702
1.73702
1.73702
1.73702
1.73702
1.73701
1.737
1.737
1.73699
1.73698
1.73697
1.73696
1.73695
1.73693
1.73692
1.73691
1.7369
1.73688
1.73687
1.73685
1.73684
1.73682
1.73681
1.73679
1.73678
1.73676
1.73675
1.73673
1.73672
1.73671
1.73669
1.73668
1.73666
1.73665
1.73663
1.73662
1.73661
1.73659
1.73658
1.73656
1.73655
1.73654
1.73652
1.73651
1.73649
1.73648
1.73647
1.73645
1.73644
1.73643
1.73641
1.7364
1.73638
1.73637
1.73635
1.73634
1.73632
1.73631
1.73629
1.73627
1.73626
1.73624
1.73622
1.7362
1.73618
1.73616
1.73614
1.73612
1.7361
1.73607
1.73605
1.73602
1.73599
1.73597
1.73594
1.73591
1.73588
1.73584
1.73581
1.73577
1.73574
1.7357
1.73566
1.73562
1.73558
1.73553
1.73549
1.73544
1.73539
1.73535
1.7353
1.73524
1.73519
1.73514
1.73508
1.73503
1.73497
1.73492
1.73486
1.7348
1.73475
1.73469
1.73463
1.73457
1.73452
1.73446
1.73441
1.73436
1.73431
1.73426
1.73421
1.73416
1.73412
1.73408
1.73405
1.73401
1.73398
1.73396
1.73394
1.73392
1.73391
1.73391
1.73391
1.73392
1.73393
1.73395
1.73398
1.73401
1.73406
1.7341
1.73416
1.73423
1.7343
1.73439
1.73448
1.73458
1.73469
1.73481
1.73493
1.73507
1.73522
1.73537
1.73554
1.73571
1.73589
1.73608
1.73628
1.73649
1.7367
1.73692
1.73715
1.73739
1.73762
1.73787
1.73811
1.73836
1.73861
1.73887
1.73912
1.73937
1.73962
1.73987
1.74011
1.74035
1.74058
1.74081
1.74102
1.74123
1.74143
1.74161
1.74179
1.74195
1.74209
1.74222
1.74234
1.74244
1.74252
1.74259
1.74264
1.74267
1.74269
1.74268
1.74266
1.74262
1.74257
1.7425
1.74241
1.74231
1.74219
1.74206
1.74191
1.74175
1.74158
1.7414
1.74121
1.74101
1.74081
1.74059
1.74037
1.74015
1.73992
1.73969
1.73946
1.73922
1.73899
1.73876
1.73853
1.7383
1.73808
1.73786
1.73765
1.73745
1.73725
1.73705
1.73687
1.73669
1.73653
1.73637
1.73622
1.73608
1.73596
1.73584
1.73574
1.73565
1.73557
1.7355
1.73545
1.73541
1.73538
1.73537
1.73537
1.73538
1.73542
1.73546
1.73552
1.7356
1.7357
1.73581
1.73594
1.73609
1.73626
1.73645
1.73666
1.73689
1.73714
1.73742
1.73772
1.73804
1.73839
1.73877
1.73917
1.73961
1.74009
1.74058
1.7411
1.74169
1.74229
1.74289
1.74361
1.74439
1.74504
1.74584
1.74697
1.74774
1.74833
1.75002
1.7515
1.75117
1.75294
1.75726
1.75606
1.75388
1.7638
1.7677
1.75564
1.76137
1.73474
1.73239
1.73074
1.733
1.7355
1.73312
1.73228
1.73463
1.7349
1.73377
1.73413
1.73487
1.73468
1.73447
1.73474
1.73489
1.7348
1.73481
1.73492
1.73494
1.73493
1.73495
1.73499
1.73499
1.735
1.73501
1.73502
1.73502
1.73503
1.73503
1.73503
1.73503
1.73503
1.73503
1.73502
1.73502
1.73501
1.735
1.73499
1.73498
1.73497
1.73496
1.73494
1.73493
1.73491
1.73489
1.73487
1.73485
1.73483
1.73481
1.73479
1.73477
1.73474
1.73472
1.7347
1.73467
1.73465
1.73462
1.7346
1.73457
1.73455
1.73453
1.73451
1.73449
1.73447
1.73446
1.73444
1.73443
1.73442
1.73442
1.73442
1.73442
1.73442
1.73443
1.73445
1.73447
1.73449
1.73452
1.73455
1.73458
1.73463
1.73467
1.73472
1.73478
1.73484
1.7349
1.73497
1.73504
1.73511
1.73519
1.73527
1.73535
1.73544
1.73552
1.7356
1.73569
1.73577
1.73586
1.73594
1.73602
1.7361
1.73618
1.73625
1.73632
1.73639
1.73646
1.73652
1.73658
1.73663
1.73668
1.73673
1.73677
1.73681
1.73684
1.73687
1.7369
1.73693
1.73695
1.73696
1.73698
1.73699
1.737
1.73701
1.73702
1.73702
1.73702
1.73702
1.73702
1.73701
1.73701
1.737
1.73699
1.73699
1.73698
1.73697
1.73695
1.73694
1.73693
1.73692
1.7369
1.73689
1.73688
1.73686
1.73685
1.73683
1.73682
1.7368
1.73679
1.73677
1.73676
1.73674
1.73673
1.73671
1.7367
1.73669
1.73667
1.73666
1.73664
1.73663
1.73661
1.7366
1.73659
1.73657
1.73656
1.73654
1.73653
1.73652
1.7365
1.73649
1.73648
1.73646
1.73645
1.73644
1.73642
1.73641
1.73639
1.73638
1.73636
1.73635
1.73633
1.73632
1.7363
1.73629
1.73627
1.73625
1.73624
1.73622
1.7362
1.73618
1.73616
1.73614
1.73612
1.73609
1.73607
1.73605
1.73602
1.73599
1.73597
1.73594
1.73591
1.73587
1.73584
1.73581
1.73577
1.73574
1.7357
1.73566
1.73562
1.73558
1.73553
1.73549
1.73544
1.73539
1.73534
1.73529
1.73524
1.73519
1.73514
1.73508
1.73503
1.73497
1.73491
1.73486
1.7348
1.73474
1.73468
1.73462
1.73457
1.73451
1.73445
1.7344
1.73435
1.7343
1.73425
1.7342
1.73415
1.73411
1.73407
1.73403
1.734
1.73397
1.73394
1.73392
1.73391
1.7339
1.73389
1.73389
1.7339
1.73391
1.73393
1.73396
1.73399
1.73403
1.73408
1.73414
1.73421
1.73428
1.73436
1.73446
1.73456
1.73467
1.73478
1.73491
1.73505
1.7352
1.73535
1.73552
1.73569
1.73588
1.73607
1.73627
1.73648
1.73669
1.73692
1.73715
1.73738
1.73762
1.73787
1.73812
1.73837
1.73862
1.73888
1.73913
1.73939
1.73964
1.73989
1.74014
1.74038
1.74061
1.74084
1.74106
1.74127
1.74147
1.74165
1.74183
1.74199
1.74214
1.74227
1.74238
1.74248
1.74257
1.74263
1.74268
1.74271
1.74273
1.74272
1.7427
1.74266
1.7426
1.74253
1.74244
1.74233
1.74221
1.74207
1.74192
1.74176
1.74159
1.7414
1.74121
1.74101
1.7408
1.74058
1.74036
1.74013
1.7399
1.73967
1.73943
1.7392
1.73896
1.73873
1.7385
1.73827
1.73805
1.73783
1.73761
1.7374
1.7372
1.73701
1.73683
1.73665
1.73648
1.73633
1.73618
1.73604
1.73591
1.7358
1.7357
1.7356
1.73553
1.73546
1.7354
1.73536
1.73534
1.73532
1.73532
1.73534
1.73537
1.73542
1.73548
1.73555
1.73565
1.73576
1.73589
1.73604
1.7362
1.73639
1.7366
1.73683
1.73708
1.73735
1.73765
1.73797
1.73832
1.73869
1.7391
1.73952
1.73998
1.74048
1.74101
1.74156
1.74217
1.74281
1.74345
1.74416
1.74498
1.74572
1.74649
1.74756
1.74851
1.74919
1.75051
1.75213
1.75253
1.75343
1.75651
1.75761
1.75706
1.76009
1.76106
1.76166
1.73777
1.73228
1.73017
1.73569
1.7351
1.73157
1.73368
1.73546
1.73392
1.73362
1.73478
1.73481
1.73433
1.73456
1.73487
1.73477
1.73471
1.73485
1.7349
1.73487
1.73489
1.73494
1.73495
1.73495
1.73497
1.73499
1.73499
1.73499
1.735
1.73501
1.73501
1.73501
1.73501
1.735
1.735
1.73499
1.73499
1.73498
1.73497
1.73496
1.73495
1.73494
1.73492
1.73491
1.73489
1.73488
1.73486
1.73484
1.73482
1.7348
1.73477
1.73475
1.73473
1.7347
1.73468
1.73466
1.73463
1.73461
1.73458
1.73456
1.73454
1.73451
1.73449
1.73447
1.73446
1.73444
1.73443
1.73442
1.73441
1.7344
1.7344
1.7344
1.73441
1.73442
1.73443
1.73445
1.73447
1.7345
1.73453
1.73457
1.73461
1.73466
1.73471
1.73477
1.73483
1.73489
1.73496
1.73503
1.73511
1.73519
1.73527
1.73535
1.73543
1.73552
1.73561
1.73569
1.73578
1.73586
1.73595
1.73603
1.73611
1.73619
1.73626
1.73633
1.7364
1.73647
1.73653
1.73658
1.73664
1.73669
1.73673
1.73678
1.73681
1.73685
1.73688
1.73691
1.73693
1.73695
1.73697
1.73698
1.73699
1.737
1.73701
1.73702
1.73702
1.73702
1.73702
1.73701
1.73701
1.737
1.737
1.73699
1.73698
1.73697
1.73696
1.73695
1.73694
1.73692
1.73691
1.7369
1.73688
1.73687
1.73686
1.73684
1.73683
1.73681
1.7368
1.73678
1.73677
1.73675
1.73674
1.73672
1.73671
1.73669
1.73668
1.73667
1.73665
1.73664
1.73662
1.73661
1.73659
1.73658
1.73657
1.73655
1.73654
1.73653
1.73651
1.7365
1.73649
1.73647
1.73646
1.73644
1.73643
1.73642
1.7364
1.73639
1.73638
1.73636
1.73635
1.73633
1.73632
1.7363
1.73628
1.73627
1.73625
1.73623
1.73622
1.7362
1.73618
1.73616
1.73614
1.73612
1.73609
1.73607
1.73604
1.73602
1.73599
1.73596
1.73594
1.73591
1.73587
1.73584
1.73581
1.73577
1.73574
1.7357
1.73566
1.73562
1.73558
1.73553
1.73549
1.73544
1.73539
1.73534
1.73529
1.73524
1.73519
1.73513
1.73508
1.73502
1.73497
1.73491
1.73485
1.73479
1.73473
1.73468
1.73462
1.73456
1.7345
1.73445
1.73439
1.73434
1.73428
1.73423
1.73419
1.73414
1.7341
1.73405
1.73402
1.73398
1.73395
1.73393
1.73391
1.73389
1.73388
1.73387
1.73387
1.73388
1.73389
1.73391
1.73394
1.73397
1.73401
1.73406
1.73412
1.73418
1.73425
1.73434
1.73443
1.73453
1.73464
1.73476
1.73489
1.73502
1.73517
1.73533
1.73549
1.73567
1.73585
1.73605
1.73625
1.73646
1.73668
1.7369
1.73713
1.73737
1.73761
1.73786
1.73811
1.73837
1.73862
1.73888
1.73914
1.7394
1.73965
1.73991
1.74016
1.7404
1.74064
1.74087
1.74109
1.7413
1.74151
1.7417
1.74187
1.74204
1.74218
1.74232
1.74243
1.74253
1.74262
1.74268
1.74273
1.74276
1.74277
1.74277
1.74274
1.7427
1.74264
1.74256
1.74247
1.74236
1.74223
1.74209
1.74194
1.74177
1.7416
1.74141
1.74121
1.741
1.74079
1.74057
1.74034
1.74011
1.73988
1.73964
1.7394
1.73917
1.73893
1.73869
1.73846
1.73823
1.738
1.73778
1.73757
1.73736
1.73716
1.73696
1.73678
1.7366
1.73643
1.73628
1.73613
1.73599
1.73586
1.73575
1.73565
1.73555
1.73547
1.73541
1.73535
1.73531
1.73528
1.73527
1.73527
1.73529
1.73531
1.73536
1.73542
1.7355
1.73559
1.7357
1.73583
1.73597
1.73614
1.73632
1.73652
1.73675
1.737
1.73726
1.73756
1.73788
1.73822
1.73859
1.73899
1.73941
1.73986
1.74035
1.74088
1.74141
1.74199
1.74265
1.74328
1.74391
1.74475
1.74557
1.74614
1.7471
1.74841
1.74888
1.74942
1.75167
1.75287
1.75173
1.75415
1.75843
1.75553
1.75476
1.76201
1.75968
1.73198
1.73421
1.73564
1.73319
1.73212
1.73479
1.7352
1.73328
1.73375
1.73507
1.73461
1.7341
1.73462
1.7349
1.73464
1.73463
1.73485
1.73486
1.7348
1.73486
1.73492
1.73491
1.73491
1.73494
1.73496
1.73496
1.73497
1.73498
1.73498
1.73498
1.73499
1.73499
1.73499
1.73498
1.73498
1.73498
1.73497
1.73496
1.73495
1.73494
1.73493
1.73492
1.73491
1.73489
1.73488
1.73486
1.73484
1.73482
1.7348
1.73478
1.73476
1.73474
1.73471
1.73469
1.73467
1.73464
1.73462
1.73459
1.73457
1.73455
1.73452
1.7345
1.73448
1.73446
1.73444
1.73443
1.73441
1.7344
1.73439
1.73439
1.73439
1.73439
1.7344
1.7344
1.73442
1.73444
1.73446
1.73449
1.73452
1.73456
1.7346
1.73465
1.7347
1.73476
1.73482
1.73488
1.73495
1.73503
1.7351
1.73518
1.73526
1.73535
1.73543
1.73552
1.73561
1.73569
1.73578
1.73587
1.73595
1.73603
1.73611
1.73619
1.73627
1.73634
1.73641
1.73647
1.73653
1.73659
1.73665
1.7367
1.73674
1.73678
1.73682
1.73685
1.73688
1.73691
1.73693
1.73695
1.73697
1.73699
1.737
1.73701
1.73701
1.73702
1.73702
1.73702
1.73702
1.73701
1.73701
1.737
1.737
1.73699
1.73698
1.73697
1.73696
1.73695
1.73693
1.73692
1.73691
1.73689
1.73688
1.73687
1.73685
1.73684
1.73682
1.73681
1.73679
1.73678
1.73676
1.73675
1.73673
1.73672
1.7367
1.73669
1.73667
1.73666
1.73665
1.73663
1.73662
1.7366
1.73659
1.73658
1.73656
1.73655
1.73654
1.73652
1.73651
1.73649
1.73648
1.73647
1.73645
1.73644
1.73643
1.73641
1.7364
1.73639
1.73637
1.73636
1.73634
1.73633
1.73631
1.7363
1.73628
1.73627
1.73625
1.73623
1.73621
1.7362
1.73618
1.73616
1.73614
1.73611
1.73609
1.73607
1.73604
1.73602
1.73599
1.73597
1.73594
1.73591
1.73588
1.73584
1.73581
1.73577
1.73574
1.7357
1.73566
1.73562
1.73558
1.73553
1.73549
1.73544
1.73539
1.73534
1.73529
1.73524
1.73519
1.73513
1.73508
1.73502
1.73496
1.7349
1.73485
1.73479
1.73473
1.73467
1.73461
1.73455
1.73449
1.73444
1.73438
1.73433
1.73427
1.73422
1.73417
1.73413
1.73408
1.73404
1.734
1.73397
1.73393
1.73391
1.73389
1.73387
1.73386
1.73385
1.73385
1.73385
1.73386
1.73388
1.73391
1.73394
1.73398
1.73403
1.73409
1.73415
1.73422
1.73431
1.7344
1.7345
1.73461
1.73473
1.73485
1.73499
1.73514
1.7353
1.73546
1.73564
1.73583
1.73602
1.73622
1.73643
1.73665
1.73688
1.73711
1.73735
1.7376
1.73785
1.7381
1.73836
1.73862
1.73888
1.73914
1.73941
1.73967
1.73992
1.74018
1.74042
1.74067
1.7409
1.74113
1.74134
1.74155
1.74174
1.74192
1.74208
1.74223
1.74237
1.74249
1.74259
1.74267
1.74274
1.74278
1.74281
1.74282
1.74281
1.74279
1.74274
1.74268
1.7426
1.7425
1.74239
1.74226
1.74211
1.74196
1.74179
1.7416
1.74141
1.74121
1.741
1.74078
1.74056
1.74033
1.74009
1.73985
1.73961
1.73937
1.73913
1.73889
1.73865
1.73842
1.73819
1.73796
1.73774
1.73752
1.73731
1.73711
1.73691
1.73673
1.73655
1.73638
1.73622
1.73607
1.73594
1.73581
1.73569
1.73559
1.7355
1.73542
1.73535
1.7353
1.73525
1.73523
1.73521
1.73521
1.73522
1.73525
1.7353
1.73535
1.73543
1.73552
1.73563
1.73575
1.73589
1.73606
1.73624
1.73644
1.73666
1.7369
1.73716
1.73745
1.73776
1.7381
1.73846
1.73885
1.73927
1.73972
1.74019
1.7407
1.74125
1.7418
1.74239
1.74308
1.74374
1.74436
1.7452
1.74609
1.74666
1.74747
1.74884
1.74956
1.74976
1.75151
1.75331
1.7527
1.75349
1.75637
1.75615
1.75563
1.75602
1.73269
1.73453
1.73505
1.73295
1.73377
1.73519
1.7339
1.7336
1.73484
1.73473
1.73411
1.73452
1.73488
1.73464
1.73458
1.73481
1.73485
1.73477
1.73482
1.7349
1.73489
1.73488
1.73492
1.73494
1.73494
1.73495
1.73496
1.73497
1.73497
1.73497
1.73497
1.73497
1.73497
1.73497
1.73497
1.73496
1.73496
1.73495
1.73494
1.73493
1.73492
1.73491
1.7349
1.73488
1.73487
1.73485
1.73483
1.73481
1.73479
1.73477
1.73475
1.73473
1.7347
1.73468
1.73466
1.73463
1.73461
1.73458
1.73456
1.73454
1.73451
1.73449
1.73447
1.73445
1.73443
1.73442
1.7344
1.73439
1.73438
1.73438
1.73438
1.73438
1.73438
1.73439
1.73441
1.73443
1.73445
1.73448
1.73451
1.73455
1.73459
1.73464
1.73469
1.73475
1.73481
1.73488
1.73495
1.73502
1.7351
1.73518
1.73526
1.73534
1.73543
1.73552
1.73561
1.73569
1.73578
1.73587
1.73595
1.73604
1.73612
1.7362
1.73627
1.73635
1.73642
1.73648
1.73654
1.7366
1.73665
1.7367
1.73675
1.73679
1.73683
1.73686
1.73689
1.73691
1.73694
1.73696
1.73697
1.73699
1.737
1.73701
1.73701
1.73702
1.73702
1.73702
1.73701
1.73701
1.73701
1.737
1.73699
1.73698
1.73697
1.73696
1.73695
1.73694
1.73693
1.73692
1.7369
1.73689
1.73687
1.73686
1.73685
1.73683
1.73682
1.7368
1.73679
1.73677
1.73676
1.73674
1.73673
1.73671
1.7367
1.73668
1.73667
1.73666
1.73664
1.73663
1.73661
1.7366
1.73659
1.73657
1.73656
1.73654
1.73653
1.73652
1.7365
1.73649
1.73648
1.73646
1.73645
1.73644
1.73642
1.73641
1.7364
1.73638
1.73637
1.73636
1.73634
1.73633
1.73631
1.7363
1.73628
1.73626
1.73625
1.73623
1.73621
1.7362
1.73618
1.73616
1.73614
1.73611
1.73609
1.73607
1.73604
1.73602
1.73599
1.73597
1.73594
1.73591
1.73588
1.73584
1.73581
1.73577
1.73574
1.7357
1.73566
1.73562
1.73558
1.73553
1.73549
1.73544
1.73539
1.73534
1.73529
1.73524
1.73518
1.73513
1.73507
1.73502
1.73496
1.7349
1.73484
1.73478
1.73472
1.73466
1.7346
1.73455
1.73449
1.73443
1.73437
1.73432
1.73426
1.73421
1.73416
1.73411
1.73407
1.73402
1.73398
1.73395
1.73392
1.73389
1.73386
1.73385
1.73383
1.73382
1.73382
1.73383
1.73384
1.73385
1.73388
1.73391
1.73395
1.734
1.73405
1.73412
1.73419
1.73427
1.73436
1.73446
1.73457
1.73469
1.73482
1.73496
1.7351
1.73526
1.73543
1.73561
1.73579
1.73599
1.73619
1.7364
1.73662
1.73685
1.73709
1.73733
1.73758
1.73783
1.73809
1.73835
1.73861
1.73888
1.73914
1.73941
1.73967
1.73993
1.74019
1.74044
1.74069
1.74093
1.74116
1.74137
1.74158
1.74178
1.74196
1.74213
1.74228
1.74242
1.74254
1.74264
1.74272
1.74279
1.74284
1.74286
1.74287
1.74286
1.74283
1.74278
1.74272
1.74263
1.74253
1.74241
1.74228
1.74213
1.74197
1.7418
1.74161
1.74141
1.74121
1.74099
1.74077
1.74054
1.74031
1.74007
1.73983
1.73958
1.73934
1.7391
1.73885
1.73861
1.73837
1.73814
1.73791
1.73769
1.73747
1.73726
1.73705
1.73686
1.73667
1.73649
1.73632
1.73616
1.73601
1.73588
1.73575
1.73563
1.73553
1.73544
1.73536
1.73529
1.73523
1.73519
1.73516
1.73515
1.73514
1.73516
1.73518
1.73523
1.73528
1.73535
1.73544
1.73555
1.73567
1.73581
1.73597
1.73614
1.73634
1.73656
1.73679
1.73705
1.73733
1.73764
1.73797
1.73832
1.7387
1.73911
1.73955
1.74001
1.74049
1.74104
1.7416
1.74215
1.74278
1.7435
1.7441
1.74474
1.74569
1.74647
1.7469
1.74794
1.74932
1.74949
1.7499
1.75219
1.75279
1.75165
1.75425
1.75585
1.75293
1.7542
1.73567
1.7339
1.733
1.7348
1.73523
1.7335
1.73374
1.73518
1.73466
1.73391
1.7346
1.73499
1.73454
1.73451
1.73486
1.73485
1.73471
1.7348
1.7349
1.73487
1.73486
1.73491
1.73493
1.73492
1.73493
1.73495
1.73495
1.73495
1.73496
1.73497
1.73497
1.73497
1.73497
1.73496
1.73496
1.73495
1.73495
1.73494
1.73493
1.73492
1.73491
1.7349
1.73489
1.73487
1.73486
1.73484
1.73482
1.7348
1.73478
1.73476
1.73474
1.73472
1.7347
1.73467
1.73465
1.73462
1.7346
1.73458
1.73455
1.73453
1.73451
1.73448
1.73446
1.73444
1.73443
1.73441
1.7344
1.73438
1.73438
1.73437
1.73437
1.73437
1.73438
1.73439
1.7344
1.73442
1.73444
1.73447
1.7345
1.73454
1.73458
1.73463
1.73468
1.73474
1.7348
1.73487
1.73494
1.73502
1.73509
1.73517
1.73526
1.73534
1.73543
1.73552
1.73561
1.7357
1.73578
1.73587
1.73596
1.73604
1.73612
1.7362
1.73628
1.73635
1.73642
1.73648
1.73655
1.7366
1.73666
1.73671
1.73675
1.73679
1.73683
1.73686
1.73689
1.73692
1.73694
1.73696
1.73697
1.73699
1.737
1.73701
1.73701
1.73701
1.73702
1.73701
1.73701
1.73701
1.737
1.737
1.73699
1.73698
1.73697
1.73696
1.73695
1.73694
1.73692
1.73691
1.7369
1.73688
1.73687
1.73686
1.73684
1.73683
1.73681
1.7368
1.73678
1.73677
1.73675
1.73674
1.73672
1.73671
1.73669
1.73668
1.73666
1.73665
1.73664
1.73662
1.73661
1.73659
1.73658
1.73657
1.73655
1.73654
1.73653
1.73651
1.7365
1.73649
1.73647
1.73646
1.73645
1.73643
1.73642
1.73641
1.73639
1.73638
1.73637
1.73635
1.73634
1.73632
1.73631
1.7363