# vtk DataFile Version 2.0
LBE two cylinders
ASCII
DATASET STRUCTURED_POINTS
DIMENSIONS 400 100 1
ASPECT_RATIO 1 1 1
ORIGIN 0 0 0
POINT_DATA 40000
SCALARS rho double 1
LOOKUP_TABLE default
1.52002
1.57046
1.58328
1.56448
1.56573
1.57432
1.57359
1.57115
1.5731
1.57504
1.57507
1.57556
1.57697
1.5781
1.57896
1.5801
1.58141
1.58261
1.58381
1.5851
1.58638
1.5876
1.5888
1.58997
1.59108
1.59211
1.59307
1.59394
1.59472
1.5954
1.59599
1.59649
1.5969
1.59723
1.59751
1.59774
1.59794
1.59812
1.59832
1.59852
1.59876
1.59904
1.59935
1.5997
1.60009
1.60049
1.60089
1.60129
1.60165
1.60197
1.60223
1.60242
1.60252
1.60255
1.60248
1.60231
1.60204
1.60166
1.60116
1.60053
1.59978
1.59889
1.5979
1.59681
1.59565
1.59445
1.59323
1.59202
1.59083
1.58966
1.5885
1.58734
1.58616
1.58492
1.58359
1.58217
1.58063
1.57898
1.57724
1.57545
1.57365
1.5719
1.57024
1.56874
1.56741
1.56628
1.56536
1.56462
1.56404
1.56359
1.56322
1.56291
1.56262
1.56232
1.56199
1.56164
1.56126
1.56085
1.56042
1.55998
1.55952
1.55906
1.55859
1.55813
1.55767
1.55724
1.55685
1.55652
1.55629
1.55621
1.55632
1.55665
1.55726
1.55817
1.55941
1.56098
1.56288
1.5651
1.56761
1.57037
1.57334
1.57647
1.5797
1.58295
1.58614
1.58917
1.59194
1.59436
1.59636
1.59792
1.59902
1.5997
1.60003
1.60009
1.59996
1.59974
1.59952
1.59937
1.59934
1.59948
1.5998
1.60031
1.60099
1.60183
1.6028
1.60384
1.60492
1.606
1.60702
1.60794
1.60873
1.60936
1.60981
1.61008
1.61019
1.61016
1.60999
1.60974
1.6094
1.60901
1.60856
1.60807
1.60753
1.60693
1.60626
1.60552
1.6047
1.6038
1.60283
1.60179
1.6007
1.59956
1.5984
1.59722
1.59602
1.59481
1.59358
1.59235
1.59109
1.58981
1.5885
1.58718
1.58583
1.58446
1.58309
1.58173
1.5804
1.57911
1.57787
1.57671
1.57564
1.57467
1.57382
1.57309
1.57249
1.57202
1.5717
1.57151
1.57146
1.57154
1.57175
1.57208
1.57253
1.5731
1.57377
1.57455
1.57543
1.57641
1.5775
1.57868
1.57996
1.58134
1.58282
1.58438
1.58603
1.58776
1.58955
1.59139
1.59326
1.59513
1.59698
1.59878
1.60051
1.60213
1.60361
1.60495
1.6061
1.60707
1.60784
1.60842
1.60882
1.60905
1.60914
1.60911
1.60901
1.60887
1.60872
1.6086
1.60852
1.60852
1.6086
1.60878
1.60905
1.60943
1.60991
1.61048
1.61114
1.61188
1.61268
1.61353
1.61439
1.61524
1.61604
1.61672
1.61722
1.61746
1.61738
1.61691
1.61598
1.6146
1.61275
1.6105
1.60794
1.60516
1.6023
1.59946
1.59676
1.59427
1.59203
1.59007
1.58837
1.58691
1.58565
1.58453
1.5835
1.58251
1.58151
1.58047
1.57936
1.57817
1.57689
1.57554
1.57414
1.57273
1.57133
1.56999
1.56874
1.56763
1.56667
1.56589
1.5653
1.56489
1.56468
1.56464
1.56477
1.56504
1.56545
1.56598
1.56659
1.56726
1.56797
1.56869
1.56939
1.57004
1.5706
1.57108
1.57146
1.57174
1.57196
1.57215
1.57236
1.57264
1.57306
1.57366
1.57449
1.5756
1.57698
1.57865
1.58055
1.58265
1.58486
1.58708
1.58924
1.59125
1.59305
1.59463
1.59599
1.5972
1.59833
1.59946
1.60069
1.6021
1.60372
1.60558
1.60766
1.60988
1.61217
1.61443
1.61657
1.6185
1.62018
1.62156
1.62266
1.62349
1.62407
1.62444
1.62461
1.62459
1.6244
1.62401
1.62345
1.62271
1.6218
1.62077
1.61963
1.61844
1.61724
1.61607
1.61496
1.61395
1.61306
1.6123
1.61167
1.61118
1.61084
1.61063
1.61055
1.61057
1.61067
1.61081
1.61094
1.61102
1.61098
1.61077
1.61036
1.60971
1.60882
1.60768
1.60633
1.60485
1.60321
1.60145
1.59976
1.59811
1.59633
1.59471
1.59358
1.59221
1.59063
1.59045
1.59051
1.58854
1.58882
1.59312
1.5908
1.58721
1.60095
1.60675
1.58042
1.61324
1.53792
1.55916
1.57271
1.56743
1.56824
1.57171
1.57239
1.57205
1.57317
1.57442
1.57506
1.57581
1.57693
1.57802
1.57905
1.58018
1.5814
1.58262
1.58384
1.58508
1.58632
1.58753
1.58871
1.58985
1.59093
1.59194
1.59287
1.59373
1.5945
1.59518
1.59577
1.59627
1.5967
1.59706
1.59735
1.59761
1.59783
1.59803
1.59824
1.59846
1.59871
1.59899
1.5993
1.59965
1.60002
1.60041
1.60081
1.60119
1.60154
1.60185
1.6021
1.60228
1.60239
1.6024
1.60233
1.60216
1.60189
1.60151
1.60102
1.6004
1.59967
1.59882
1.59786
1.59681
1.59568
1.59451
1.59332
1.59213
1.59094
1.58978
1.58861
1.58745
1.58625
1.58501
1.58368
1.58227
1.58074
1.57911
1.5774
1.57563
1.57386
1.57212
1.57047
1.56895
1.5676
1.56644
1.56547
1.56468
1.56404
1.56353
1.5631
1.56274
1.5624
1.56207
1.56173
1.56136
1.56098
1.56058
1.56017
1.55974
1.55931
1.55888
1.55845
1.55802
1.55761
1.55723
1.55689
1.55663
1.55647
1.55645
1.55662
1.55702
1.55767
1.55862
1.55989
1.56147
1.56337
1.56557
1.56805
1.57078
1.57371
1.57679
1.57997
1.58316
1.58627
1.58921
1.59188
1.59421
1.59615
1.59766
1.59874
1.59944
1.5998
1.5999
1.59983
1.59966
1.59949
1.59938
1.59939
1.59954
1.59987
1.60038
1.60106
1.60189
1.60283
1.60386
1.60493
1.60598
1.60698
1.60788
1.60866
1.60927
1.60972
1.60999
1.6101
1.61007
1.60991
1.60966
1.60932
1.60891
1.60845
1.60794
1.60737
1.60675
1.60606
1.6053
1.60448
1.60359
1.60263
1.60162
1.60055
1.59945
1.59832
1.59717
1.596
1.59481
1.5936
1.59238
1.59113
1.58986
1.58856
1.58724
1.5859
1.58455
1.58319
1.58185
1.58053
1.57926
1.57804
1.5769
1.57584
1.57489
1.57405
1.57333
1.57273
1.57227
1.57195
1.57176
1.57171
1.57179
1.57199
1.57232
1.57277
1.57333
1.574
1.57477
1.57565
1.57663
1.57771
1.57889
1.58017
1.58154
1.583
1.58455
1.58619
1.58789
1.58966
1.59146
1.59329
1.59512
1.59693
1.59869
1.60037
1.60196
1.60341
1.60471
1.60585
1.6068
1.60758
1.60816
1.60857
1.60882
1.60894
1.60894
1.60887
1.60876
1.60863
1.60852
1.60846
1.60846
1.60855
1.60872
1.609
1.60937
1.60984
1.61041
1.61106
1.61179
1.61258
1.61341
1.61426
1.61508
1.61585
1.61649
1.61696
1.61718
1.61708
1.61661
1.61571
1.61437
1.61259
1.61042
1.60794
1.60525
1.60245
1.59967
1.59701
1.59454
1.5923
1.59033
1.58862
1.58715
1.58587
1.58474
1.5837
1.58271
1.58171
1.58068
1.57959
1.57842
1.57716
1.57584
1.57446
1.57306
1.57168
1.57035
1.56911
1.56799
1.56702
1.56622
1.56559
1.56515
1.5649
1.56481
1.56489
1.56512
1.56548
1.56595
1.56651
1.56714
1.5678
1.56848
1.56914
1.56975
1.5703
1.57077
1.57116
1.57147
1.57174
1.57199
1.57227
1.57263
1.57312
1.57378
1.57468
1.57582
1.57722
1.57888
1.58076
1.5828
1.58494
1.58709
1.58916
1.59111
1.59287
1.59444
1.59583
1.59709
1.59829
1.5995
1.60081
1.60227
1.60392
1.60577
1.60779
1.60994
1.61213
1.61429
1.61633
1.61818
1.61981
1.62119
1.6223
1.62316
1.62378
1.62418
1.62438
1.62438
1.62419
1.62382
1.62326
1.62252
1.62163
1.62062
1.61952
1.61836
1.6172
1.61606
1.61499
1.614
1.61312
1.61236
1.61174
1.61125
1.6109
1.61068
1.61058
1.61058
1.61065
1.61076
1.61086
1.61089
1.61082
1.61058
1.61015
1.60949
1.6086
1.60749
1.60619
1.60471
1.60311
1.60146
1.59977
1.59806
1.59643
1.59495
1.59353
1.59219
1.59125
1.59063
1.58983
1.58952
1.59036
1.59097
1.59045
1.59313
1.59826
1.59865
1.5954
1.61766
1.58542
1.56039
1.55177
1.57288
1.57563
1.56768
1.56977
1.57442
1.57397
1.57329
1.57508
1.57657
1.57703
1.57791
1.57929
1.58044
1.58147
1.58268
1.58394
1.58512
1.58629
1.58747
1.58861
1.58969
1.59072
1.5917
1.5926
1.59343
1.59419
1.59486
1.59546
1.59598
1.59642
1.5968
1.59713
1.59741
1.59766
1.5979
1.59813
1.59836
1.59862
1.5989
1.59922
1.59956
1.59993
1.60031
1.60069
1.60107
1.60141
1.60171
1.60195
1.60212
1.60221
1.60222
1.60214
1.60197
1.6017
1.60134
1.60086
1.60028
1.59959
1.59878
1.59787
1.59687
1.59579
1.59466
1.5935
1.59233
1.59116
1.59
1.58884
1.58767
1.58647
1.58522
1.5839
1.58248
1.58096
1.57934
1.57764
1.57587
1.57409
1.57233
1.57065
1.5691
1.5677
1.56648
1.56544
1.56457
1.56385
1.56326
1.56276
1.56233
1.56193
1.56156
1.56118
1.5608
1.56042
1.56003
1.55964
1.55925
1.55887
1.5585
1.55813
1.55778
1.55745
1.55715
1.55691
1.55674
1.55667
1.55675
1.55701
1.55748
1.5582
1.5592
1.56049
1.56209
1.56398
1.56616
1.56862
1.57131
1.5742
1.57724
1.58037
1.58349
1.58653
1.58939
1.59198
1.59423
1.5961
1.59756
1.59863
1.59932
1.5997
1.59983
1.59979
1.59967
1.59953
1.59944
1.59946
1.59963
1.59995
1.60045
1.60112
1.60194
1.60287
1.60389
1.60494
1.60599
1.60698
1.60788
1.60864
1.60925
1.60969
1.60996
1.61007
1.61003
1.60987
1.60959
1.60922
1.60879
1.60828
1.60773
1.60712
1.60646
1.60574
1.60497
1.60414
1.60326
1.60233
1.60135
1.60034
1.59929
1.59821
1.5971
1.59598
1.59483
1.59365
1.59246
1.59123
1.58998
1.58871
1.5874
1.58608
1.58475
1.58342
1.5821
1.5808
1.57955
1.57835
1.57723
1.5762
1.57526
1.57443
1.57372
1.57314
1.57268
1.57236
1.57217
1.57212
1.57219
1.57239
1.57272
1.57316
1.57371
1.57438
1.57515
1.57602
1.577
1.57807
1.57924
1.58051
1.58186
1.5833
1.58483
1.58643
1.5881
1.58982
1.59157
1.59335
1.59512
1.59686
1.59856
1.60019
1.60172
1.60312
1.60439
1.6055
1.60644
1.60721
1.6078
1.60823
1.6085
1.60864
1.60868
1.60863
1.60854
1.60844
1.60835
1.6083
1.60831
1.6084
1.60857
1.60885
1.60922
1.6097
1.61026
1.61091
1.61164
1.61242
1.61324
1.61407
1.61488
1.61563
1.61626
1.61671
1.61693
1.61684
1.6164
1.61554
1.61426
1.61255
1.61046
1.60805
1.60542
1.60268
1.59994
1.5973
1.59485
1.59263
1.59066
1.58895
1.58748
1.58621
1.58509
1.58406
1.58309
1.58212
1.58111
1.58004
1.5789
1.57767
1.57636
1.575
1.57362
1.57224
1.5709
1.56964
1.56849
1.56748
1.56663
1.56595
1.56545
1.56512
1.56496
1.56496
1.5651
1.56537
1.56576
1.56624
1.56679
1.56738
1.568
1.5686
1.56918
1.56971
1.57019
1.5706
1.57096
1.5713
1.57163
1.572
1.57246
1.57304
1.5738
1.57476
1.57595
1.57738
1.57904
1.5809
1.58289
1.58497
1.58705
1.58906
1.59096
1.59269
1.59427
1.5957
1.59702
1.5983
1.59959
1.60096
1.60247
1.60413
1.60596
1.60792
1.60997
1.61205
1.61408
1.61602
1.6178
1.61938
1.62074
1.62187
1.62277
1.62344
1.62389
1.62413
1.62416
1.62399
1.62363
1.62308
1.62235
1.62148
1.62049
1.61942
1.6183
1.61716
1.61606
1.61501
1.61404
1.61317
1.61242
1.61179
1.61129
1.61092
1.61068
1.61055
1.61052
1.61056
1.61063
1.61069
1.6107
1.61059
1.61034
1.6099
1.60925
1.60838
1.60731
1.60604
1.6046
1.60306
1.60148
1.59978
1.59808
1.5966
1.5951
1.59345
1.59238
1.59177
1.59034
1.58946
1.59088
1.59053
1.5881
1.59255
1.59784
1.58936
1.59197
1.61743
1.60774
1.57037
1.56741
1.56787
1.57041
1.56918
1.57091
1.57292
1.57285
1.57325
1.5747
1.57569
1.57631
1.57731
1.5785
1.57953
1.58056
1.58172
1.5829
1.58403
1.58516
1.5863
1.5874
1.58846
1.58948
1.59046
1.59138
1.59224
1.59304
1.59378
1.59445
1.59505
1.59559
1.59607
1.59648
1.59685
1.59717
1.59746
1.59773
1.59799
1.59825
1.59852
1.59881
1.59913
1.59947
1.59983
1.6002
1.60057
1.60093
1.60125
1.60153
1.60176
1.60191
1.60199
1.60199
1.60191
1.60174
1.60148
1.60114
1.6007
1.60015
1.59951
1.59876
1.59792
1.59698
1.59596
1.59489
1.59377
1.59263
1.59148
1.59032
1.58916
1.58799
1.58678
1.58552
1.58418
1.58275
1.58122
1.57959
1.57786
1.57607
1.57426
1.57246
1.57074
1.56913
1.56767
1.56637
1.56525
1.56429
1.56349
1.5628
1.56222
1.5617
1.56123
1.56079
1.56038
1.55997
1.55958
1.55921
1.55885
1.55851
1.55819
1.55789
1.55762
1.55737
1.55715
1.55698
1.55686
1.55683
1.5569
1.5571
1.55747
1.55805
1.55885
1.5599
1.56123
1.56283
1.56472
1.56688
1.5693
1.57195
1.5748
1.57779
1.58085
1.5839
1.58686
1.58964
1.59215
1.59434
1.59615
1.59758
1.59863
1.59933
1.59973
1.59989
1.59989
1.59979
1.59968
1.59961
1.59963
1.59978
1.60009
1.60056
1.6012
1.60199
1.6029
1.60391
1.60495
1.60599
1.60698
1.60788
1.60864
1.60925
1.6097
1.60997
1.61007
1.61001
1.60982
1.60951
1.6091
1.60861
1.60805
1.60744
1.60677
1.60606
1.60531
1.60452
1.60369
1.60283
1.60194
1.60101
1.60005
1.59907
1.59805
1.59702
1.59595
1.59486
1.59373
1.59258
1.59139
1.59018
1.58893
1.58766
1.58637
1.58507
1.58376
1.58248
1.58121
1.57999
1.57882
1.57773
1.57671
1.57579
1.57498
1.57429
1.57371
1.57326
1.57294
1.57275
1.57269
1.57276
1.57296
1.57327
1.57371
1.57426
1.57492
1.57569
1.57655
1.57752
1.57858
1.57974
1.58098
1.58231
1.58372
1.58521
1.58676
1.58837
1.59002
1.5917
1.5934
1.59509
1.59676
1.59838
1.59993
1.60139
1.60274
1.60397
1.60505
1.60597
1.60673
1.60733
1.60777
1.60807
1.60824
1.6083
1.60829
1.60823
1.60816
1.60809
1.60806
1.60808
1.60818
1.60837
1.60865
1.60904
1.60951
1.61008
1.61073
1.61146
1.61224
1.61305
1.61387
1.61467
1.6154
1.61602
1.61647
1.6167
1.61663
1.61622
1.61542
1.6142
1.61256
1.61055
1.60821
1.60565
1.60297
1.60027
1.59767
1.59524
1.59304
1.5911
1.58941
1.58795
1.58669
1.58559
1.58459
1.58364
1.58269
1.58171
1.58067
1.57955
1.57834
1.57705
1.5757
1.57431
1.57292
1.57156
1.57027
1.56908
1.56802
1.5671
1.56634
1.56575
1.56532
1.56505
1.56493
1.56496
1.56512
1.56539
1.56576
1.5662
1.5667
1.56724
1.56778
1.56832
1.56884
1.56933
1.56978
1.57021
1.57064
1.57108
1.57157
1.57215
1.57285
1.57371
1.57475
1.57601
1.57747
1.57912
1.58095
1.58289
1.5849
1.58692
1.58888
1.59074
1.59248
1.59409
1.59558
1.59699
1.59836
1.59974
1.60119
1.60273
1.60439
1.60617
1.60803
1.60996
1.61189
1.61379
1.61561
1.6173
1.61884
1.62019
1.62134
1.62228
1.62301
1.62352
1.6238
1.62388
1.62374
1.6234
1.62287
1.62217
1.62133
1.62037
1.61933
1.61824
1.61714
1.61607
1.61504
1.61409
1.61323
1.61248
1.61184
1.61132
1.61092
1.61064
1.61047
1.61039
1.61038
1.6104
1.61043
1.6104
1.61027
1.61001
1.60957
1.60895
1.60812
1.60709
1.60588
1.60452
1.60304
1.60147
1.59987
1.59828
1.59668
1.59519
1.59384
1.59258
1.5915
1.59078
1.5902
1.58984
1.59012
1.59055
1.59099
1.59275
1.59485
1.59546
1.60059
1.5989
1.56063
1.5719
1.57709
1.56683
1.56752
1.5749
1.57384
1.57168
1.57411
1.57606
1.57587
1.57647
1.57802
1.57905
1.57978
1.58088
1.5821
1.58313
1.58415
1.58525
1.58632
1.58732
1.5883
1.58926
1.59016
1.59101
1.59183
1.59259
1.59331
1.59397
1.59458
1.59514
1.59565
1.59611
1.59652
1.59689
1.59723
1.59754
1.59784
1.59812
1.59842
1.59872
1.59904
1.59937
1.59972
1.60008
1.60043
1.60077
1.60107
1.60133
1.60153
1.60167
1.60173
1.60172
1.60163
1.60146
1.60122
1.60089
1.60049
1.6
1.59942
1.59875
1.59799
1.59713
1.59619
1.59517
1.5941
1.593
1.59186
1.59071
1.58954
1.58834
1.58711
1.58583
1.58446
1.58301
1.58145
1.57978
1.57802
1.57619
1.57433
1.57248
1.57069
1.56902
1.56748
1.5661
1.56489
1.56384
1.56294
1.56216
1.56148
1.56087
1.56033
1.55982
1.55936
1.55893
1.55853
1.55816
1.55784
1.55755
1.5573
1.55709
1.55692
1.55679
1.55671
1.55668
1.55672
1.55684
1.55706
1.55742
1.55793
1.55862
1.55952
1.56064
1.56202
1.56364
1.56553
1.56767
1.57006
1.57268
1.57548
1.57841
1.58142
1.5844
1.58728
1.58998
1.59241
1.59453
1.5963
1.5977
1.59874
1.59945
1.59987
1.60007
1.6001
1.60003
1.59994
1.59988
1.5999
1.60003
1.60031
1.60075
1.60136
1.60211
1.603
1.60398
1.60501
1.60604
1.60702
1.60792
1.60868
1.60929
1.60973
1.60999
1.61008
1.61001
1.60978
1.60943
1.60896
1.60841
1.60778
1.60709
1.60636
1.60559
1.6048
1.60399
1.60316
1.60232
1.60147
1.6006
1.59971
1.5988
1.59787
1.59691
1.59592
1.5949
1.59384
1.59274
1.59161
1.59044
1.58924
1.58801
1.58676
1.58549
1.58423
1.58298
1.58176
1.58057
1.57944
1.57838
1.57739
1.5765
1.5757
1.57502
1.57446
1.57401
1.57369
1.5735
1.57344
1.57351
1.5737
1.57401
1.57443
1.57498
1.57563
1.57638
1.57724
1.57819
1.57923
1.58036
1.58158
1.58287
1.58423
1.58566
1.58715
1.58869
1.59026
1.59185
1.59346
1.59505
1.59662
1.59815
1.59961
1.601
1.60228
1.60345
1.60449
1.60539
1.60615
1.60675
1.60721
1.60754
1.60774
1.60784
1.60787
1.60785
1.6078
1.60777
1.60776
1.60781
1.60793
1.60813
1.60843
1.60882
1.60931
1.60989
1.61054
1.61127
1.61205
1.61285
1.61367
1.61445
1.61517
1.61578
1.61623
1.61646
1.61641
1.61604
1.6153
1.61415
1.6126
1.61068
1.60843
1.60595
1.60333
1.60069
1.59813
1.59573
1.59355
1.59163
1.58995
1.58852
1.58728
1.5862
1.58522
1.5843
1.58338
1.58243
1.58141
1.58031
1.57911
1.57783
1.57648
1.57508
1.57367
1.57228
1.57094
1.56969
1.56855
1.56754
1.56668
1.56598
1.56543
1.56503
1.56478
1.56467
1.56469
1.56483
1.56507
1.5654
1.5658
1.56624
1.56672
1.56722
1.56772
1.56823
1.56873
1.56924
1.56977
1.57033
1.57096
1.57167
1.5725
1.57348
1.57462
1.57594
1.57743
1.5791
1.5809
1.58279
1.58474
1.58669
1.5886
1.59044
1.59219
1.59384
1.59542
1.59693
1.59841
1.5999
1.60143
1.60301
1.60467
1.60639
1.60815
1.60994
1.61172
1.61347
1.61516
1.61676
1.61824
1.61958
1.62075
1.62174
1.62253
1.6231
1.62344
1.62357
1.62347
1.62316
1.62265
1.62198
1.62116
1.62024
1.61923
1.61818
1.61712
1.61608
1.61508
1.61414
1.61329
1.61253
1.61187
1.61132
1.61088
1.61056
1.61034
1.6102
1.61014
1.61011
1.61009
1.61002
1.60988
1.60961
1.60918
1.60859
1.60782
1.60684
1.60571
1.60444
1.60303
1.60151
1.60001
1.5985
1.59685
1.59538
1.59424
1.59284
1.59142
1.59116
1.59085
1.58911
1.5895
1.59244
1.59054
1.58791
1.59652
1.59976
1.58848
1.59361
1.57273
1.57077
1.56946
1.57173
1.57427
1.57245
1.57221
1.57489
1.5757
1.57535
1.57642
1.57788
1.57855
1.57924
1.5804
1.58149
1.58237
1.58335
1.58441
1.58539
1.58631
1.58724
1.58815
1.589
1.58982
1.59062
1.59138
1.5921
1.59279
1.59345
1.59408
1.59466
1.59521
1.59572
1.59618
1.59661
1.59699
1.59735
1.59769
1.59801
1.59832
1.59864
1.59896
1.59929
1.59962
1.59996
1.60029
1.6006
1.60087
1.6011
1.60128
1.60139
1.60143
1.60139
1.60129
1.60112
1.60089
1.60059
1.60024
1.59981
1.5993
1.59872
1.59804
1.59728
1.59642
1.59547
1.59446
1.59338
1.59226
1.59111
1.58992
1.5887
1.58743
1.58611
1.5847
1.5832
1.58159
1.57987
1.57805
1.57616
1.57423
1.57231
1.57046
1.5687
1.56709
1.56563
1.56433
1.5632
1.56221
1.56134
1.56057
1.55989
1.55927
1.5587
1.55819
1.55773
1.55731
1.55696
1.55666
1.55642
1.55624
1.55613
1.55606
1.55606
1.55612
1.55624
1.55644
1.55673
1.55713
1.55765
1.55831
1.55913
1.56014
1.56135
1.56278
1.56444
1.56634
1.56848
1.57085
1.57343
1.5762
1.57909
1.58203
1.58495
1.58777
1.59039
1.59275
1.59481
1.59652
1.5979
1.59893
1.59965
1.60009
1.60032
1.60038
1.60034
1.60026
1.6002
1.60021
1.60032
1.60057
1.60097
1.60154
1.60226
1.60311
1.60407
1.60508
1.6061
1.60708
1.60797
1.60873
1.60934
1.60977
1.61002
1.61009
1.60999
1.60972
1.60931
1.60878
1.60815
1.60745
1.60668
1.60588
1.60506
1.60423
1.6034
1.60257
1.60175
1.60094
1.60013
1.59932
1.59849
1.59765
1.59678
1.59588
1.59494
1.59396
1.59293
1.59187
1.59076
1.58961
1.58844
1.58724
1.58603
1.58482
1.58362
1.58244
1.5813
1.58021
1.57918
1.57822
1.57736
1.57659
1.57592
1.57537
1.57493
1.57462
1.57443
1.57436
1.57442
1.5746
1.57491
1.57532
1.57585
1.57649
1.57723
1.57807
1.579
1.58001
1.58111
1.58228
1.58352
1.58482
1.58618
1.58759
1.58904
1.59051
1.592
1.5935
1.59499
1.59645
1.59787
1.59924
1.60054
1.60176
1.60287
1.60387
1.60474
1.60549
1.6061
1.60658
1.60693
1.60717
1.60731
1.60738
1.6074
1.60739
1.60739
1.60742
1.6075
1.60764
1.60787
1.60819
1.6086
1.6091
1.60968
1.61035
1.61108
1.61185
1.61265
1.61346
1.61423
1.61494
1.61554
1.61598
1.61622
1.61621
1.61588
1.6152
1.61414
1.61268
1.61085
1.60869
1.60629
1.60374
1.60116
1.59864
1.59628
1.59412
1.59222
1.59056
1.58914
1.58793
1.58687
1.58592
1.58502
1.58413
1.5832
1.5822
1.58111
1.57992
1.57864
1.57727
1.57584
1.57439
1.57294
1.57154
1.57021
1.56898
1.56787
1.5669
1.56607
1.56539
1.56485
1.56446
1.56421
1.56409
1.56409
1.56421
1.56442
1.56471
1.56507
1.56549
1.56595
1.56645
1.56697
1.56753
1.56812
1.56875
1.56944
1.5702
1.57105
1.57201
1.5731
1.57434
1.57572
1.57726
1.57893
1.58071
1.58257
1.58446
1.58636
1.58824
1.59007
1.59184
1.59355
1.59521
1.59682
1.59842
1.60001
1.60162
1.60324
1.60488
1.60654
1.6082
1.60985
1.61148
1.61308
1.61465
1.61615
1.61758
1.6189
1.62009
1.62112
1.62196
1.62259
1.623
1.62317
1.62312
1.62285
1.62238
1.62174
1.62095
1.62006
1.6191
1.61808
1.61706
1.61605
1.61508
1.61416
1.6133
1.61253
1.61186
1.61128
1.6108
1.61042
1.61015
1.60996
1.60983
1.60975
1.60968
1.60958
1.60942
1.60915
1.60875
1.6082
1.60748
1.60659
1.60554
1.60435
1.60305
1.60165
1.60016
1.59868
1.59724
1.59575
1.59434
1.59325
1.59216
1.59097
1.59053
1.59056
1.58971
1.58949
1.5915
1.59193
1.59098
1.59346
1.59409
1.59454
1.57655
1.57165
1.56986
1.5751
1.57482
1.57202
1.57442
1.57651
1.57569
1.57609
1.57783
1.5786
1.57896
1.58
1.58113
1.58191
1.58274
1.58374
1.58466
1.58548
1.58633
1.58718
1.58798
1.58873
1.58948
1.59021
1.5909
1.59159
1.59226
1.59291
1.59355
1.59416
1.59475
1.59531
1.59583
1.59632
1.59676
1.59717
1.59755
1.59791
1.59824
1.59857
1.59889
1.59921
1.59953
1.59984
1.60014
1.60042
1.60066
1.60085
1.60098
1.60106
1.60106
1.60101
1.60089
1.60071
1.60049
1.60023
1.59991
1.59955
1.59913
1.59863
1.59806
1.59739
1.59662
1.59575
1.59479
1.59374
1.59264
1.59147
1.59026
1.589
1.58768
1.5863
1.58483
1.58327
1.58159
1.5798
1.5779
1.57593
1.57393
1.57193
1.56999
1.56817
1.56648
1.56495
1.56358
1.56238
1.56131
1.56038
1.55954
1.55878
1.5581
1.55748
1.55693
1.55643
1.55601
1.55566
1.55539
1.55519
1.55507
1.55503
1.55507
1.55519
1.55538
1.55565
1.55601
1.55647
1.55703
1.55772
1.55854
1.5595
1.56063
1.56194
1.56344
1.56514
1.56707
1.56921
1.57158
1.57414
1.57688
1.57974
1.58265
1.58551
1.58827
1.59082
1.59313
1.59513
1.59681
1.59816
1.59919
1.59992
1.60039
1.60065
1.60074
1.60073
1.60066
1.6006
1.6006
1.60069
1.6009
1.60127
1.6018
1.60248
1.6033
1.60423
1.60522
1.60622
1.60719
1.60807
1.60883
1.60943
1.60985
1.61008
1.61012
1.60997
1.60966
1.60919
1.60859
1.60788
1.60709
1.60625
1.60538
1.6045
1.60363
1.60277
1.60195
1.60115
1.60038
1.59963
1.59889
1.59815
1.5974
1.59663
1.59583
1.59498
1.59409
1.59315
1.59216
1.59113
1.59005
1.58894
1.58781
1.58666
1.58551
1.58436
1.58324
1.58215
1.58111
1.58012
1.5792
1.57837
1.57763
1.57698
1.57644
1.57602
1.57571
1.57552
1.57545
1.57551
1.57568
1.57597
1.57637
1.57689
1.57751
1.57822
1.57903
1.57993
1.58091
1.58195
1.58307
1.58425
1.58547
1.58675
1.58806
1.5894
1.59077
1.59215
1.59353
1.5949
1.59625
1.59756
1.59883
1.60005
1.60118
1.60224
1.60319
1.60404
1.60478
1.60539
1.60588
1.60626
1.60653
1.60672
1.60683
1.6069
1.60694
1.60698
1.60705
1.60716
1.60734
1.6076
1.60794
1.60837
1.60889
1.60949
1.61017
1.6109
1.61167
1.61247
1.61326
1.61402
1.61471
1.6153
1.61574
1.61599
1.61601
1.61573
1.61512
1.61414
1.61278
1.61105
1.60899
1.60668
1.6042
1.60168
1.5992
1.59686
1.59473
1.59284
1.5912
1.5898
1.5886
1.58756
1.58662
1.58575
1.58487
1.58396
1.58297
1.58187
1.58067
1.57936
1.57796
1.57648
1.57497
1.57346
1.57198
1.57056
1.56923
1.56801
1.56692
1.56597
1.56516
1.56449
1.56396
1.56357
1.56332
1.5632
1.56319
1.5633
1.5635
1.56379
1.56415
1.56457
1.56506
1.5656
1.56621
1.56687
1.5676
1.5684
1.56928
1.57026
1.57135
1.57255
1.57387
1.57533
1.5769
1.57858
1.58035
1.58217
1.58403
1.58589
1.58774
1.58957
1.59137
1.59315
1.5949
1.59664
1.59835
1.60005
1.60173
1.60339
1.60502
1.60662
1.60817
1.6097
1.61119
1.61265
1.6141
1.61552
1.61689
1.61819
1.61939
1.62046
1.62135
1.62204
1.6225
1.62273
1.62272
1.6225
1.62206
1.62146
1.62071
1.61986
1.61893
1.61796
1.61697
1.61599
1.61504
1.61413
1.61328
1.6125
1.6118
1.61119
1.61067
1.61024
1.60991
1.60966
1.60947
1.60934
1.60922
1.60909
1.60891
1.60865
1.60828
1.60777
1.60711
1.60632
1.60537
1.60427
1.60307
1.6018
1.60039
1.59894
1.59761
1.59623
1.59469
1.59356
1.59281
1.59145
1.59032
1.59092
1.59079
1.58874
1.59012
1.59348
1.59043
1.58945
1.59592
1.59361
1.57237
1.57445
1.57586
1.57388
1.57323
1.57603
1.57679
1.57554
1.57657
1.57837
1.57857
1.57882
1.58004
1.58104
1.58157
1.58235
1.58333
1.58412
1.58483
1.58562
1.5864
1.5871
1.58778
1.58847
1.58914
1.58978
1.59043
1.59108
1.59172
1.59237
1.59302
1.59367
1.5943
1.59491
1.59549
1.59604
1.59655
1.59701
1.59744
1.59783
1.59819
1.59853
1.59885
1.59916
1.59945
1.59973
1.59999
1.60022
1.60042
1.60056
1.60065
1.60067
1.60064
1.60055
1.60041
1.60022
1.60001
1.59977
1.5995
1.5992
1.59886
1.59846
1.59798
1.59742
1.59674
1.59595
1.59504
1.59404
1.59293
1.59175
1.5905
1.58919
1.58781
1.58636
1.58482
1.58317
1.58141
1.57953
1.57754
1.57548
1.57338
1.5713
1.56929
1.56739
1.56564
1.56405
1.56264
1.56138
1.56027
1.55929
1.5584
1.5576
1.55687
1.55622
1.55563
1.55512
1.55468
1.55433
1.55408
1.55391
1.55384
1.55387
1.55399
1.5542
1.55451
1.55491
1.55542
1.55603
1.55675
1.5576
1.55856
1.55967
1.56092
1.56233
1.56391
1.56567
1.56764
1.5698
1.57218
1.57475
1.57748
1.58032
1.58319
1.58602
1.58872
1.59123
1.59348
1.59544
1.59709
1.59843
1.59946
1.60021
1.60071
1.601
1.60112
1.60113
1.60108
1.60103
1.60101
1.60108
1.60127
1.6016
1.6021
1.60274
1.60353
1.60443
1.60539
1.60637
1.60732
1.60819
1.60894
1.60952
1.60993
1.61013
1.61014
1.60995
1.60957
1.60904
1.60836
1.60758
1.60671
1.6058
1.60486
1.60393
1.60302
1.60214
1.60131
1.60054
1.5998
1.59911
1.59845
1.59779
1.59714
1.59647
1.59576
1.59502
1.59423
1.59338
1.59249
1.59154
1.59055
1.58952
1.58846
1.58738
1.5863
1.58522
1.58416
1.58313
1.58213
1.5812
1.58032
1.57953
1.57881
1.57819
1.57767
1.57726
1.57696
1.57677
1.5767
1.57675
1.57691
1.57719
1.57758
1.57807
1.57867
1.57935
1.58013
1.58098
1.5819
1.58289
1.58394
1.58503
1.58617
1.58734
1.58855
1.58977
1.59102
1.59228
1.59353
1.59478
1.59602
1.59722
1.59839
1.59952
1.60058
1.60157
1.60248
1.6033
1.60402
1.60464
1.60515
1.60555
1.60586
1.60609
1.60625
1.60636
1.60645
1.60654
1.60666
1.60682
1.60704
1.60733
1.60771
1.60816
1.60871
1.60932
1.61001
1.61075
1.61152
1.61231
1.61309
1.61383
1.6145
1.61508
1.61552
1.61577
1.61581
1.61558
1.61504
1.61414
1.61288
1.61126
1.6093
1.60708
1.60468
1.6022
1.59977
1.59746
1.59534
1.59346
1.59183
1.59044
1.58924
1.58821
1.58728
1.58641
1.58554
1.58462
1.58362
1.5825
1.58127
1.57991
1.57845
1.57691
1.57532
1.57372
1.57215
1.57064
1.56921
1.56789
1.56669
1.56563
1.5647
1.56392
1.56328
1.56278
1.56242
1.56219
1.56209
1.56211
1.56223
1.56245
1.56277
1.56316
1.56364
1.5642
1.56485
1.56557
1.56638
1.56728
1.56827
1.56935
1.57054
1.57184
1.57325
1.57476
1.57637
1.57806
1.57981
1.58161
1.58343
1.58526
1.5871
1.58894
1.59078
1.59263
1.59448
1.59633
1.59816
1.59996
1.60171
1.6034
1.60502
1.60656
1.60802
1.60942
1.61078
1.61213
1.61347
1.6148
1.61613
1.61741
1.61862
1.61971
1.62065
1.62139
1.62191
1.62219
1.62224
1.62205
1.62167
1.62111
1.6204
1.61959
1.6187
1.61777
1.61682
1.61587
1.61494
1.61405
1.6132
1.61241
1.61169
1.61104
1.61048
1.61
1.60961
1.6093
1.60906
1.60887
1.60871
1.60855
1.60835
1.6081
1.60776
1.60731
1.60673
1.60602
1.60518
1.60422
1.60311
1.60191
1.60069
1.59935
1.59793
1.59667
1.59547
1.59403
1.59289
1.59238
1.59144
1.59017
1.59054
1.59121
1.58989
1.59003
1.59227
1.59182
1.59127
1.59143
1.57413
1.57595
1.57659
1.57485
1.57589
1.57753
1.57677
1.57699
1.57864
1.57907
1.57913
1.58015
1.58112
1.58157
1.58221
1.5831
1.58381
1.58441
1.58511
1.58581
1.58642
1.58701
1.58762
1.58821
1.58878
1.58936
1.58996
1.59057
1.59119
1.59184
1.59251
1.59318
1.59386
1.59453
1.59517
1.59578
1.59635
1.59687
1.59735
1.59778
1.59816
1.59851
1.59883
1.59912
1.59938
1.59962
1.59984
1.60001
1.60015
1.60023
1.60026
1.60023
1.60014
1.60001
1.59983
1.59963
1.59942
1.5992
1.59897
1.59873
1.59847
1.59816
1.59779
1.59732
1.59674
1.59602
1.59518
1.5942
1.59311
1.59191
1.59062
1.58925
1.5878
1.58626
1.58463
1.58288
1.58102
1.57904
1.57694
1.57478
1.57259
1.57042
1.56833
1.56638
1.56458
1.56296
1.56152
1.56025
1.55912
1.55811
1.55721
1.55638
1.55564
1.55496
1.55435
1.55383
1.55339
1.55304
1.55279
1.55265
1.55261
1.55268
1.55285
1.55314
1.55353
1.55404
1.55466
1.5554
1.55626
1.55724
1.55834
1.55958
1.56095
1.56246
1.56412
1.56595
1.56797
1.57017
1.57258
1.57516
1.5779
1.58074
1.5836
1.58641
1.58908
1.59155
1.59376
1.5957
1.59733
1.59866
1.59971
1.60048
1.60101
1.60134
1.6015
1.60154
1.60152
1.60148
1.60146
1.60152
1.60169
1.602
1.60247
1.60308
1.60384
1.6047
1.60564
1.6066
1.60753
1.60838
1.6091
1.60966
1.61004
1.61021
1.61017
1.60993
1.60949
1.60889
1.60814
1.60728
1.60634
1.60536
1.60436
1.60337
1.60243
1.60153
1.6007
1.59994
1.59924
1.5986
1.598
1.59743
1.59686
1.59629
1.59569
1.59505
1.59437
1.59363
1.59283
1.59198
1.59109
1.59015
1.58917
1.58818
1.58717
1.58617
1.58518
1.58421
1.58328
1.5824
1.58157
1.58082
1.58014
1.57955
1.57905
1.57865
1.57836
1.57818
1.57811
1.57815
1.5783
1.57856
1.57893
1.5794
1.57996
1.58061
1.58134
1.58213
1.58299
1.5839
1.58486
1.58586
1.58689
1.58795
1.58904
1.59014
1.59126
1.59239
1.59352
1.59464
1.59576
1.59686
1.59793
1.59897
1.59996
1.60089
1.60176
1.60255
1.60325
1.60387
1.60439
1.60482
1.60516
1.60543
1.60564
1.60581
1.60596
1.60611
1.60628
1.60649
1.60676
1.60709
1.6075
1.60799
1.60856
1.60919
1.60989
1.61063
1.6114
1.61218
1.61294
1.61366
1.61431
1.61487
1.61529
1.61555
1.61561
1.61542
1.61494
1.61413
1.61297
1.61144
1.60959
1.60745
1.60512
1.60271
1.60031
1.59802
1.59591
1.59403
1.5924
1.59099
1.5898
1.58876
1.58782
1.58694
1.58605
1.58511
1.58407
1.58291
1.58162
1.58019
1.57865
1.57702
1.57534
1.57365
1.57199
1.57039
1.56887
1.56747
1.56619
1.56504
1.56403
1.56316
1.56244
1.56186
1.56142
1.56112
1.56095
1.5609
1.56096
1.56113
1.5614
1.56177
1.56224
1.56281
1.56348
1.56425
1.56511
1.56608
1.56715
1.56833
1.5696
1.57097
1.57244
1.57401
1.57565
1.57735
1.57909
1.58086
1.58266
1.58447
1.5863
1.58816
1.59005
1.59197
1.59392
1.59587
1.59781
1.5997
1.60153
1.60325
1.60485
1.60633
1.60771
1.60901
1.61027
1.61151
1.61276
1.61403
1.61531
1.61658
1.61779
1.61891
1.61988
1.62067
1.62124
1.62157
1.62167
1.62154
1.62121
1.62069
1.62003
1.61926
1.61842
1.61752
1.61661
1.61569
1.61479
1.61391
1.61306
1.61226
1.61152
1.61084
1.61024
1.60971
1.60926
1.6089
1.6086
1.60836
1.60816
1.60797
1.60776
1.60752
1.60721
1.60682
1.60633
1.60571
1.60497
1.60414
1.60317
1.60207
1.60094
1.59978
1.59845
1.59713
1.59607
1.59489
1.59347
1.5927
1.59239
1.59117
1.59033
1.59144
1.59128
1.58968
1.59171
1.59296
1.59011
1.59111
1.57822
1.57673
1.57605
1.57786
1.5785
1.57726
1.5779
1.57963
1.5796
1.57946
1.58064
1.58154
1.5817
1.58227
1.58316
1.58373
1.58417
1.5848
1.58543
1.58592
1.58642
1.58696
1.58746
1.58794
1.58844
1.58897
1.58951
1.59008
1.59069
1.59134
1.59202
1.59272
1.59344
1.59416
1.59487
1.59555
1.59618
1.59676
1.59729
1.59775
1.59816
1.59852
1.59883
1.59909
1.59932
1.59952
1.59967
1.59978
1.59984
1.59985
1.59981
1.5997
1.59955
1.59936
1.59915
1.59892
1.59869
1.59848
1.59829
1.5981
1.59791
1.59769
1.59742
1.59705
1.59656
1.59593
1.59515
1.59421
1.59313
1.59191
1.59058
1.58914
1.58761
1.58599
1.58425
1.5824
1.58043
1.57832
1.57612
1.57385
1.57155
1.56931
1.56716
1.56516
1.56334
1.56171
1.56027
1.559
1.55788
1.55688
1.55599
1.55517
1.55443
1.55375
1.55315
1.55262
1.55218
1.55183
1.55159
1.55145
1.55142
1.55151
1.55172
1.55204
1.55249
1.55306
1.55376
1.5546
1.55556
1.55665
1.55786
1.55921
1.56068
1.56229
1.56403
1.56594
1.56801
1.57027
1.57271
1.57533
1.57809
1.58095
1.58381
1.5866
1.58926
1.5917
1.59389
1.5958
1.59743
1.59876
1.59983
1.60064
1.60121
1.60159
1.60179
1.60188
1.60189
1.60187
1.60187
1.60193
1.6021
1.6024
1.60285
1.60344
1.60417
1.60502
1.60593
1.60686
1.60776
1.60859
1.60929
1.60982
1.61016
1.61029
1.61021
1.60991
1.60941
1.60874
1.60793
1.607
1.60599
1.60494
1.60388
1.60285
1.60187
1.60096
1.60012
1.59937
1.5987
1.5981
1.59756
1.59706
1.59659
1.59611
1.59562
1.59509
1.59451
1.59388