# vtk DataFile Version 2.0
LBE two cylinders
ASCII
DATASET STRUCTURED_POINTS
DIMENSIONS 400 100 1
ASPECT_RATIO 1 1 1
ORIGIN 0 0 0
POINT_DATA 40000
SCALARS rho double 1
LOOKUP_TABLE default
1.67913
1.73487
1.74891
1.72786
1.72889
1.73788
1.73649
1.73318
1.73466
1.73602
1.73517
1.73476
1.73529
1.7354
1.73514
1.73514
1.73527
1.73524
1.73518
1.73519
1.73521
1.73518
1.73517
1.73517
1.73516
1.73514
1.73513
1.73512
1.7351
1.73509
1.73507
1.73506
1.73504
1.73502
1.73501
1.73499
1.73497
1.73495
1.73494
1.73491
1.7349
1.73487
1.73485
1.73483
1.73481
1.73479
1.73477
1.73474
1.73472
1.7347
1.73468
1.73465
1.73463
1.7346
1.73458
1.73456
1.73454
1.73452
1.7345
1.73448
1.73446
1.73444
1.73443
1.73441
1.7344
1.73439
1.73438
1.73438
1.73438
1.73438
1.73438
1.73439
1.7344
1.73441
1.73443
1.73445
1.73447
1.7345
1.73454
1.73457
1.73461
1.73466
1.73471
1.73476
1.73482
1.73488
1.73494
1.73501
1.73508
1.73515
1.73523
1.7353
1.73538
1.73546
1.73554
1.73562
1.7357
1.73578
1.73586
1.73593
1.73601
1.73608
1.73616
1.73622
1.73629
1.73635
1.73641
1.73647
1.73652
1.73657
1.73662
1.73666
1.7367
1.73674
1.73677
1.7368
1.73683
1.73685
1.73687
1.73689
1.7369
1.73691
1.73692
1.73693
1.73694
1.73694
1.73694
1.73694
1.73694
1.73693
1.73693
1.73692
1.73691
1.7369
1.73689
1.73688
1.73687
1.73686
1.73685
1.73684
1.73682
1.73681
1.7368
1.73678
1.73677
1.73676
1.73674
1.73673
1.73672
1.73671
1.73669
1.73668
1.73667
1.73666
1.73665
1.73664
1.73663
1.73662
1.73661
1.7366
1.73659
1.73658
1.73657
1.73657
1.73656
1.73655
1.73655
1.73654
1.73653
1.73653
1.73652
1.73652
1.73652
1.73651
1.73651
1.73651
1.7365
1.7365
1.7365
1.7365
1.73649
1.73649
1.73649
1.73649
1.73649
1.73649
1.73649
1.73648
1.73648
1.73648
1.73648
1.73648
1.73648
1.73647
1.73647
1.73647
1.73647
1.73646
1.73646
1.73645
1.73645
1.73644
1.73644
1.73643
1.73642
1.73641
1.7364
1.73639
1.73637
1.73636
1.73634
1.73632
1.7363
1.73628
1.73626
1.73623
1.73621
1.73618
1.73615
1.73612
1.73608
1.73605
1.73601
1.73597
1.73593
1.73589
1.73584
1.7358
1.73575
1.73571
1.73566
1.73561
1.73556
1.73551
1.73546
1.73541
1.73536
1.73531
1.73527
1.73522
1.73518
1.73513
1.73509
1.73506
1.73502
1.73499
1.73497
1.73495
1.73493
1.73492
1.73491
1.73491
1.73492
1.73493
1.73495
1.73498
1.73502
1.73506
1.73511
1.73517
1.73524
1.73532
1.73541
1.7355
1.73561
1.73572
1.73585
1.73598
1.73613
1.73628
1.73644
1.73661
1.73679
1.73697
1.73717
1.73737
1.73758
1.73779
1.73801
1.73823
1.73846
1.73869
1.73892
1.73915
1.73938
1.73962
1.73985
1.74007
1.74029
1.74051
1.74072
1.74093
1.74112
1.74131
1.74148
1.74164
1.7418
1.74193
1.74206
1.74217
1.74227
1.74235
1.74241
1.74246
1.74249
1.74251
1.74251
1.74249
1.74246
1.74242
1.74235
1.74228
1.74218
1.74208
1.74196
1.74183
1.74168
1.74153
1.74137
1.74119
1.74101
1.74083
1.74063
1.74043
1.74023
1.74002
1.73981
1.7396
1.73938
1.73917
1.73896
1.73875
1.73854
1.73833
1.73813
1.73794
1.73775
1.73756
1.73739
1.73721
1.73705
1.7369
1.73675
1.73661
1.73649
1.73637
1.73626
1.73617
1.73608
1.73601
1.73594
1.73589
1.73586
1.73583
1.73582
1.73582
1.73584
1.73587
1.73591
1.73597
1.73605
1.73614
1.73625
1.73637
1.73652
1.73668
1.73687
1.73707
1.7373
1.73755
1.73782
1.73811
1.73844
1.73879
1.73916
1.73957
1.74002
1.74049
1.74098
1.74155
1.74214
1.74272
1.74342
1.74422
1.74486
1.74562
1.74683
1.74769
1.74815
1.74996
1.75187
1.75134
1.75297
1.75882
1.75731
1.754
1.76946
1.77641
1.74786
1.78349
1.69877
1.72212
1.73706
1.73085
1.73136
1.73473
1.73494
1.73396
1.7345
1.73508
1.73493
1.73482
1.73502
1.73509
1.73505
1.73505
1.73511
1.73511
1.7351
1.7351
1.73511
1.7351
1.7351
1.73509
1.73509
1.73508
1.73507
1.73506
1.73505
1.73504
1.73503
1.73501
1.735
1.73498
1.73497
1.73495
1.73494
1.73492
1.7349
1.73488
1.73487
1.73485
1.73483
1.73481
1.73479
1.73476
1.73474
1.73472
1.7347
1.73467
1.73465
1.73463
1.73461
1.73459
1.73456
1.73454
1.73452
1.7345
1.73448
1.73446
1.73444
1.73443
1.73441
1.7344
1.73439
1.73438
1.73437
1.73437
1.73437
1.73436
1.73437
1.73438
1.73439
1.7344
1.73442
1.73444
1.73447
1.7345
1.73453
1.73457
1.73461
1.73466
1.73471
1.73476
1.73482
1.73488
1.73494
1.73501
1.73508
1.73515
1.73523
1.7353
1.73538
1.73546
1.73554
1.73562
1.7357
1.73578
1.73586
1.73594
1.73601
1.73608
1.73616
1.73622
1.73629
1.73635
1.73641
1.73647
1.73652
1.73657
1.73662
1.73666
1.7367
1.73674
1.73677
1.7368
1.73682
1.73685
1.73687
1.73688
1.7369
1.73691
1.73692
1.73692
1.73693
1.73693
1.73693
1.73693
1.73693
1.73692
1.73692
1.73691
1.73691
1.7369
1.73689
1.73688
1.73687
1.73685
1.73684
1.73683
1.73682
1.7368
1.73679
1.73678
1.73677
1.73675
1.73674
1.73673
1.73671
1.7367
1.73669
1.73668
1.73667
1.73665
1.73664
1.73663
1.73662
1.73661
1.7366
1.73659
1.73659
1.73658
1.73657
1.73656
1.73656
1.73655
1.73654
1.73654
1.73653
1.73653
1.73652
1.73652
1.73651
1.73651
1.73651
1.7365
1.7365
1.7365
1.7365
1.73649
1.73649
1.73649
1.73649
1.73649
1.73649
1.73648
1.73648
1.73648
1.73648
1.73648
1.73648
1.73648
1.73648
1.73647
1.73647
1.73647
1.73647
1.73646
1.73646
1.73645
1.73645
1.73644
1.73643
1.73643
1.73642
1.73641
1.7364
1.73638
1.73637
1.73635
1.73634
1.73632
1.7363
1.73628
1.73626
1.73623
1.7362
1.73618
1.73615
1.73611
1.73608
1.73604
1.73601
1.73597
1.73593
1.73588
1.73584
1.73579
1.73575
1.7357
1.73565
1.7356
1.73555
1.7355
1.73546
1.73541
1.73536
1.73531
1.73526
1.73522
1.73517
1.73513
1.73509
1.73506
1.73502
1.73499
1.73497
1.73495
1.73493
1.73492
1.73492
1.73492
1.73492
1.73494
1.73496
1.73499
1.73502
1.73507
1.73512
1.73518
1.73525
1.73533
1.73542
1.73551
1.73562
1.73574
1.73586
1.736
1.73614
1.73629
1.73645
1.73663
1.7368
1.73699
1.73719
1.73739
1.73759
1.73781
1.73803
1.73825
1.73848
1.73871
1.73894
1.73917
1.7394
1.73963
1.73986
1.74009
1.74031
1.74053
1.74074
1.74094
1.74113
1.74132
1.74149
1.74165
1.7418
1.74194
1.74206
1.74217
1.74227
1.74234
1.74241
1.74245
1.74249
1.7425
1.7425
1.74248
1.74245
1.7424
1.74234
1.74226
1.74216
1.74206
1.74194
1.74181
1.74166
1.74151
1.74134
1.74117
1.74099
1.7408
1.74061
1.74041
1.7402
1.74
1.73979
1.73957
1.73936
1.73915
1.73894
1.73873
1.73852
1.73832
1.73812
1.73792
1.73773
1.73755
1.73737
1.7372
1.73704
1.73689
1.73674
1.73661
1.73648
1.73636
1.73626
1.73616
1.73608
1.73601
1.73595
1.7359
1.73586
1.73584
1.73582
1.73583
1.73584
1.73587
1.73592
1.73598
1.73606
1.73615
1.73626
1.73639
1.73654
1.7367
1.73689
1.73709
1.73732
1.73757
1.73784
1.73814
1.73847
1.73882
1.7392
1.73961
1.74005
1.74053
1.74105
1.74159
1.74217
1.74282
1.7435
1.74419
1.74497
1.74586
1.74672
1.7476
1.74875
1.75004
1.75098
1.75225
1.7545
1.75631
1.75669
1.76026
1.76641
1.76734
1.76399
1.78843
1.75089
1.72311
1.71334
1.7364
1.73913
1.72989
1.73166
1.73619
1.73498
1.73345
1.73459
1.73527
1.73474
1.73463
1.735
1.73504
1.73491
1.73495
1.73504
1.73502
1.735
1.73502
1.73503
1.73502
1.73502
1.73502
1.73502
1.735
1.735
1.73499
1.73498
1.73497
1.73496
1.73495
1.73493
1.73492
1.7349
1.73489
1.73487
1.73485
1.73484
1.73482
1.7348
1.73478
1.73476
1.73474
1.73472
1.7347
1.73468
1.73465
1.73463
1.73461
1.73459
1.73457
1.73455
1.73452
1.7345
1.73448
1.73446
1.73444
1.73443
1.73441
1.7344
1.73438
1.73437
1.73436
1.73436
1.73435
1.73435
1.73435
1.73436
1.73436
1.73438
1.73439
1.73441
1.73443
1.73446
1.73449
1.73452
1.73456
1.7346
1.73465
1.7347
1.73475
1.73481
1.73487
1.73494
1.73501
1.73508
1.73515
1.73523
1.7353
1.73538
1.73546
1.73554
1.73562
1.7357
1.73578
1.73586
1.73594
1.73601
1.73609
1.73616
1.73623
1.73629
1.73636
1.73642
1.73647
1.73652
1.73657
1.73662
1.73666
1.7367
1.73674
1.73677
1.7368
1.73682
1.73684
1.73686
1.73688
1.7369
1.73691
1.73692
1.73692
1.73693
1.73693
1.73693
1.73693
1.73693
1.73692
1.73692
1.73691
1.7369
1.73689
1.73688
1.73687
1.73686
1.73685
1.73684
1.73683
1.73681
1.7368
1.73679
1.73677
1.73676
1.73675
1.73674
1.73672
1.73671
1.7367
1.73669
1.73667
1.73666
1.73665
1.73664
1.73663
1.73662
1.73661
1.7366
1.73659
1.73658
1.73657
1.73657
1.73656
1.73655
1.73655
1.73654
1.73653
1.73653
1.73652
1.73652
1.73652
1.73651
1.73651
1.73651
1.7365
1.7365
1.7365
1.7365
1.73649
1.73649
1.73649
1.73649
1.73649
1.73649
1.73648
1.73648
1.73648
1.73648
1.73648
1.73648
1.73648
1.73648
1.73647
1.73647
1.73647
1.73647
1.73646
1.73646
1.73645
1.73645
1.73644
1.73643
1.73643
1.73642
1.73641
1.7364
1.73638
1.73637
1.73635
1.73634
1.73632
1.7363
1.73628
1.73626
1.73623
1.7362
1.73617
1.73615
1.73611
1.73608
1.73604
1.73601
1.73597
1.73592
1.73588
1.73584
1.73579
1.73575
1.7357
1.73565
1.7356
1.73555
1.7355
1.73545
1.7354
1.73535
1.7353
1.73526
1.73521
1.73517
1.73513
1.73509
1.73505
1.73502
1.73499
1.73496
1.73494
1.73493
1.73492
1.73491
1.73491
1.73492
1.73493
1.73496
1.73498
1.73502
1.73506
1.73512
1.73518
1.73525
1.73533
1.73542
1.73552
1.73562
1.73574
1.73587
1.736
1.73615
1.7363
1.73646
1.73663
1.73681
1.737
1.7372
1.7374
1.73761
1.73782
1.73804
1.73827
1.73849
1.73872
1.73896
1.73919
1.73942
1.73965
1.73988
1.74011
1.74033
1.74055
1.74076
1.74096
1.74115
1.74134
1.74151
1.74167
1.74182
1.74196
1.74208
1.74219
1.74228
1.74236
1.74242
1.74246
1.74249
1.74251
1.7425
1.74248
1.74245
1.7424
1.74233
1.74225
1.74216
1.74205
1.74193
1.74179
1.74165
1.74149
1.74133
1.74115
1.74097
1.74078
1.74059
1.74039
1.74018
1.73997
1.73976
1.73955
1.73934
1.73913
1.73891
1.7387
1.7385
1.73829
1.7381
1.7379
1.73771
1.73753
1.73735
1.73718
1.73702
1.73687
1.73673
1.73659
1.73647
1.73635
1.73625
1.73615
1.73607
1.73599
1.73593
1.73589
1.73585
1.73583
1.73582
1.73582
1.73584
1.73587
1.73592
1.73598
1.73606
1.73615
1.73626
1.73639
1.73654
1.7367
1.73689
1.73709
1.73732
1.73757
1.73785
1.73815
1.73847
1.73882
1.73921
1.73962
1.74006
1.74054
1.74106
1.74159
1.74218
1.74286
1.74349
1.74415
1.74505
1.74592
1.74652
1.74764
1.74915
1.7496
1.7504
1.75353
1.75454
1.75298
1.75868
1.76524
1.75654
1.75966
1.78788
1.77771
1.73357
1.73021
1.73055
1.73319
1.73145
1.73285
1.73457
1.73391
1.73365
1.73447
1.73471
1.73446
1.73457
1.73481
1.73482
1.73478
1.73486
1.73491
1.73491
1.73491
1.73494
1.73495
1.73495
1.73496
1.73496
1.73496
1.73496
1.73496
1.73495
1.73494
1.73494
1.73493
1.73492
1.73491
1.7349
1.73488
1.73487
1.73486
1.73484
1.73482
1.73481
1.73479
1.73477
1.73475
1.73474
1.73472
1.7347
1.73467
1.73465
1.73463
1.73461
1.73459
1.73457
1.73455
1.73453
1.7345
1.73448
1.73446
1.73445
1.73443
1.73441
1.73439
1.73438
1.73437
1.73436
1.73435
1.73434
1.73434
1.73434
1.73434
1.73434
1.73435
1.73436
1.73437
1.73439
1.73442
1.73444
1.73447
1.73451
1.73455
1.73459
1.73464
1.73469
1.73474
1.7348
1.73487
1.73493
1.735
1.73507
1.73515
1.73523
1.7353
1.73538
1.73546
1.73554
1.73562
1.73571
1.73579
1.73587
1.73594
1.73602
1.73609
1.73616
1.73623
1.7363
1.73636
1.73642
1.73648
1.73653
1.73658
1.73662
1.73667
1.7367
1.73674
1.73677
1.7368
1.73683
1.73685
1.73687
1.73688
1.7369
1.73691
1.73691
1.73692
1.73693
1.73693
1.73693
1.73693
1.73692
1.73692
1.73691
1.73691
1.7369
1.73689
1.73688
1.73687
1.73686
1.73685
1.73684
1.73682
1.73681
1.7368
1.73679
1.73677
1.73676
1.73675
1.73673
1.73672
1.73671
1.7367
1.73668
1.73667
1.73666
1.73665
1.73664
1.73663
1.73662
1.73661
1.7366
1.73659
1.73658
1.73657
1.73657
1.73656
1.73655
1.73655
1.73654
1.73653
1.73653
1.73652
1.73652
1.73652
1.73651
1.73651
1.73651
1.7365
1.7365
1.7365
1.7365
1.73649
1.73649
1.73649
1.73649
1.73649
1.73649
1.73649
1.73648
1.73648
1.73648
1.73648
1.73648
1.73648
1.73648
1.73648
1.73647
1.73647
1.73647
1.73646
1.73646
1.73646
1.73645
1.73644
1.73644
1.73643
1.73642
1.73641
1.7364
1.73639
1.73637
1.73636
1.73634
1.73632
1.7363
1.73628
1.73626
1.73623
1.73621
1.73618
1.73615
1.73611
1.73608
1.73604
1.73601
1.73597
1.73593
1.73588
1.73584
1.73579
1.73575
1.7357
1.73565
1.7356
1.73555
1.7355
1.73545
1.7354
1.73535
1.7353
1.73525
1.73521
1.73516
1.73512
1.73508
1.73505
1.73501
1.73498
1.73496
1.73494
1.73492
1.73491
1.7349
1.7349
1.73491
1.73493
1.73495
1.73498
1.73501
1.73506
1.73511
1.73517
1.73524
1.73532
1.73541
1.73551
1.73562
1.73573
1.73586
1.736
1.73614
1.7363
1.73646
1.73663
1.73681
1.737
1.7372
1.7374
1.73761
1.73783
1.73805
1.73828
1.73851
1.73874
1.73897
1.73921
1.73944
1.73967
1.7399
1.74013
1.74035
1.74057
1.74078
1.74098
1.74118
1.74136
1.74154
1.7417
1.74185
1.74198
1.74211
1.74221
1.7423
1.74238
1.74244
1.74249
1.74251
1.74253
1.74252
1.7425
1.74246
1.74241
1.74234
1.74226
1.74216
1.74205
1.74193
1.74179
1.74165
1.74149
1.74132
1.74114
1.74096
1.74077
1.74057
1.74037
1.74016
1.73995
1.73974
1.73953
1.73932
1.7391
1.73889
1.73868
1.73847
1.73827
1.73807
1.73788
1.73769
1.7375
1.73733
1.73716
1.737
1.73685
1.7367
1.73657
1.73644
1.73633
1.73622
1.73613
1.73605
1.73597
1.73591
1.73587
1.73583
1.73581
1.7358
1.7358
1.73582
1.73585
1.7359
1.73596
1.73604
1.73613
1.73624
1.73637
1.73652
1.73668
1.73687
1.73707
1.7373
1.73755
1.73783
1.73812
1.73845
1.7388
1.73918
1.73959
1.74004
1.74051
1.74102
1.74157
1.74216
1.74277
1.74346
1.74419
1.74492
1.74575
1.74668
1.74758
1.74856
1.74978
1.75094
1.75211
1.75379
1.75538
1.75672
1.75936
1.76216
1.76321
1.76915
1.7676
1.72216
1.73446
1.74005
1.7285
1.72881
1.73654
1.7349
1.73189
1.73389
1.73529
1.73424
1.734
1.73474
1.73484
1.73457
1.73467
1.73486
1.73483
1.73479
1.73486
1.7349
1.73488
1.73489
1.73491
1.73491
1.73491
1.73491
1.73491
1.73491
1.7349
1.7349
1.73489
1.73488
1.73487
1.73486
1.73485
1.73484
1.73483
1.73481
1.7348
1.73478
1.73477
1.73475
1.73473
1.73471
1.73469
1.73467
1.73465
1.73463
1.73461
1.73459
1.73457
1.73455
1.73453
1.73451
1.73449
1.73447
1.73445
1.73443
1.73441
1.73439
1.73438
1.73436
1.73435
1.73434
1.73433
1.73432
1.73432
1.73432
1.73432
1.73432
1.73433
1.73434
1.73436
1.73438
1.7344
1.73443
1.73446
1.73449
1.73453
1.73458
1.73463
1.73468
1.73473
1.73479
1.73486
1.73493
1.73499
1.73507
1.73514
1.73522
1.7353
1.73538
1.73546
1.73554
1.73563
1.73571
1.73579
1.73587
1.73595
1.73602
1.7361
1.73617
1.73624
1.73631
1.73637
1.73643
1.73648
1.73654
1.73658
1.73663
1.73667
1.73671
1.73674
1.73678
1.7368
1.73683
1.73685
1.73687
1.73688
1.7369
1.73691
1.73692
1.73692
1.73693
1.73693
1.73693
1.73693
1.73692
1.73692
1.73691
1.7369
1.7369
1.73689
1.73688
1.73687
1.73686
1.73684
1.73683
1.73682
1.73681
1.7368
1.73678
1.73677
1.73676
1.73674
1.73673
1.73672
1.73671
1.73669
1.73668
1.73667
1.73666
1.73665
1.73664
1.73663
1.73662
1.73661
1.7366
1.73659
1.73658
1.73657
1.73657
1.73656
1.73655
1.73655
1.73654
1.73653
1.73653
1.73652
1.73652
1.73652
1.73651
1.73651
1.73651
1.7365
1.7365
1.7365
1.7365
1.73649
1.73649
1.73649
1.73649
1.73649
1.73649
1.73649
1.73649
1.73649
1.73649
1.73648
1.73648
1.73648
1.73648
1.73648
1.73648
1.73647
1.73647
1.73647
1.73646
1.73646
1.73646
1.73645
1.73644
1.73643
1.73643
1.73642
1.7364
1.73639
1.73638
1.73636
1.73635
1.73633
1.73631
1.73629
1.73626
1.73624
1.73621
1.73618
1.73615
1.73612
1.73608
1.73605
1.73601
1.73597
1.73593
1.73589
1.73584
1.73579
1.73575
1.7357
1.73565
1.7356
1.73555
1.7355
1.73545
1.7354
1.73535
1.7353
1.73525
1.7352
1.73516
1.73512
1.73508
1.73504
1.735
1.73497
1.73495
1.73493
1.73491
1.7349
1.73489
1.73489
1.7349
1.73491
1.73494
1.73496
1.735
1.73504
1.7351
1.73516
1.73523
1.73531
1.7354
1.7355
1.7356
1.73572
1.73585
1.73599
1.73613
1.73629
1.73645
1.73663
1.73681
1.737
1.7372
1.7374
1.73762
1.73783
1.73806
1.73828
1.73852
1.73875
1.73899
1.73922
1.73946
1.73969
1.73993
1.74016
1.74038
1.7406
1.74081
1.74102
1.74121
1.7414
1.74157
1.74173
1.74188
1.74202
1.74214
1.74225
1.74234
1.74242
1.74248
1.74252
1.74255
1.74255
1.74255
1.74252
1.74249
1.74243
1.74236
1.74227
1.74218
1.74206
1.74194
1.7418
1.74165
1.74149
1.74132
1.74114
1.74095
1.74076
1.74056
1.74036
1.74015
1.73994
1.73972
1.73951
1.73929
1.73908
1.73886
1.73865
1.73845
1.73824
1.73804
1.73785
1.73766
1.73747
1.7373
1.73713
1.73697
1.73682
1.73667
1.73654
1.73641
1.7363
1.73619
1.7361
1.73602
1.73595
1.73589
1.73584
1.7358
1.73578
1.73577
1.73577
1.73579
1.73582
1.73587
1.73593
1.73601
1.7361
1.73621
1.73634
1.73648
1.73665
1.73683
1.73704
1.73726
1.73751
1.73778
1.73808
1.7384
1.73875
1.73913
1.73954
1.73998
1.74045
1.74095
1.74151
1.74209
1.74267
1.74337
1.74413
1.74477
1.74556
1.74668
1.74744
1.74803
1.74972
1.75122
1.75089
1.75266
1.757
1.75581
1.75364
1.76355
1.76745
1.75539
1.76113
1.73466
1.73231
1.73066
1.73292
1.73542
1.73304
1.7322
1.73455
1.73482
1.73369
1.73405
1.73479
1.73459
1.73438
1.73465
1.73479
1.7347
1.73471
1.73481
1.73483
1.73481
1.73483
1.73486
1.73486
1.73486
1.73487
1.73488
1.73487
1.73487
1.73487
1.73486
1.73486
1.73485
1.73484
1.73483
1.73482
1.73481
1.7348
1.73479
1.73477
1.73476
1.73474
1.73473
1.73471
1.73469
1.73467
1.73465
1.73463
1.73461
1.73459
1.73457
1.73455
1.73453
1.73451
1.73449
1.73447
1.73445
1.73443
1.73441
1.73439
1.73438
1.73436
1.73435
1.73433
1.73432
1.73431
1.73431
1.7343
1.7343
1.7343
1.73431
1.73432
1.73433
1.73434
1.73436
1.73438
1.73441
1.73444
1.73448
1.73452
1.73456
1.73461
1.73467
1.73472
1.73478
1.73485
1.73492
1.73499
1.73506
1.73514
1.73522
1.7353
1.73538
1.73546
1.73554
1.73563
1.73571
1.73579
1.73587
1.73595
1.73603
1.7361
1.73618
1.73625
1.73631
1.73638
1.73644
1.73649
1.73654
1.73659
1.73664
1.73668
1.73672
1.73675
1.73678
1.73681
1.73683
1.73686
1.73687
1.73689
1.7369
1.73691
1.73692
1.73692
1.73693
1.73693
1.73693
1.73693
1.73692
1.73692
1.73691
1.7369
1.7369
1.73689
1.73688
1.73687
1.73686
1.73684
1.73683
1.73682
1.73681
1.73679
1.73678
1.73677
1.73676
1.73674
1.73673
1.73672
1.73671
1.73669
1.73668
1.73667
1.73666
1.73665
1.73664
1.73663
1.73662
1.73661
1.7366
1.73659
1.73658
1.73657
1.73657
1.73656
1.73655
1.73655
1.73654
1.73654
1.73653
1.73653
1.73652
1.73652
1.73651
1.73651
1.73651
1.73651
1.7365
1.7365
1.7365
1.7365
1.7365
1.7365
1.73649
1.73649
1.73649
1.73649
1.73649
1.73649
1.73649
1.73649
1.73649
1.73649
1.73649
1.73648
1.73648
1.73648
1.73648
1.73647
1.73647
1.73647
1.73646
1.73646
1.73645
1.73644
1.73643
1.73642
1.73641
1.7364
1.73639
1.73637
1.73635
1.73634
1.73632
1.73629
1.73627
1.73624
1.73622
1.73619
1.73616
1.73613
1.73609
1.73605
1.73602
1.73598
1.73593
1.73589
1.73585
1.7358
1.73575
1.7357
1.73565
1.7356
1.73555
1.7355
1.73545
1.7354
1.73535
1.7353
1.73525
1.7352
1.73515
1.73511
1.73507
1.73503
1.735
1.73497
1.73494
1.73492
1.7349
1.73489
1.73488
1.73488
1.73489
1.7349
1.73492
1.73495
1.73498
1.73503
1.73508
1.73514
1.73521
1.73529
1.73538
1.73548
1.73559
1.7357
1.73583
1.73597
1.73612
1.73627
1.73644
1.73661
1.7368
1.73699
1.73719
1.7374
1.73761
1.73783
1.73806
1.73829
1.73852
1.73876
1.73899
1.73923
1.73947
1.73971
1.73995
1.74018
1.74041
1.74063
1.74084
1.74105
1.74125
1.74144
1.74161
1.74178
1.74193
1.74206
1.74219
1.74229
1.74238
1.74246
1.74252
1.74256
1.74259
1.74259
1.74258
1.74256
1.74252
1.74246
1.74239
1.7423
1.7422
1.74208
1.74195
1.74181
1.74165
1.74149
1.74132
1.74114
1.74095
1.74075
1.74055
1.74034
1.74013
1.73992
1.7397
1.73948
1.73927
1.73905
1.73884
1.73862
1.73842
1.73821
1.73801
1.73781
1.73762
1.73744
1.73726
1.73709
1.73693
1.73678
1.73664
1.7365
1.73638
1.73626
1.73616
1.73606
1.73598
1.73591
1.73585
1.7358
1.73577
1.73574
1.73573
1.73574
1.73575
1.73578
1.73583
1.73589
1.73597
1.73606
1.73617
1.73629
1.73644
1.7366
1.73678
1.73698
1.73721
1.73745
1.73772
1.73801
1.73833
1.73868
1.73905
1.73945
1.73988
1.74036
1.74085
1.74138
1.74196
1.74259
1.7432
1.7439
1.7447
1.74543
1.7462
1.74726
1.74821
1.74889
1.75021
1.75184
1.75226
1.75316
1.75625
1.75736
1.75682
1.75985
1.76082
1.76142
1.73769
1.7322
1.73009
1.73561
1.73502
1.73149
1.7336
1.73538
1.73384
1.73354
1.73469
1.73472
1.73424
1.73447
1.73477
1.73467
1.73461
1.73474
1.73479
1.73476
1.73478
1.73482
1.73482
1.73482
1.73483
1.73484
1.73484
1.73484
1.73484
1.73484
1.73484
1.73483
1.73483
1.73482
1.73481
1.7348
1.73479
1.73478
1.73477
1.73475
1.73474
1.73472
1.73471
1.73469
1.73467
1.73466
1.73464
1.73462
1.7346
1.73458
1.73456
1.73454
1.73452
1.7345
1.73448
1.73445
1.73443
1.73442
1.7344
1.73438
1.73436
1.73435
1.73433
1.73432
1.73431
1.7343
1.73429
1.73429
1.73429
1.73429
1.73429
1.7343
1.73431
1.73433
1.73435
1.73437
1.7344
1.73443
1.73446
1.73451
1.73455
1.7346
1.73465
1.73471
1.73477
1.73484
1.73491
1.73498
1.73505
1.73513
1.73521
1.73529
1.73538
1.73546
1.73554
1.73563
1.73571
1.7358
1.73588
1.73596
1.73604
1.73611
1.73618
1.73625
1.73632
1.73638
1.73644
1.7365
1.73655
1.7366
1.73665
1.73669
1.73673
1.73676
1.73679
1.73682
1.73684
1.73686
1.73688
1.73689
1.73691
1.73692
1.73692
1.73693
1.73693
1.73693
1.73693
1.73693
1.73692
1.73692
1.73691
1.73691
1.7369
1.73689
1.73688
1.73687
1.73686
1.73684
1.73683
1.73682
1.73681
1.73679
1.73678
1.73677
1.73676
1.73674
1.73673
1.73672
1.73671
1.73669
1.73668
1.73667
1.73666
1.73665
1.73664
1.73663
1.73662
1.73661
1.7366
1.73659
1.73658
1.73657
1.73657
1.73656
1.73655
1.73655
1.73654
1.73654
1.73653
1.73653
1.73652
1.73652
1.73652
1.73651
1.73651
1.73651
1.73651
1.7365
1.7365
1.7365
1.7365
1.7365
1.7365
1.7365
1.7365
1.7365
1.7365
1.7365
1.7365
1.73649
1.73649
1.73649
1.73649
1.73649
1.73649
1.73649
1.73648
1.73648
1.73648
1.73647
1.73647
1.73646
1.73646
1.73645
1.73644
1.73643
1.73642
1.73641
1.73639
1.73638
1.73636
1.73634
1.73632
1.7363
1.73628
1.73625
1.73623
1.7362
1.73617
1.73613
1.7361
1.73606
1.73602
1.73598
1.73594
1.7359
1.73585
1.7358
1.73576
1.73571
1.73566
1.73561
1.73555
1.7355
1.73545
1.7354
1.73535
1.73529
1.73524
1.7352
1.73515
1.7351
1.73506
1.73502
1.73499
1.73496
1.73493
1.7349
1.73489
1.73487
1.73486
1.73486
1.73487
1.73488
1.7349
1.73493
1.73496
1.735
1.73506
1.73512
1.73519
1.73527
1.73536
1.73545
1.73556
1.73568
1.73581
1.73595
1.73609
1.73625
1.73642
1.73659
1.73678
1.73697
1.73717
1.73738
1.7376
1.73782
1.73805
1.73828
1.73852
1.73876
1.739
1.73924
1.73949
1.73973
1.73997
1.7402
1.74043
1.74066
1.74088
1.74109
1.74129
1.74148
1.74165
1.74182
1.74197
1.74211
1.74223
1.74234
1.74243
1.74251
1.74257
1.74261
1.74263
1.74264
1.74263
1.7426
1.74255
1.74249
1.74242
1.74233
1.74222
1.7421
1.74197
1.74182
1.74166
1.7415
1.74132
1.74114
1.74094
1.74074
1.74054
1.74033
1.74011
1.7399
1.73968
1.73946
1.73924
1.73902
1.73881
1.73859
1.73838
1.73818
1.73797
1.73778
1.73759
1.7374
1.73722
1.73705
1.73689
1.73674
1.7366
1.73646
1.73634
1.73622
1.73612
1.73602
1.73594
1.73587
1.73581
1.73576
1.73572
1.7357
1.73569
1.73569
1.73571
1.73574
1.73578
1.73584
1.73592
1.73601
1.73611
1.73624
1.73638
1.73654
1.73672
1.73691
1.73713
1.73738
1.73764
1.73793
1.73824
1.73858
1.73895
1.73935
1.73977
1.74023
1.74073
1.74123
1.74179
1.74243
1.74304
1.74366
1.74448
1.74528
1.74585
1.7468
1.7481
1.74859
1.74912
1.75138
1.75259
1.75146
1.75389
1.75818
1.75528
1.75452
1.76177
1.75944
1.7319
1.73412
1.73556
1.73311
1.73204
1.73471
1.73512
1.73319
1.73367
1.73499
1.73452
1.73401
1.73453
1.7348
1.73454
1.73453
1.73475
1.73476
1.73469
1.73474
1.7348
1.73479
1.73478
1.73481
1.73482
1.73482
1.73482
1.73482
1.73482
1.73482
1.73482
1.73481
1.73481
1.7348
1.73479
1.73478
1.73477
1.73476
1.73475
1.73474
1.73472
1.73471
1.73469
1.73468
1.73466
1.73464
1.73462
1.7346
1.73458
1.73456
1.73454
1.73452
1.7345
1.73448
1.73446
1.73444
1.73442
1.7344
1.73438
1.73437
1.73435
1.73433
1.73432
1.73431
1.73429
1.73428
1.73428
1.73427
1.73427
1.73427
1.73428
1.73429
1.7343
1.73431
1.73433
1.73436
1.73438
1.73441
1.73445
1.73449
1.73454
1.73459
1.73464
1.7347
1.73476
1.73483
1.7349
1.73497
1.73505
1.73513
1.73521
1.73529
1.73537
1.73546
1.73554
1.73563
1.73572
1.7358
1.73588
1.73596
1.73604
1.73612
1.73619
1.73626
1.73633
1.73639
1.73645
1.73651
1.73656
1.73661
1.73665
1.7367
1.73673
1.73677
1.7368
1.73682
1.73685
1.73687
1.73688
1.7369
1.73691
1.73692
1.73693
1.73693
1.73693
1.73693
1.73693
1.73693
1.73693
1.73692
1.73691
1.73691
1.7369
1.73689
1.73688
1.73687
1.73686
1.73685
1.73683
1.73682
1.73681
1.7368
1.73678
1.73677
1.73676
1.73674
1.73673
1.73672
1.73671
1.7367
1.73668
1.73667
1.73666
1.73665
1.73664
1.73663
1.73662
1.73661
1.7366
1.73659
1.73659
1.73658
1.73657
1.73656
1.73656
1.73655
1.73655
1.73654
1.73654
1.73653
1.73653
1.73652
1.73652
1.73652
1.73652
1.73651
1.73651
1.73651
1.73651
1.73651
1.73651
1.7365
1.7365
1.7365
1.7365
1.7365
1.7365
1.7365
1.7365
1.7365
1.7365
1.7365
1.7365
1.7365
1.7365
1.7365
1.73649
1.73649
1.73649
1.73648
1.73648
1.73647
1.73647
1.73646
1.73645
1.73644
1.73643
1.73642
1.73641
1.73639
1.73637
1.73636
1.73634
1.73631
1.73629
1.73627
1.73624
1.73621
1.73618
1.73614
1.73611
1.73607
1.73603
1.73599
1.73595
1.73591
1.73586
1.73581
1.73576
1.73571
1.73566
1.73561
1.73556
1.7355
1.73545
1.7354
1.73535
1.73529
1.73524
1.73519
1.73515
1.7351
1.73506
1.73502
1.73498
1.73495
1.73492
1.73489
1.73487
1.73486
1.73485
1.73485
1.73485
1.73486
1.73488
1.7349
1.73494
1.73498
1.73503
1.73509
1.73516
1.73524
1.73533
1.73543
1.73553
1.73565
1.73578
1.73592
1.73607
1.73622
1.73639
1.73657
1.73676
1.73695
1.73715
1.73736
1.73758
1.73781
1.73804
1.73827
1.73851
1.73876
1.739
1.73925
1.73949
1.73974
1.73998
1.74022
1.74046
1.74068
1.74091
1.74112
1.74132
1.74152
1.7417
1.74186
1.74202
1.74216
1.74228
1.74239
1.74248
1.74256
1.74262
1.74266
1.74268
1.74268
1.74267
1.74264
1.74259
1.74253
1.74245
1.74236
1.74225
1.74212
1.74199
1.74184
1.74168
1.74151
1.74132
1.74114
1.74094
1.74074
1.74053
1.74031
1.7401
1.73988
1.73966
1.73944
1.73921
1.73899
1.73877
1.73856
1.73835
1.73814
1.73793
1.73774
1.73755
1.73736
1.73718
1.73701
1.73685
1.7367
1.73655
1.73642
1.73629
1.73618
1.73607
1.73598
1.73589
1.73582
1.73576
1.73571
1.73568
1.73565
1.73564
1.73564
1.73566
1.73569
1.73573
1.73579
1.73586
1.73595
1.73605
1.73617
1.73631
1.73647
1.73664
1.73684
1.73705
1.73729
1.73755
1.73783
1.73814
1.73847
1.73883
1.73922
1.73963
1.74007
1.74056
1.74108
1.74161
1.74218
1.74284
1.74349
1.74409
1.74491
1.74579
1.74636
1.74717
1.74854
1.74926
1.74947
1.75123
1.75304
1.75244
1.75324
1.75612
1.75591
1.75539
1.75578
1.7326
1.73445
1.73496
1.73286
1.73368
1.7351
1.73382
1.73352
1.73476
1.73464
1.73402
1.73443
1.73479
1.73454
1.73449
1.73471
1.73474
1.73466
1.73471
1.73478
1.73477
1.73476
1.73479
1.7348
1.7348
1.7348
1.73481
1.73481
1.73481
1.73481
1.7348
1.7348
1.73479
1.73479
1.73478
1.73477
1.73476
1.73475
1.73474
1.73472
1.73471
1.73469
1.73468
1.73466
1.73465
1.73463
1.73461
1.73459
1.73457
1.73455
1.73453
1.73451
1.73449
1.73447
1.73445
1.73443
1.73441
1.73439
1.73437
1.73436
1.73434
1.73432
1.73431
1.73429
1.73428
1.73427
1.73427
1.73426
1.73426
1.73426
1.73427
1.73427
1.73429
1.7343
1.73432
1.73434
1.73437
1.7344
1.73444
1.73448
1.73453
1.73458
1.73463
1.73469
1.73475
1.73482
1.73489
1.73497
1.73504
1.73512
1.7352
1.73529
1.73537
1.73546
1.73554
1.73563
1.73572
1.7358
1.73589
1.73597
1.73605
1.73612
1.7362
1.73627
1.73634
1.7364
1.73646
1.73652
1.73657
1.73662
1.73666
1.7367
1.73674
1.73677
1.7368
1.73683
1.73685
1.73687
1.73689
1.7369
1.73691
1.73692
1.73693
1.73693
1.73694
1.73694
1.73694
1.73693
1.73693
1.73692
1.73692
1.73691
1.7369
1.73689
1.73688
1.73687
1.73686
1.73685
1.73683
1.73682
1.73681
1.7368
1.73678
1.73677
1.73676
1.73675
1.73673
1.73672
1.73671
1.7367
1.73669
1.73667
1.73666
1.73665
1.73664
1.73663
1.73662
1.73661
1.73661
1.7366
1.73659
1.73658
1.73657
1.73657
1.73656
1.73656
1.73655
1.73655
1.73654
1.73654
1.73653
1.73653
1.73653
1.73652
1.73652
1.73652
1.73652
1.73652
1.73651
1.73651
1.73651
1.73651
1.73651
1.73651
1.73651
1.73651
1.73651
1.73651
1.73651
1.73651
1.73651
1.73651
1.73651
1.73651
1.73651
1.73651
1.7365
1.7365
1.7365
1.73649
1.73649
1.73648
1.73648
1.73647
1.73646
1.73645
1.73644
1.73643
1.73642
1.7364
1.73639
1.73637
1.73635
1.73633
1.7363
1.73628
1.73625
1.73622
1.73619
1.73616
1.73612
1.73608
1.73604
1.736
1.73596
1.73592
1.73587
1.73582
1.73577
1.73572
1.73567
1.73562
1.73556
1.73551
1.73545
1.7354
1.73535
1.73529
1.73524
1.73519
1.73514
1.73509
1.73505
1.73501
1.73497
1.73493
1.7349
1.73488
1.73486
1.73484
1.73483
1.73483
1.73483
1.73484
1.73486
1.73488
1.73491
1.73495
1.73501
1.73506
1.73513
1.73521
1.7353
1.7354
1.7355
1.73562
1.73575
1.73589
1.73604
1.73619
1.73636
1.73654
1.73673
1.73692
1.73713
1.73734
1.73756
1.73779
1.73802
1.73826
1.7385
1.73875
1.739
1.73925
1.7395
1.73975
1.73999
1.74024
1.74048
1.74071
1.74093
1.74115
1.74136
1.74155
1.74174
1.74191
1.74207
1.74221
1.74233
1.74244
1.74254
1.74261
1.74267
1.74271
1.74273
1.74273
1.74272
1.74268
1.74264
1.74257
1.74249
1.74239
1.74227
1.74215
1.742
1.74185
1.74169
1.74151
1.74133
1.74113
1.74093
1.74073
1.74051
1.7403
1.74008
1.73986
1.73963
1.73941
1.73918
1.73896
1.73874
1.73852
1.73831
1.7381
1.73789
1.73769
1.7375
1.73732
1.73714
1.73697
1.7368
1.73665
1.73651
1.73637
1.73624
1.73613
1.73602
1.73593
1.73585
1.73577
1.73571
1.73566
1.73563
1.7356
1.73559
1.73559
1.7356
1.73563
1.73567
1.73573
1.7358
1.73588
1.73598
1.7361
1.73624
1.73639
1.73656
1.73675
1.73696
1.73719
1.73744
1.73772
1.73802
1.73834
1.73869
1.73907
1.73948
1.73991
1.74036
1.74088
1.74142
1.74194
1.74255
1.74325
1.74384
1.74446
1.7454
1.74618
1.7466
1.74764
1.74903
1.7492
1.74962
1.75192
1.75253
1.7514
1.75401
1.75561
1.7527
1.75397
1.73559
1.73381
1.73292
1.73471
1.73515
1.73341
1.73365
1.7351
1.73458
1.73382
1.73451
1.7349
1.73445
1.73442
1.73476
1.73475
1.73461
1.73469
1.73479
1.73475
1.73474
1.73478
1.7348
1.73478
1.73479
1.7348
1.7348
1.7348
1.7348
1.7348
1.73479
1.73479
1.73478
1.73478
1.73477
1.73476
1.73475
1.73474
1.73473
1.73471
1.7347
1.73468
1.73467
1.73465
1.73464
1.73462
1.7346
1.73458
1.73456
1.73454
1.73452
1.7345
1.73448
1.73446
1.73444
1.73442
1.7344
1.73438
1.73437
1.73435
1.73433
1.73431
1.7343
1.73429
1.73428
1.73427
1.73426
1.73425
1.73425
1.73425
1.73426
1.73427
1.73428
1.73429
1.73431
1.73434
1.73436
1.7344
1.73443
1.73447
1.73452
1.73457
1.73462
1.73468
1.73475
1.73481
1.73489
1.73496
1.73504
1.73512
1.7352
1.73529
1.73537
1.73546
1.73554
1.73563
1.73572
1.7358
1.73589
1.73597
1.73605
1.73613
1.7362
1.73627
1.73634
1.7364
1.73647
1.73652
1.73657
1.73662
1.73667
1.73671
1.73675
1.73678
1.73681
1.73683
1.73686
1.73688
1.73689
1.73691
1.73692
1.73693
1.73693
1.73694
1.73694
1.73694
1.73694
1.73693
1.73693
1.73692
1.73692
1.73691
1.7369
1.73689
1.73688
1.73687
1.73686
1.73685
1.73684
1.73682
1.73681
1.7368
1.73679
1.73677
1.73676
1.73675
1.73674
1.73672
1.73671
1.7367
1.73669
1.73668
1.73667
1.73666
1.73665
1.73664
1.73663
1.73662
1.73661
1.7366
1.73659
1.73659
1.73658
1.73657
1.73657
1.73656
1.73656
1.73655
1.73655
1.73654
1.73654
1.73654
1.73653
1.73653
1.73653
1.73653
1.73652
1.73652
1.73652
1.73652
1.73652
1.73652