# vtk DataFile Version 2.0
LBE two cylinders
ASCII
DATASET STRUCTURED_POINTS
DIMENSIONS 400 100 1
ASPECT_RATIO 1 1 1
ORIGIN 0 0 0
POINT_DATA 40000
SCALARS rho double 1
LOOKUP_TABLE default
1.67931
1.73505
1.74908
1.72803
1.72905
1.73804
1.73665
1.73333
1.73481
1.73616
1.73531
1.7349
1.73544
1.73556
1.73531
1.73531
1.73545
1.73543
1.73538
1.7354
1.73544
1.73542
1.73542
1.73543
1.73544
1.73544
1.73544
1.73545
1.73545
1.73545
1.73546
1.73546
1.73546
1.73546
1.73546
1.73546
1.73546
1.73545
1.73545
1.73544
1.73543
1.73541
1.7354
1.73538
1.73536
1.73534
1.73532
1.73529
1.73526
1.73522
1.73519
1.73515
1.7351
1.73506
1.73501
1.73496
1.73491
1.73486
1.7348
1.73474
1.73469
1.73463
1.73457
1.73451
1.73445
1.73439
1.73434
1.73428
1.73423
1.73418
1.73413
1.73409
1.73405
1.73401
1.73398
1.73396
1.73394
1.73392
1.73391
1.73391
1.73391
1.73391
1.73393
1.73395
1.73397
1.73401
1.73404
1.73408
1.73413
1.73418
1.73424
1.7343
1.73437
1.73444
1.73451
1.73458
1.73466
1.73473
1.73481
1.73489
1.73497
1.73504
1.73512
1.7352
1.73527
1.73534
1.73541
1.73548
1.73555
1.73561
1.73567
1.73573
1.73579
1.73584
1.73589
1.73594
1.73599
1.73603
1.73607
1.73611
1.73614
1.73618
1.73621
1.73624
1.73627
1.7363
1.73633
1.73635
1.73637
1.7364
1.73642
1.73644
1.73646
1.73648
1.7365
1.73651
1.73653
1.73655
1.73656
1.73658
1.73659
1.7366
1.73662
1.73663
1.73664
1.73665
1.73666
1.73667
1.73668
1.73668
1.73669
1.7367
1.7367
1.7367
1.73671
1.73671
1.73671
1.73671
1.73671
1.73671
1.73671
1.73671
1.73671
1.7367
1.7367
1.7367
1.7367
1.73669
1.73669
1.73668
1.73668
1.73668
1.73667
1.73667
1.73667
1.73666
1.73666
1.73666
1.73666
1.73666
1.73666
1.73666
1.73666
1.73666
1.73666
1.73666
1.73666
1.73666
1.73667
1.73667
1.73667
1.73668
1.73668
1.73668
1.73669
1.73669
1.73669
1.7367
1.7367
1.73671
1.73671
1.73671
1.73671
1.73672
1.73672
1.73672
1.73672
1.73672
1.73673
1.73673
1.73673
1.73673
1.73673
1.73672
1.73672
1.73672
1.73672
1.73672
1.73672
1.73671
1.73671
1.73671
1.73671
1.7367
1.7367
1.73669
1.73669
1.73668
1.73667
1.73666
1.73666
1.73665
1.73664
1.73663
1.73661
1.7366
1.73659
1.73657
1.73655
1.73653
1.73652
1.73649
1.73647
1.73645
1.73643
1.7364
1.73638
1.73636
1.73633
1.73631
1.73628
1.73626
1.73624
1.73622
1.7362
1.73618
1.73616
1.73615
1.73615
1.73614
1.73614
1.73615
1.73616
1.73617
1.73619
1.73622
1.73626
1.7363
1.73635
1.73641
1.73647
1.73655
1.73663
1.73672
1.73682
1.73692
1.73704
1.73716
1.73729
1.73743
1.73757
1.73773
1.73788
1.73805
1.73821
1.73839
1.73856
1.73874
1.73892
1.7391
1.73928
1.73946
1.73963
1.73981
1.73998
1.74014
1.7403
1.74046
1.74061
1.74075
1.74088
1.74101
1.74112
1.74123
1.74132
1.74141
1.74148
1.74155
1.7416
1.74165
1.74168
1.7417
1.74172
1.74172
1.74171
1.7417
1.74167
1.74164
1.7416
1.74155
1.74149
1.74143
1.74136
1.74128
1.7412
1.74111
1.74102
1.74093
1.74083
1.74072
1.74062
1.74051
1.7404
1.74029
1.74018
1.74007
1.73996
1.73986
1.73975
1.73964
1.73954
1.73944
1.73934
1.73924
1.73915
1.73907
1.73898
1.73891
1.73884
1.73877
1.73871
1.73866
1.73862
1.73858
1.73856
1.73854
1.73853
1.73853
1.73854
1.73856
1.73859
1.73864
1.7387
1.73877
1.73886
1.73896
1.73908
1.73922
1.73937
1.73955
1.73975
1.73997
1.74022
1.74049
1.74079
1.74112
1.7415
1.74189
1.74231
1.74282
1.74334
1.74385
1.7445
1.74525
1.74585
1.74658
1.74776
1.7486
1.74905
1.75086
1.75278
1.75227
1.75392
1.7598
1.75831
1.75503
1.77052
1.7775
1.74894
1.78462
1.69895
1.7223
1.73723
1.73102
1.73152
1.73489
1.73509
1.7341
1.73465
1.73522
1.73508
1.73496
1.73517
1.73525
1.73521
1.73522
1.73528
1.73529
1.7353
1.73531
1.73533
1.73534
1.73535
1.73536
1.73537
1.73537
1.73539
1.73539
1.7354
1.7354
1.73541
1.73541
1.73542
1.73542
1.73542
1.73542
1.73542
1.73542
1.73541
1.7354
1.7354
1.73538
1.73537
1.73535
1.73534
1.73531
1.73529
1.73526
1.73523
1.7352
1.73516
1.73512
1.73508
1.73504
1.73499
1.73494
1.73489
1.73484
1.73478
1.73472
1.73467
1.73461
1.73455
1.73449
1.73444
1.73438
1.73433
1.73427
1.73422
1.73417
1.73413
1.73408
1.73404
1.73401
1.73398
1.73395
1.73393
1.73392
1.73391
1.7339
1.73391
1.73391
1.73393
1.73395
1.73398
1.73401
1.73405
1.73409
1.73414
1.73419
1.73425
1.73431
1.73437
1.73444
1.73451
1.73458
1.73466
1.73473
1.73481
1.73489
1.73497
1.73504
1.73512
1.7352
1.73527
1.73534
1.73541
1.73548
1.73555
1.73561
1.73567
1.73573
1.73579
1.73584
1.73589
1.73594
1.73598
1.73602
1.73607
1.7361
1.73614
1.73617
1.73621
1.73623
1.73626
1.73629
1.73632
1.73634
1.73637
1.73639
1.73641
1.73643
1.73645
1.73647
1.73649
1.7365
1.73652
1.73654
1.73655
1.73657
1.73658
1.73659
1.73661
1.73662
1.73663
1.73664
1.73665
1.73666
1.73667
1.73667
1.73668
1.73669
1.73669
1.73669
1.7367
1.7367
1.7367
1.7367
1.7367
1.7367
1.7367
1.7367
1.7367
1.73669
1.73669
1.73669
1.73669
1.73668
1.73668
1.73667
1.73667
1.73667
1.73666
1.73666
1.73666
1.73665
1.73665
1.73665
1.73665
1.73665
1.73665
1.73665
1.73665
1.73665
1.73665
1.73665
1.73665
1.73666
1.73666
1.73666
1.73666
1.73667
1.73667
1.73667
1.73668
1.73668
1.73669
1.73669
1.73669
1.7367
1.7367
1.7367
1.73671
1.73671
1.73671
1.73671
1.73671
1.73672
1.73672
1.73672
1.73672
1.73672
1.73672
1.73672
1.73672
1.73671
1.73671
1.73671
1.73671
1.73671
1.7367
1.7367
1.7367
1.73669
1.73669
1.73668
1.73668
1.73667
1.73666
1.73666
1.73665
1.73664
1.73663
1.73662
1.7366
1.73659
1.73658
1.73656
1.73654
1.73653
1.73651
1.73649
1.73646
1.73644
1.73642
1.7364
1.73637
1.73635
1.73632
1.7363
1.73627
1.73625
1.73623
1.73621
1.73619
1.73617
1.73616
1.73615
1.73614
1.73614
1.73614
1.73614
1.73615
1.73617
1.73619
1.73622
1.73626
1.7363
1.73635
1.73641
1.73648
1.73655
1.73663
1.73672
1.73682
1.73693
1.73705
1.73717
1.7373
1.73744
1.73759
1.73774
1.7379
1.73806
1.73823
1.7384
1.73857
1.73875
1.73893
1.73911
1.73929
1.73947
1.73965
1.73982
1.73999
1.74015
1.74031
1.74047
1.74062
1.74076
1.74089
1.74101
1.74113
1.74123
1.74132
1.74141
1.74148
1.74155
1.7416
1.74164
1.74168
1.7417
1.74171
1.74171
1.74171
1.74169
1.74166
1.74163
1.74159
1.74154
1.74148
1.74142
1.74134
1.74127
1.74119
1.7411
1.74101
1.74091
1.74081
1.74071
1.7406
1.7405
1.74039
1.74028
1.74017
1.74006
1.73995
1.73984
1.73973
1.73963
1.73952
1.73942
1.73932
1.73923
1.73914
1.73905
1.73897
1.7389
1.73883
1.73876
1.73871
1.73866
1.73861
1.73858
1.73855
1.73853
1.73852
1.73852
1.73854
1.73856
1.73859
1.73864
1.7387
1.73877
1.73886
1.73897
1.73909
1.73923
1.73939
1.73957
1.73977
1.73999
1.74024
1.74051
1.74082
1.74116
1.74152
1.74192
1.74237
1.74284
1.74336
1.74394
1.74457
1.74522
1.74595
1.74681
1.74765
1.7485
1.74965
1.75094
1.75189
1.75318
1.75545
1.75728
1.7577
1.76129
1.76747
1.76842
1.76508
1.78955
1.75107
1.72328
1.71351
1.73657
1.73929
1.73004
1.73181
1.73633
1.73511
1.73359
1.73473
1.73541
1.73489
1.73478
1.73515
1.7352
1.73508
1.73513
1.73523
1.73523
1.73522
1.73525
1.73528
1.73528
1.7353
1.73531
1.73533
1.73533
1.73535
1.73535
1.73536
1.73537
1.73538
1.73538
1.73538
1.73538
1.73538
1.73538
1.73538
1.73537
1.73536
1.73535
1.73534
1.73532
1.73531
1.73528
1.73526
1.73523
1.73521
1.73517
1.73514
1.7351
1.73506
1.73501
1.73497
1.73492
1.73487
1.73481
1.73476
1.7347
1.73465
1.73459
1.73454
1.73448
1.73442
1.73436
1.73431
1.73426
1.73421
1.73416
1.73411
1.73407
1.73403
1.734
1.73397
1.73394
1.73392
1.73391
1.7339
1.7339
1.7339
1.73391
1.73393
1.73395
1.73397
1.734
1.73404
1.73409
1.73414
1.73419
1.73425
1.73431
1.73438
1.73444
1.73452
1.73459
1.73466
1.73474
1.73482
1.73489
1.73497
1.73505
1.73513
1.7352
1.73528
1.73535
1.73542
1.73548
1.73555
1.73561
1.73567
1.73573
1.73579
1.73584
1.73589
1.73593
1.73598
1.73602
1.73606
1.7361
1.73613
1.73617
1.7362
1.73623
1.73626
1.73628
1.73631
1.73633
1.73636
1.73638
1.7364
1.73642
1.73644
1.73646
1.73648
1.73649
1.73651
1.73653
1.73654
1.73655
1.73657
1.73658
1.73659
1.73661
1.73662
1.73663
1.73664
1.73664
1.73665
1.73666
1.73667
1.73667
1.73668
1.73668
1.73668
1.73668
1.73669
1.73669
1.73669
1.73669
1.73669
1.73668
1.73668
1.73668
1.73668
1.73667
1.73667
1.73666
1.73666
1.73666
1.73665
1.73665
1.73665
1.73664
1.73664
1.73664
1.73664
1.73663
1.73663
1.73663
1.73663
1.73663
1.73663
1.73663
1.73663
1.73664
1.73664
1.73664
1.73664
1.73664
1.73665
1.73665
1.73666
1.73666
1.73666
1.73667
1.73667
1.73667
1.73668
1.73668
1.73668
1.73669
1.73669
1.73669
1.7367
1.7367
1.7367
1.7367
1.7367
1.7367
1.7367
1.7367
1.7367
1.7367
1.7367
1.7367
1.7367
1.7367
1.7367
1.73669
1.73669
1.73669
1.73668
1.73668
1.73668
1.73667
1.73667
1.73666
1.73665
1.73664
1.73664
1.73663
1.73662
1.7366
1.73659
1.73658
1.73656
1.73655
1.73653
1.73651
1.73649
1.73647
1.73645
1.73643
1.73641
1.73638
1.73636
1.73633
1.73631
1.73628
1.73626
1.73624
1.73622
1.73619
1.73618
1.73616
1.73615
1.73614
1.73613
1.73613
1.73613
1.73613
1.73614
1.73616
1.73618
1.73621
1.73625
1.73629
1.73635
1.7364
1.73647
1.73655
1.73663
1.73672
1.73682
1.73693
1.73705
1.73717
1.73731
1.73745
1.73759
1.73775
1.7379
1.73807
1.73824
1.73841
1.73859
1.73876
1.73894
1.73912
1.7393
1.73948
1.73966
1.73983
1.74001
1.74017
1.74033
1.74049
1.74063
1.74077
1.7409
1.74103
1.74114
1.74124
1.74134
1.74142
1.74149
1.74156
1.74161
1.74165
1.74168
1.7417
1.74172
1.74172
1.74171
1.74169
1.74166
1.74163
1.74159
1.74153
1.74148
1.74141
1.74134
1.74126
1.74118
1.74109
1.741
1.7409
1.7408
1.74069
1.74059
1.74048
1.74037
1.74026
1.74015
1.74004
1.73993
1.73982
1.73971
1.73961
1.7395
1.7394
1.7393
1.73921
1.73912
1.73903
1.73895
1.73888
1.73881
1.73874
1.73869
1.73864
1.73859
1.73856
1.73853
1.73852
1.73851
1.73851
1.73852
1.73854
1.73858
1.73863
1.73869
1.73876
1.73885
1.73896
1.73908
1.73922
1.73938
1.73956
1.73976
1.73998
1.74023
1.7405
1.74081
1.74115
1.74151
1.74192
1.74237
1.74282
1.74335
1.74396
1.74455
1.74515
1.74601
1.74685
1.74743
1.74852
1.75002
1.75048
1.75129
1.75444
1.75548
1.75394
1.75967
1.76626
1.75758
1.76072
1.78897
1.77879
1.73375
1.73038
1.73072
1.73335
1.7316
1.733
1.73471
1.73404
1.73379
1.73461
1.73485
1.7346
1.73471
1.73496
1.73497
1.73494
1.73502
1.73509
1.7351
1.73511
1.73516
1.73518
1.73519
1.73521
1.73524
1.73525
1.73526
1.73528
1.73529
1.7353
1.73531
1.73532
1.73533
1.73533
1.73534
1.73534
1.73535
1.73534
1.73534
1.73534
1.73533
1.73532
1.73531
1.73529
1.73528
1.73525
1.73523
1.73521
1.73518
1.73514
1.73511
1.73507
1.73503
1.73499
1.73494
1.73489
1.73485
1.73479
1.73474
1.73468
1.73463
1.73457
1.73452
1.73446
1.7344
1.73435
1.73429
1.73424
1.73419
1.73414
1.7341
1.73405
1.73402
1.73398
1.73396
1.73393
1.73391
1.7339
1.73389
1.73389
1.73389
1.7339
1.73392
1.73394
1.73397
1.734
1.73404
1.73409
1.73414
1.73419
1.73425
1.73431
1.73438
1.73445
1.73452
1.73459
1.73467
1.73474
1.73482
1.7349
1.73498
1.73505
1.73513
1.73521
1.73528
1.73535
1.73542
1.73549
1.73555
1.73562
1.73568
1.73573
1.73579
1.73584
1.73589
1.73593
1.73598
1.73602
1.73606
1.73609
1.73613
1.73616
1.73619
1.73622
1.73625
1.73628
1.7363
1.73633
1.73635
1.73637
1.73639
1.73641
1.73643
1.73645
1.73646
1.73648
1.7365
1.73651
1.73653
1.73654
1.73655
1.73657
1.73658
1.73659
1.7366
1.73661
1.73662
1.73663
1.73663
1.73664
1.73665
1.73665
1.73666
1.73666
1.73666
1.73666
1.73667
1.73667
1.73667
1.73666
1.73666
1.73666
1.73666
1.73666
1.73665
1.73665
1.73665
1.73664
1.73664
1.73664
1.73663
1.73663
1.73663
1.73662
1.73662
1.73662
1.73662
1.73661
1.73661
1.73661
1.73661
1.73661
1.73661
1.73661
1.73661
1.73661
1.73662
1.73662
1.73662
1.73662
1.73663
1.73663
1.73663
1.73664
1.73664
1.73664
1.73665
1.73665
1.73666
1.73666
1.73666
1.73667
1.73667
1.73667
1.73667
1.73668
1.73668
1.73668
1.73668
1.73668
1.73668
1.73668
1.73668
1.73668
1.73668
1.73668
1.73668
1.73668
1.73668
1.73668
1.73667
1.73667
1.73667
1.73666
1.73666
1.73665
1.73665
1.73664
1.73664
1.73663
1.73662
1.73661
1.7366
1.73659
1.73658
1.73656
1.73655
1.73653
1.73651
1.7365
1.73648
1.73646
1.73643
1.73641
1.73639
1.73636
1.73634
1.73631
1.73629
1.73627
1.73624
1.73622
1.7362
1.73618
1.73616
1.73614
1.73613
1.73612
1.73611
1.73611
1.73611
1.73611
1.73613
1.73614
1.73617
1.7362
1.73623
1.73628
1.73633
1.73639
1.73646
1.73653
1.73662
1.73671
1.73681
1.73692
1.73704
1.73717
1.7373
1.73744
1.73759
1.73775
1.73791
1.73807
1.73824
1.73842
1.73859
1.73877
1.73896
1.73914
1.73932
1.7395
1.73968
1.73985
1.74002
1.74019
1.74035
1.74051
1.74065
1.74079
1.74093
1.74105
1.74116
1.74127
1.74136
1.74144
1.74152
1.74158
1.74163
1.74167
1.7417
1.74172
1.74173
1.74173
1.74172
1.7417
1.74167
1.74164
1.74159
1.74154
1.74148
1.74141
1.74134
1.74126
1.74117
1.74108
1.74099
1.74089
1.74079
1.74068
1.74058
1.74047
1.74036
1.74025
1.74013
1.74002
1.73991
1.7398
1.73969
1.73958
1.73948
1.73938
1.73928
1.73918
1.73909
1.73901
1.73893
1.73885
1.73878
1.73872
1.73866
1.73861
1.73857
1.73853
1.7385
1.73849
1.73848
1.73848
1.73849
1.73852
1.73855
1.7386
1.73866
1.73873
1.73882
1.73893
1.73905
1.73919
1.73934
1.73952
1.73972
1.73994
1.74019
1.74047
1.74077
1.7411
1.74147
1.74187
1.7423
1.74278
1.7433
1.74385
1.74448
1.74516
1.74586
1.74665
1.74755
1.74844
1.74941
1.75062
1.7518
1.75299
1.75469
1.75631
1.75768
1.76035
1.76318
1.76424
1.77019
1.76864
1.72233
1.73462
1.74021
1.72865
1.72895
1.73668
1.73504
1.73202
1.73401
1.73541
1.73437
1.73412
1.73488
1.73498
1.73471
1.73482
1.73502
1.735
1.73498
1.73505
1.7351
1.7351
1.73512
1.73516
1.73518
1.73519
1.73521
1.73523
1.73524
1.73525
1.73527
1.73528
1.73529
1.73529
1.7353
1.7353
1.73531
1.73531
1.73531
1.7353
1.7353
1.73529
1.73528
1.73526
1.73525
1.73523
1.7352
1.73518
1.73515
1.73512
1.73508
1.73505
1.73501
1.73496
1.73492
1.73487
1.73482
1.73477
1.73472
1.73466
1.73461
1.73455
1.7345
1.73444
1.73438
1.73433
1.73427
1.73422
1.73417
1.73412
1.73408
1.73404
1.734
1.73397
1.73394
1.73392
1.7339
1.73389
1.73388
1.73388
1.73388
1.73389
1.73391
1.73393
1.73396
1.734
1.73404
1.73408
1.73413
1.73419
1.73425
1.73431
1.73438
1.73445
1.73452
1.7346
1.73467
1.73475
1.73483
1.73491
1.73498
1.73506
1.73514
1.73521
1.73529
1.73536
1.73543
1.73549
1.73556
1.73562
1.73568
1.73574
1.73579
1.73584
1.73589
1.73593
1.73598
1.73602
1.73606
1.73609
1.73613
1.73616
1.73619
1.73622
1.73624
1.73627
1.73629
1.73632
1.73634
1.73636
1.73638
1.7364
1.73642
1.73643
1.73645
1.73646
1.73648
1.73649
1.73651
1.73652
1.73654
1.73655
1.73656
1.73657
1.73658
1.73659
1.7366
1.7366
1.73661
1.73662
1.73662
1.73663
1.73663
1.73663
1.73664
1.73664
1.73664
1.73664
1.73664
1.73664
1.73664
1.73664
1.73663
1.73663
1.73663
1.73662
1.73662
1.73662
1.73661
1.73661
1.73661
1.7366
1.7366
1.73659
1.73659
1.73659
1.73659
1.73658
1.73658
1.73658
1.73658
1.73658
1.73658
1.73658
1.73658
1.73658
1.73659
1.73659
1.73659
1.73659
1.7366
1.7366
1.7366
1.73661
1.73661
1.73662
1.73662
1.73662
1.73663
1.73663
1.73663
1.73664
1.73664
1.73664
1.73665
1.73665
1.73665
1.73665
1.73665
1.73666
1.73666
1.73666
1.73666
1.73666
1.73666
1.73666
1.73666
1.73666
1.73665
1.73665
1.73665
1.73665
1.73664
1.73664
1.73664
1.73663
1.73663
1.73662
1.73661
1.73661
1.7366
1.73659
1.73658
1.73657
1.73656
1.73654
1.73653
1.73651
1.73649
1.73647
1.73646
1.73643
1.73641
1.73639
1.73637
1.73634
1.73632
1.73629
1.73627
1.73624
1.73622
1.73619
1.73617
1.73615
1.73613
1.73612
1.7361
1.73609
1.73608
1.73608
1.73608
1.73609
1.7361
1.73612
1.73614
1.73617
1.73621
1.73625
1.73631
1.73637
1.73644
1.73651
1.7366
1.73669
1.7368
1.73691
1.73703
1.73715
1.73729
1.73743
1.73758
1.73774
1.7379
1.73807
1.73824
1.73842
1.7386
1.73878
1.73897
1.73915
1.73933
1.73952
1.7397
1.73987
1.74005
1.74022
1.74038
1.74053
1.74068
1.74082
1.74096
1.74108
1.74119
1.7413
1.74139
1.74147
1.74155
1.74161
1.74166
1.7417
1.74173
1.74175
1.74175
1.74175
1.74174
1.74172
1.74169
1.74165
1.74161
1.74155
1.74149
1.74142
1.74134
1.74126
1.74118
1.74108
1.74099
1.74089
1.74078
1.74068
1.74057
1.74046
1.74034
1.74023
1.74012
1.74
1.73989
1.73978
1.73967
1.73956
1.73945
1.73935
1.73925
1.73915
1.73906
1.73897
1.73889
1.73881
1.73874
1.73868
1.73862
1.73857
1.73853
1.73849
1.73847
1.73845
1.73844
1.73844
1.73845
1.73847
1.73851
1.73855
1.73861
1.73869
1.73877
1.73888
1.739
1.73914
1.73929
1.73947
1.73967
1.73988
1.74013
1.7404
1.7407
1.74103
1.74139
1.74178
1.7422
1.74269
1.7432
1.74372
1.74436
1.74507
1.74567
1.74641
1.74751
1.74826
1.74883
1.75052
1.75203
1.75173
1.75352
1.75789
1.75673
1.75458
1.76453
1.76844
1.75638
1.76213
1.73482
1.73246
1.73081
1.73306
1.73556
1.73317
1.73232
1.73467
1.73493
1.73381
1.73417
1.73491
1.73472
1.73451
1.73478
1.73493
1.73485
1.73487
1.73498
1.73501
1.73501
1.73504
1.73509
1.7351
1.73512
1.73514
1.73516
1.73518
1.7352
1.73521
1.73522
1.73524
1.73525
1.73526
1.73526
1.73527
1.73527
1.73527
1.73527
1.73527
1.73526
1.73526
1.73525
1.73523
1.73522
1.7352
1.73518
1.73515
1.73512
1.73509
1.73506
1.73502
1.73498
1.73494
1.7349
1.73485
1.7348
1.73475
1.7347
1.73464
1.73459
1.73453
1.73448
1.73442
1.73436
1.73431
1.73426
1.7342
1.73416
1.73411
1.73406
1.73402
1.73399
1.73395
1.73393
1.7339
1.73389
1.73387
1.73387
1.73387
1.73387
1.73389
1.7339
1.73393
1.73396
1.73399
1.73403
1.73408
1.73413
1.73419
1.73425
1.73431
1.73438
1.73445
1.73453
1.7346
1.73468
1.73476
1.73483
1.73491
1.73499
1.73507
1.73515
1.73522
1.73529
1.73537
1.73543
1.7355
1.73557
1.73563
1.73569
1.73574
1.73579
1.73584
1.73589
1.73594
1.73598
1.73602
1.73606
1.73609
1.73612
1.73615
1.73618
1.73621
1.73624
1.73626
1.73628
1.73631
1.73633
1.73635
1.73637
1.73638
1.7364
1.73642
1.73643
1.73645
1.73646
1.73648
1.73649
1.7365
1.73651
1.73652
1.73654
1.73655
1.73656
1.73656
1.73657
1.73658
1.73659
1.73659
1.7366
1.7366
1.7366
1.73661
1.73661
1.73661
1.73661
1.73661
1.73661
1.73661
1.73661
1.7366
1.7366
1.7366
1.7366
1.73659
1.73659
1.73658
1.73658
1.73658
1.73657
1.73657
1.73657
1.73656
1.73656
1.73656
1.73655
1.73655
1.73655
1.73655
1.73655
1.73655
1.73655
1.73655
1.73655
1.73655
1.73655
1.73655
1.73656
1.73656
1.73656
1.73657
1.73657
1.73657
1.73658
1.73658
1.73659
1.73659
1.73659
1.7366
1.7366
1.7366
1.73661
1.73661
1.73661
1.73662
1.73662
1.73662
1.73662
1.73662
1.73663
1.73663
1.73663
1.73663
1.73663
1.73663
1.73663
1.73663
1.73663
1.73663
1.73662
1.73662
1.73662
1.73662
1.73661
1.73661
1.7366
1.7366
1.73659
1.73658
1.73657
1.73657
1.73656
1.73654
1.73653
1.73652
1.7365
1.73649
1.73647
1.73645
1.73643
1.73641
1.73639
1.73636
1.73634
1.73632
1.73629
1.73627
1.73624
1.73621
1.73619
1.73617
1.73614
1.73612
1.7361
1.73609
1.73607
1.73606
1.73605
1.73605
1.73605
1.73606
1.73607
1.73609
1.73611
1.73614
1.73618
1.73622
1.73628
1.73634
1.73641
1.73648
1.73657
1.73667
1.73677
1.73688
1.737
1.73713
1.73727
1.73742
1.73757
1.73773
1.73789
1.73806
1.73824
1.73842
1.7386
1.73879
1.73897
1.73916
1.73935
1.73953
1.73971
1.73989
1.74007
1.74024
1.7404
1.74056
1.74071
1.74086
1.74099
1.74111
1.74123
1.74133
1.74143
1.74151
1.74158
1.74164
1.74169
1.74173
1.74176
1.74178
1.74179
1.74178
1.74177
1.74175
1.74171
1.74167
1.74163
1.74157
1.7415
1.74143
1.74135
1.74127
1.74118
1.74109
1.74099
1.74088
1.74078
1.74067
1.74056
1.74044
1.74033
1.74021
1.7401
1.73998
1.73987
1.73975
1.73964
1.73953
1.73942
1.73932
1.73921
1.73912
1.73902
1.73894
1.73885
1.73877
1.7387
1.73864
1.73858
1.73853
1.73848
1.73845
1.73842
1.7384
1.73839
1.73839
1.7384
1.73842
1.73845
1.7385
1.73856
1.73863
1.73872
1.73882
1.73893
1.73907
1.73922
1.73939
1.73959
1.73981
1.74004
1.74031
1.7406
1.74092
1.74127
1.74167
1.74209
1.74254
1.74305
1.7436
1.74416
1.74481
1.74556
1.74625
1.74699
1.74803
1.74897
1.74964
1.75098
1.75262
1.75306
1.75399
1.75711
1.75825
1.75773
1.76077
1.76176
1.76237
1.73784
1.73234
1.73022
1.73574
1.73514
1.73161
1.73371
1.73549
1.73394
1.73364
1.7348
1.73483
1.73435
1.73459
1.73489
1.7348
1.73475
1.73489
1.73495
1.73493
1.73496
1.73502
1.73504
1.73505
1.73508
1.73511
1.73512
1.73514
1.73516
1.73517
1.73519
1.7352
1.73521
1.73522
1.73523
1.73523
1.73524
1.73524
1.73524
1.73524
1.73523
1.73523
1.73522
1.7352
1.73519
1.73517
1.73515
1.73512
1.7351
1.73507
1.73503
1.735
1.73496
1.73492
1.73487
1.73483
1.73478
1.73473
1.73467
1.73462
1.73457
1.73451
1.73446
1.7344
1.73435
1.73429
1.73424
1.73419
1.73414
1.73409
1.73405
1.73401
1.73397
1.73394
1.73391
1.73389
1.73388
1.73386
1.73386
1.73386
1.73386
1.73388
1.7339
1.73392
1.73395
1.73399
1.73403
1.73408
1.73413
1.73419
1.73425
1.73431
1.73438
1.73445
1.73453
1.7346
1.73468
1.73476
1.73484
1.73492
1.735
1.73508
1.73515
1.73523
1.7353
1.73537
1.73544
1.73551
1.73557
1.73563
1.73569
1.73575
1.7358
1.73585
1.73589
1.73594
1.73598
1.73602
1.73605
1.73609
1.73612
1.73615
1.73618
1.7362
1.73623
1.73625
1.73627
1.73629
1.73631
1.73633
1.73635
1.73637
1.73638
1.7364
1.73641
1.73643
1.73644
1.73645
1.73647
1.73648
1.73649
1.7365
1.73651
1.73652
1.73653
1.73654
1.73654
1.73655
1.73656
1.73656
1.73657
1.73657
1.73657
1.73657
1.73658
1.73658
1.73658
1.73658
1.73658
1.73657
1.73657
1.73657
1.73657
1.73656
1.73656
1.73656
1.73655
1.73655
1.73654
1.73654
1.73654
1.73653
1.73653
1.73653
1.73652
1.73652
1.73652
1.73651
1.73651
1.73651
1.73651
1.73651
1.73651
1.73651
1.73651
1.73651
1.73651
1.73652
1.73652
1.73652
1.73652
1.73653
1.73653
1.73653
1.73654
1.73654
1.73655
1.73655
1.73655
1.73656
1.73656
1.73657
1.73657
1.73657
1.73658
1.73658
1.73658
1.73658
1.73659
1.73659
1.73659
1.73659
1.73659
1.73659
1.7366
1.7366
1.7366
1.7366
1.7366
1.73659
1.73659
1.73659
1.73659
1.73659
1.73658
1.73658
1.73657
1.73657
1.73656
1.73656
1.73655
1.73654
1.73653
1.73652
1.7365
1.73649
1.73648
1.73646
1.73644
1.73642
1.7364
1.73638
1.73636
1.73634
1.73631
1.73629
1.73626
1.73624
1.73621
1.73618
1.73616
1.73613
1.73611
1.73609
1.73607
1.73605
1.73604
1.73603
1.73602
1.73601
1.73601
1.73602
1.73603
1.73605
1.73607
1.7361
1.73614
1.73619
1.73624
1.7363
1.73637
1.73645
1.73654
1.73664
1.73674
1.73686
1.73698
1.73711
1.73725
1.7374
1.73755
1.73771
1.73788
1.73805
1.73823
1.73841
1.7386
1.73879
1.73898
1.73917
1.73936
1.73955
1.73973
1.73991
1.74009
1.74027
1.74043
1.74059
1.74075
1.74089
1.74103
1.74115
1.74127
1.74137
1.74147
1.74155
1.74162
1.74168
1.74173
1.74177
1.7418
1.74182
1.74182
1.74182
1.7418
1.74178
1.74174
1.7417
1.74165
1.74159
1.74152
1.74145
1.74137
1.74128
1.74119
1.74109
1.74099
1.74088
1.74078
1.74066
1.74055
1.74043
1.74031
1.7402
1.74008
1.73996
1.73984
1.73972
1.73961
1.7395
1.73939
1.73928
1.73918
1.73908
1.73898
1.73889
1.73881
1.73873
1.73865
1.73859
1.73853
1.73847
1.73843
1.73839
1.73836
1.73834
1.73833
1.73833
1.73834
1.73836
1.73839
1.73844
1.73849
1.73856
1.73864
1.73874
1.73886
1.73899
1.73914
1.73931
1.7395
1.73971
1.73994
1.7402
1.74049
1.7408
1.74114
1.74152
1.74194
1.74236
1.74285
1.74342
1.74396
1.74452
1.74529
1.74605
1.74659
1.74751
1.74881
1.74928
1.74983
1.7521
1.75333
1.75222
1.75469
1.75901
1.75613
1.75538
1.76266
1.76033
1.73203
1.73425
1.73567
1.73322
1.73214
1.73481
1.73522
1.73329
1.73376
1.73508
1.73461
1.7341
1.73463
1.7349
1.73465
1.73465
1.73487
1.73489
1.73484
1.7349
1.73497
1.73497
1.73498
1.73502
1.73505
1.73506
1.73508
1.73511
1.73512
1.73514
1.73515
1.73517
1.73518
1.73519
1.7352
1.7352
1.73521
1.73521
1.73521
1.73521
1.7352
1.7352
1.73519
1.73518
1.73516
1.73514
1.73512
1.7351
1.73507
1.73504
1.73501
1.73497
1.73493
1.73489
1.73485
1.7348
1.73476
1.73471
1.73465
1.7346
1.73455
1.73449
1.73444
1.73438
1.73433
1.73427
1.73422
1.73417
1.73412
1.73408
1.73403
1.73399
1.73396
1.73393
1.7339
1.73388
1.73386
1.73385
1.73385
1.73385
1.73386
1.73387
1.73389
1.73391
1.73395
1.73398
1.73403
1.73407
1.73413
1.73419
1.73425
1.73432
1.73439
1.73446
1.73453
1.73461
1.73469
1.73477
1.73485
1.73493
1.73501
1.73508
1.73516
1.73524
1.73531
1.73538
1.73545
1.73552
1.73558
1.73564
1.7357
1.73575
1.7358
1.73585
1.7359
1.73594
1.73598
1.73602
1.73605
1.73608
1.73611
1.73614
1.73617
1.7362
1.73622
1.73624
1.73626
1.73628
1.7363
1.73632
1.73634
1.73635
1.73637
1.73638
1.73639
1.73641
1.73642
1.73643
1.73644
1.73645
1.73646
1.73647
1.73648
1.73649
1.7365
1.73651
1.73651
1.73652
1.73652
1.73653
1.73653
1.73654
1.73654
1.73654
1.73654
1.73654
1.73654
1.73654
1.73654
1.73654
1.73654
1.73653
1.73653
1.73653
1.73652
1.73652
1.73651
1.73651
1.73651
1.7365
1.7365
1.73649
1.73649
1.73648
1.73648
1.73648
1.73648
1.73647
1.73647
1.73647
1.73647
1.73647
1.73647
1.73647
1.73647
1.73647
1.73647
1.73647
1.73648
1.73648
1.73648
1.73648
1.73649
1.73649
1.7365
1.7365
1.7365
1.73651
1.73651
1.73652
1.73652
1.73652
1.73653
1.73653
1.73654
1.73654
1.73654
1.73654
1.73655
1.73655
1.73655
1.73655
1.73656
1.73656
1.73656
1.73656
1.73656
1.73656
1.73656
1.73656
1.73656
1.73656
1.73656
1.73655
1.73655
1.73655
1.73654
1.73654
1.73653
1.73653
1.73652
1.73651
1.7365
1.73649
1.73648
1.73646
1.73645
1.73643
1.73641
1.73639
1.73637
1.73635
1.73633
1.73631
1.73628
1.73626
1.73623
1.7362
1.73618
1.73615
1.73613
1.7361
1.73608
1.73605
1.73603
1.73602
1.736
1.73599
1.73598
1.73598
1.73598
1.73598
1.73599
1.73601
1.73603
1.73606
1.7361
1.73615
1.7362
1.73626
1.73633
1.73641
1.7365
1.7366
1.73671
1.73682
1.73695
1.73708
1.73722
1.73737
1.73753
1.73769
1.73786
1.73804
1.73822
1.7384
1.73859
1.73878
1.73898
1.73917
1.73936
1.73956
1.73975
1.73993
1.74011
1.74029
1.74046
1.74062
1.74078
1.74093
1.74106
1.74119
1.74131
1.74142
1.74151
1.74159
1.74167
1.74173
1.74178
1.74182
1.74184
1.74186
1.74186
1.74185
1.74184
1.74181
1.74178
1.74173
1.74168
1.74161
1.74154
1.74147
1.74138
1.74129
1.7412
1.7411
1.74099
1.74089
1.74077
1.74066
1.74054
1.74042
1.7403
1.74018
1.74006
1.73993
1.73981
1.73969
1.73958
1.73946
1.73935
1.73924
1.73913
1.73903
1.73894
1.73884
1.73876
1.73868
1.7386
1.73853
1.73847
1.73842
1.73837
1.73833
1.7383
1.73828
1.73827
1.73827
1.73827
1.73829
1.73832
1.73836
1.73842
1.73848
1.73856
1.73866
1.73877
1.7389
1.73904
1.73921
1.73939
1.73959
1.73982
1.74007
1.74034
1.74065
1.74099
1.74134
1.74174
1.74219
1.74264
1.74313
1.74373
1.74432
1.74487
1.74564
1.74649
1.74703
1.74782
1.74919
1.74991
1.75013
1.75191
1.75374
1.75317
1.75399
1.7569
1.75671
1.75621
1.75661
1.73271
1.73454
1.73506
1.73295
1.73377
1.73518
1.7339
1.73359
1.73483
1.73471
1.73409
1.7345
1.73486
1.73462
1.73457
1.73481
1.73485
1.73478
1.73484
1.73492
1.73492
1.73493
1.73497
1.735
1.73501
1.73503
1.73506
1.73508
1.73509
1.73511
1.73512
1.73514
1.73515
1.73516
1.73517
1.73517
1.73518
1.73518
1.73518
1.73518
1.73518
1.73517
1.73516
1.73515
1.73513
1.73512
1.7351
1.73507
1.73505
1.73502
1.73498
1.73495
1.73491
1.73487
1.73483
1.73478
1.73474
1.73469
1.73463
1.73458
1.73453
1.73447
1.73442
1.73437
1.73431
1.73426
1.73421
1.73416
1.73411
1.73406
1.73402
1.73398
1.73395
1.73392
1.73389
1.73387
1.73386
1.73385
1.73384
1.73384
1.73385
1.73386
1.73389
1.73391
1.73394
1.73398
1.73403
1.73407
1.73413
1.73419
1.73425
1.73432
1.73439
1.73446
1.73454
1.73462
1.73469
1.73477
1.73485
1.73493
1.73501
1.73509
1.73517
1.73524
1.73532
1.73539
1.73546
1.73552
1.73558
1.73564
1.7357
1.73575
1.7358
1.73585
1.7359
1.73594
1.73598
1.73601
1.73605
1.73608
1.73611
1.73614
1.73616
1.73619
1.73621
1.73623
1.73625
1.73627
1.73629
1.7363
1.73632
1.73633
1.73635
1.73636
1.73637
1.73638
1.7364
1.73641
1.73642
1.73643
1.73644
1.73645
1.73645
1.73646
1.73647
1.73648
1.73648
1.73649
1.73649
1.73649
1.7365
1.7365
1.7365
1.7365
1.7365
1.7365
1.7365
1.7365
1.7365
1.7365
1.7365
1.73649
1.73649
1.73648
1.73648
1.73648
1.73647
1.73647
1.73646
1.73646
1.73645
1.73645
1.73644
1.73644
1.73644
1.73643
1.73643
1.73643
1.73643
1.73642
1.73642
1.73642
1.73642
1.73642
1.73642
1.73642
1.73643
1.73643
1.73643
1.73643
1.73643
1.73644
1.73644
1.73645
1.73645
1.73645
1.73646
1.73646
1.73647
1.73647
1.73647
1.73648
1.73648
1.73649
1.73649
1.73649
1.7365
1.7365
1.7365
1.73651
1.73651
1.73651
1.73651
1.73652
1.73652
1.73652
1.73652
1.73652
1.73652
1.73652
1.73652
1.73652
1.73652
1.73652
1.73652
1.73651
1.73651
1.7365
1.7365
1.73649
1.73649
1.73648
1.73647
1.73646
1.73644
1.73643
1.73642
1.7364
1.73638
1.73636
1.73634
1.73632
1.7363
1.73627
1.73625
1.73622
1.7362
1.73617
1.73614
1.73612
1.73609
1.73606
1.73604
1.73602
1.736
1.73598
1.73596
1.73595
1.73594
1.73593
1.73593
1.73594
1.73595
1.73597
1.73599
1.73602
1.73606
1.7361
1.73616
1.73622
1.73629
1.73637
1.73646
1.73656
1.73667
1.73678
1.73691
1.73705
1.73719
1.73734
1.7375
1.73767
1.73784
1.73802
1.7382
1.73839
1.73858
1.73878
1.73898
1.73917
1.73937
1.73957
1.73976
1.73995
1.74014
1.74032
1.74049
1.74066
1.74081
1.74096
1.7411
1.74123
1.74135
1.74146
1.74155
1.74164
1.74171
1.74177
1.74182
1.74186
1.74188
1.7419
1.7419
1.74189
1.74187
1.74185
1.74181
1.74176
1.7417
1.74164
1.74157
1.74149
1.7414
1.74131
1.74121
1.7411
1.741
1.74088
1.74077
1.74065
1.74053
1.74041
1.74028
1.74016
1.74003
1.73991
1.73978
1.73966
1.73954
1.73942
1.73931
1.7392
1.73909
1.73899
1.73889
1.73879
1.7387
1.73862
1.73854
1.73847
1.73841
1.73836
1.73831
1.73827
1.73824
1.73821
1.7382
1.73819
1.7382
1.73822
1.73824
1.73828
1.73834
1.7384
1.73848
1.73857
1.73868
1.7388
1.73894
1.7391
1.73927
1.73947
1.73969
1.73993
1.74019
1.74049
1.74082
1.74116
1.74153
1.74196
1.74242
1.74287
1.74341
1.74405
1.74458
1.74515
1.74605
1.7468
1.7472
1.74823
1.74962
1.7498
1.75023
1.75256
1.75319
1.75209
1.75473
1.75635
1.75345
1.75473
1.73566
1.73389
1.73298
1.73477
1.7352
1.73347
1.7337
1.73514
1.73462
1.73387
1.73456
1.73495
1.7345
1.73448
1.73483
1.73482
1.73469
1.73479
1.7349
1.73487
1.73487
1.73493
1.73496
1.73496
1.73499
1.73502
1.73503
1.73505
1.73507
1.73508
1.7351
1.73511
1.73512
1.73513
1.73514
1.73515
1.73515
1.73516
1.73516
1.73516
1.73515
1.73514
1.73514
1.73512
1.73511
1.73509
1.73507
1.73505
1.73502
1.73499
1.73496
1.73493
1.73489
1.73485
1.73481
1.73476
1.73472
1.73467
1.73462
1.73456
1.73451
1.73446
1.7344
1.73435
1.7343
1.73425
1.73419
1.73414
1.7341
1.73405
1.73401
1.73397
1.73394
1.73391
1.73388
1.73386
1.73385
1.73384
1.73384
1.73384
1.73385
1.73386
1.73388
1.73391
1.73394
1.73398
1.73403
1.73408
1.73413
1.73419
1.73425
1.73432
1.73439
1.73447
1.73454
1.73462
1.7347
1.73478
1.73486
1.73494
1.73502
1.7351
1.73518
1.73525
1.73532
1.73539
1.73546
1.73553
1.73559
1.73565
1.7357
1.73576
1.73581
1.73585
1.7359
1.73594
1.73597
1.73601
1.73604
1.73607
1.7361
1.73613
1.73615
1.73618
1.7362
1.73622
1.73624
1.73625
1.73627
1.73629
1.7363
1.73631
1.73633
1.73634
1.73635
1.73636
1.73637
1.73638
1.73639
1.7364
1.73641
1.73642
1.73642
1.73643
1.73644
1.73644
1.73645
1.73645
1.73646
1.73646
1.73646
1.73646
1.73646
1.73647
1.73647
1.73646
1.73646
1.73646
1.73646
1.73646
1.73645
1.73645
1.73645
1.73644
1.73644
1.73643
1.73643
1.73642
1.73642
1.73641
1.73641
1.7364
1.7364
1.7364