# vtk DataFile Version 2.0
LBE two cylinders
ASCII
DATASET STRUCTURED_POINTS
DIMENSIONS 400 100 1
ASPECT_RATIO 1 1 1
ORIGIN 0 0 0
POINT_DATA 40000
SCALARS rho double 1
LOOKUP_TABLE default
1.67438
1.72996
1.74396
1.72297
1.724
1.73298
1.7316
1.72832
1.72981
1.73118
1.73037
1.72999
1.73056
1.73072
1.73052
1.73058
1.73078
1.73082
1.73084
1.73094
1.73105
1.73112
1.73121
1.73132
1.73142
1.73152
1.73163
1.73174
1.73186
1.73197
1.73209
1.7322
1.73232
1.73243
1.73255
1.73266
1.73277
1.73287
1.73297
1.73306
1.73314
1.73322
1.73329
1.73334
1.73339
1.73343
1.73346
1.73347
1.73347
1.73346
1.73344
1.7334
1.73335
1.73329
1.73321
1.73313
1.73303
1.73292
1.7328
1.73267
1.73253
1.73238
1.73223
1.73207
1.7319
1.73173
1.73156
1.73138
1.73121
1.73104
1.73087
1.7307
1.73053
1.73037
1.73022
1.73007
1.72994
1.72981
1.72969
1.72958
1.72949
1.72941
1.72934
1.72928
1.72923
1.7292
1.72919
1.72918
1.7292
1.72922
1.72926
1.72931
1.72938
1.72945
1.72955
1.72965
1.72976
1.72989
1.73003
1.73017
1.73033
1.7305
1.73067
1.73085
1.73105
1.73124
1.73145
1.73166
1.73188
1.7321
1.73233
1.73256
1.7328
1.73304
1.73328
1.73353
1.73378
1.73404
1.73429
1.73455
1.73481
1.73507
1.73534
1.7356
1.73586
1.73613
1.73639
1.73666
1.73692
1.73718
1.73744
1.7377
1.73795
1.7382
1.73845
1.73869
1.73892
1.73915
1.73938
1.73959
1.7398
1.74
1.7402
1.74038
1.74055
1.74072
1.74087
1.74102
1.74115
1.74127
1.74139
1.74149
1.74158
1.74166
1.74172
1.74178
1.74183
1.74186
1.74189
1.7419
1.74191
1.7419
1.74189
1.74187
1.74184
1.74181
1.74177
1.74172
1.74167
1.74161
1.74155
1.74149
1.74142
1.74136
1.74129
1.74122
1.74116
1.74109
1.74102
1.74096
1.7409
1.74084
1.74079
1.74073
1.74068
1.74064
1.7406
1.74056
1.74053
1.7405
1.74048
1.74046
1.74044
1.74043
1.74042
1.74042
1.74042
1.74042
1.74043
1.74044
1.74045
1.74047
1.74049
1.74052
1.74054
1.74057
1.7406
1.74064
1.74068
1.74071
1.74076
1.7408
1.74085
1.7409
1.74095
1.741
1.74106
1.74112
1.74118
1.74124
1.7413
1.74136
1.74142
1.74149
1.74155
1.74161
1.74168
1.74174
1.7418
1.74185
1.74191
1.74196
1.74201
1.74205
1.74209
1.74212
1.74215
1.74217
1.74219
1.74219
1.74219
1.74218
1.74216
1.74213
1.7421
1.74205
1.74199
1.74192
1.74184
1.74175
1.74165
1.74154
1.74142
1.74129
1.74115
1.741
1.74084
1.74068
1.7405
1.74032
1.74014
1.73994
1.73975
1.73955
1.73934
1.73914
1.73893
1.73873
1.73852
1.73832
1.73812
1.73792
1.73773
1.73754
1.73736
1.73719
1.73702
1.73687
1.73672
1.73658
1.73645
1.73633
1.73622
1.73612
1.73603
1.73595
1.73589
1.73583
1.73579
1.73575
1.73573
1.73571
1.73571
1.73571
1.73572
1.73575
1.73578
1.73582
1.73586
1.73592
1.73598
1.73605
1.73613
1.73621
1.7363
1.7364
1.7365
1.73661
1.73673
1.73685
1.73698
1.73711
1.73725
1.73739
1.73754
1.7377
1.73785
1.73802
1.73818
1.73835
1.73852
1.7387
1.73887
1.73905
1.73923
1.7394
1.73958
1.73975
1.73992
1.74009
1.74025
1.74041
1.74056
1.7407
1.74084
1.74097
1.74108
1.74119
1.74128
1.74136
1.74143
1.74149
1.74153
1.74155
1.74156
1.74156
1.74154
1.74151
1.74146
1.7414
1.74133
1.74125
1.74115
1.74104
1.74092
1.7408
1.74067
1.74053
1.74039
1.74025
1.74011
1.73996
1.73983
1.7397
1.73957
1.73946
1.73935
1.73926
1.73919
1.73914
1.7391
1.73909
1.7391
1.73914
1.73921
1.73932
1.73947
1.73964
1.73986
1.74016
1.74049
1.74082
1.7413
1.74189
1.74235
1.74294
1.74401
1.74475
1.74512
1.74687
1.74874
1.7482
1.74983
1.7557
1.75421
1.75095
1.76643
1.77339
1.74488
1.78052
1.69394
1.71725
1.73215
1.72596
1.72647
1.72984
1.73006
1.72909
1.72965
1.73025
1.73014
1.73006
1.7303
1.73043
1.73043
1.7305
1.73062
1.7307
1.73077
1.73086
1.73096
1.73105
1.73115
1.73125
1.73136
1.73147
1.73158
1.7317
1.73182
1.73193
1.73205
1.73217
1.73229
1.7324
1.73252
1.73263
1.73274
1.73284
1.73294
1.73303
1.73312
1.73319
1.73326
1.73332
1.73337
1.7334
1.73343
1.73344
1.73345
1.73343
1.73341
1.73337
1.73333
1.73326
1.73319
1.7331
1.73301
1.7329
1.73278
1.73265
1.73251
1.73237
1.73221
1.73205
1.73189
1.73172
1.73155
1.73138
1.73121
1.73103
1.73086
1.73069
1.73053
1.73037
1.73022
1.73008
1.72994
1.72981
1.7297
1.72959
1.7295
1.72942
1.72935
1.72929
1.72925
1.72922
1.7292
1.7292
1.72921
1.72923
1.72928
1.72933
1.72939
1.72947
1.72956
1.72966
1.72978
1.7299
1.73004
1.73019
1.73034
1.73051
1.73068
1.73086
1.73106
1.73125
1.73146
1.73167
1.73188
1.7321
1.73233
1.73256
1.7328
1.73304
1.73328
1.73353
1.73378
1.73403
1.73429
1.73454
1.7348
1.73506
1.73533
1.73559
1.73585
1.73611
1.73638
1.73664
1.7369
1.73716
1.73742
1.73767
1.73793
1.73818
1.73842
1.73866
1.7389
1.73912
1.73935
1.73956
1.73977
1.73997
1.74016
1.74034
1.74052
1.74068
1.74084
1.74098
1.74111
1.74123
1.74135
1.74144
1.74153
1.74161
1.74168
1.74173
1.74178
1.74181
1.74184
1.74185
1.74186
1.74186
1.74184
1.74182
1.7418
1.74176
1.74172
1.74167
1.74162
1.74157
1.74151
1.74144
1.74138
1.74131
1.74125
1.74118
1.74111
1.74104
1.74098
1.74092
1.74086
1.7408
1.74074
1.74069
1.74064
1.7406
1.74056
1.74052
1.74049
1.74046
1.74044
1.74041
1.7404
1.74039
1.74038
1.74038
1.74038
1.74038
1.74039
1.7404
1.74041
1.74043
1.74045
1.74047
1.7405
1.74053
1.74056
1.7406
1.74063
1.74067
1.74072
1.74076
1.74081
1.74086
1.74091
1.74096
1.74102
1.74108
1.74114
1.7412
1.74126
1.74132
1.74138
1.74145
1.74151
1.74157
1.74164
1.7417
1.74176
1.74182
1.74187
1.74192
1.74197
1.74201
1.74205
1.74209
1.74211
1.74213
1.74215
1.74215
1.74215
1.74214
1.74212
1.7421
1.74206
1.74201
1.74195
1.74188
1.74181
1.74172
1.74162
1.74151
1.74139
1.74126
1.74112
1.74097
1.74081
1.74065
1.74048
1.7403
1.74011
1.73992
1.73972
1.73952
1.73932
1.73912
1.73891
1.73871
1.73851
1.7383
1.73811
1.73791
1.73772
1.73754
1.73736
1.73719
1.73702
1.73687
1.73672
1.73658
1.73645
1.73633
1.73623
1.73613
1.73604
1.73596
1.7359
1.73584
1.7358
1.73576
1.73574
1.73573
1.73572
1.73573
1.73574
1.73576
1.73579
1.73583
1.73588
1.73594
1.736
1.73607
1.73614
1.73623
1.73632
1.73641
1.73652
1.73663
1.73674
1.73686
1.73699
1.73712
1.73726
1.7374
1.73755
1.73771
1.73786
1.73802
1.73819
1.73836
1.73853
1.7387
1.73888
1.73905
1.73923
1.7394
1.73958
1.73975
1.73992
1.74009
1.74025
1.74041
1.74056
1.7407
1.74083
1.74096
1.74107
1.74118
1.74127
1.74135
1.74142
1.74147
1.74151
1.74154
1.74155
1.74154
1.74152
1.74149
1.74144
1.74138
1.74131
1.74122
1.74113
1.74102
1.7409
1.74078
1.74065
1.74051
1.74037
1.74023
1.74009
1.73995
1.73982
1.73969
1.73956
1.73945
1.73935
1.73926
1.73919
1.73914
1.7391
1.7391
1.73911
1.73915
1.73923
1.73934
1.73948
1.73967
1.73991
1.74018
1.74051
1.74091
1.74137
1.74185
1.74244
1.74317
1.7439
1.74466
1.74572
1.74695
1.74786
1.74912
1.75137
1.75319
1.75361
1.75722
1.76338
1.76432
1.76101
1.78544
1.74592
1.71822
1.70851
1.73151
1.73423
1.72502
1.7268
1.73132
1.73014
1.72864
1.7298
1.73052
1.73004
1.72998
1.7304
1.7305
1.73044
1.73056
1.73073
1.7308
1.73087
1.73099
1.7311
1.7312
1.73131
1.73143
1.73154
1.73166
1.73178
1.7319
1.73202
1.73214
1.73226
1.73237
1.73249
1.7326
1.73271
1.73282
1.73292
1.73301
1.73309
1.73317
1.73324
1.7333
1.73335
1.73338
1.73341
1.73342
1.73343
1.73342
1.7334
1.73336
1.73331
1.73325
1.73318
1.73309
1.733
1.73289
1.73277
1.73264
1.7325
1.73236
1.73221
1.73205
1.73188
1.73172
1.73155
1.73137
1.7312
1.73103
1.73086
1.7307
1.73054
1.73038
1.73023
1.73008
1.72995
1.72982
1.72971
1.7296
1.72951
1.72943
1.72936
1.72931
1.72926
1.72923
1.72922
1.72922
1.72923
1.72925
1.7293
1.72935
1.72941
1.72949
1.72958
1.72968
1.7298
1.72992
1.73006
1.7302
1.73036
1.73052
1.7307
1.73088
1.73107
1.73126
1.73147
1.73167
1.73189
1.73211
1.73234
1.73256
1.7328
1.73304
1.73328
1.73352
1.73377
1.73402
1.73427
1.73453
1.73479
1.73504
1.73531
1.73557
1.73583
1.73609
1.73635
1.73661
1.73687
1.73713
1.73738
1.73764
1.73789
1.73813
1.73838
1.73861
1.73885
1.73907
1.7393
1.73951
1.73972
1.73991
1.7401
1.74028
1.74046
1.74062
1.74077
1.74091
1.74104
1.74116
1.74127
1.74137
1.74146
1.74154
1.7416
1.74166
1.7417
1.74174
1.74176
1.74177
1.74178
1.74177
1.74176
1.74174
1.74171
1.74168
1.74164
1.74159
1.74154
1.74148
1.74142
1.74136
1.7413
1.74123
1.74116
1.74109
1.74103
1.74096
1.7409
1.74083
1.74077
1.74071
1.74066
1.74061
1.74056
1.74051
1.74047
1.74044
1.7404
1.74037
1.74035
1.74033
1.74032
1.7403
1.7403
1.74029
1.74029
1.7403
1.7403
1.74031
1.74033
1.74035
1.74037
1.74039
1.74042
1.74045
1.74048
1.74051
1.74055
1.74059
1.74064
1.74068
1.74073
1.74078
1.74083
1.74089
1.74094
1.741
1.74106
1.74112
1.74118
1.74125
1.74131
1.74137
1.74144
1.7415
1.74157
1.74163
1.74169
1.74174
1.7418
1.74185
1.7419
1.74194
1.74198
1.74202
1.74205
1.74207
1.74208
1.74209
1.74209
1.74208
1.74206
1.74203
1.74199
1.74195
1.74189
1.74182
1.74174
1.74166
1.74156
1.74145
1.74133
1.7412
1.74106
1.74091
1.74076
1.74059
1.74042
1.74024
1.74006
1.73987
1.73968
1.73948
1.73928
1.73908
1.73888
1.73867
1.73847
1.73827
1.73808
1.73788
1.7377
1.73751
1.73734
1.73717
1.73701
1.73685
1.73671
1.73657
1.73645
1.73633
1.73622
1.73613
1.73604
1.73597
1.7359
1.73585
1.73581
1.73577
1.73575
1.73574
1.73574
1.73574
1.73576
1.73578
1.73581
1.73585
1.7359
1.73596
1.73602
1.73609
1.73617
1.73625
1.73634
1.73644
1.73654
1.73665
1.73676
1.73688
1.73701
1.73714
1.73728
1.73742
1.73757
1.73772
1.73788
1.73804
1.73821
1.73837
1.73854
1.73872
1.73889
1.73907
1.73924
1.73942
1.73959
1.73976
1.73993
1.7401
1.74026
1.74041
1.74056
1.7407
1.74083
1.74096
1.74107
1.74118
1.74127
1.74135
1.74141
1.74146
1.7415
1.74153
1.74154
1.74153
1.74151
1.74148
1.74143
1.74137
1.74129
1.7412
1.74111
1.741
1.74088
1.74076
1.74062
1.74049
1.74035
1.74021
1.74007
1.73993
1.73979
1.73966
1.73954
1.73943
1.73933
1.73924
1.73917
1.73912
1.73908
1.73908
1.73909
1.73914
1.73921
1.73932
1.73946
1.73966
1.7399
1.74015
1.74048
1.74092
1.74133
1.74178
1.7425
1.7432
1.74367
1.74467
1.74609
1.74649
1.74725
1.75037
1.7514
1.74986
1.75559
1.76218
1.7535
1.75665
1.78486
1.77466
1.72867
1.72532
1.72568
1.72831
1.72658
1.72799
1.72971
1.72906
1.72883
1.72967
1.72994
1.72973
1.72988
1.73018
1.73024
1.73026
1.73041
1.73054
1.73062
1.73071
1.73083
1.73094
1.73104
1.73116
1.73128
1.73139
1.73151
1.73163
1.73175
1.73187
1.73199
1.73212
1.73224
1.73236
1.73247
1.73259
1.7327
1.7328
1.7329
1.73299
1.73308
1.73316
1.73323
1.73328
1.73333
1.73337
1.7334
1.73341
1.73342
1.73341
1.73338
1.73335
1.7333
1.73324
1.73317
1.73308
1.73299
1.73288
1.73276
1.73263
1.7325
1.73235
1.7322
1.73204
1.73188
1.73172
1.73155
1.73138
1.73121
1.73104
1.73087
1.7307
1.73054
1.73039
1.73024
1.7301
1.72996
1.72984
1.72973
1.72962
1.72953
1.72945
1.72938
1.72933
1.72929
1.72926
1.72924
1.72924
1.72925
1.72928
1.72932
1.72937
1.72944
1.72952
1.72961
1.72971
1.72982
1.72995
1.73008
1.73023
1.73038
1.73055
1.73072
1.7309
1.73108
1.73128
1.73148
1.73169
1.7319
1.73212
1.73234
1.73257
1.7328
1.73303
1.73327
1.73351
1.73376
1.73401
1.73426
1.73451
1.73477
1.73502
1.73528
1.73554
1.73579
1.73605
1.73631
1.73657
1.73683
1.73708
1.73733
1.73758
1.73783
1.73808
1.73832
1.73855
1.73878
1.73901
1.73922
1.73943
1.73964
1.73983
1.74002
1.7402
1.74037
1.74053
1.74068
1.74082
1.74095
1.74107
1.74117
1.74127
1.74136
1.74143
1.7415
1.74155
1.74159
1.74163
1.74165
1.74166
1.74166
1.74166
1.74165
1.74162
1.74159
1.74156
1.74152
1.74147
1.74142
1.74136
1.7413
1.74124
1.74117
1.74111
1.74104
1.74097
1.7409
1.74084
1.74077
1.74071
1.74065
1.74059
1.74053
1.74048
1.74043
1.74039
1.74035
1.74031
1.74028
1.74025
1.74023
1.74021
1.74019
1.74018
1.74017
1.74017
1.74017
1.74017
1.74018
1.74019
1.7402
1.74022
1.74024
1.74027
1.74029
1.74032
1.74036
1.74039
1.74043
1.74047
1.74052
1.74056
1.74061
1.74066
1.74072
1.74077
1.74083
1.74089
1.74095
1.74101
1.74107
1.74113
1.7412
1.74126
1.74133
1.74139
1.74146
1.74152
1.74158
1.74164
1.7417
1.74175
1.7418
1.74184
1.74188
1.74192
1.74195
1.74197
1.74198
1.74199
1.74199
1.74198
1.74196
1.74194
1.7419
1.74185
1.7418
1.74173
1.74165
1.74157
1.74147
1.74136
1.74125
1.74112
1.74098
1.74084
1.74068
1.74052
1.74035
1.74017
1.73999
1.7398
1.73961
1.73942
1.73922
1.73902
1.73882
1.73862
1.73842
1.73822
1.73803
1.73784
1.73765
1.73747
1.7373
1.73713
1.73697
1.73682
1.73668
1.73655
1.73643
1.73631
1.73621
1.73612
1.73603
1.73596
1.7359
1.73585
1.73581
1.73578
1.73576
1.73575
1.73575
1.73575
1.73577
1.7358
1.73583
1.73587
1.73592
1.73598
1.73604
1.73611
1.73619
1.73628
1.73637
1.73646
1.73657
1.73668
1.73679
1.73691
1.73704
1.73717
1.73731
1.73745
1.7376
1.73775
1.73791
1.73807
1.73823
1.7384
1.73857
1.73874
1.73891
1.73909
1.73926
1.73944
1.73961
1.73978
1.73995
1.74011
1.74027
1.74043
1.74057
1.74071
1.74084
1.74097
1.74108
1.74118
1.74127
1.74135
1.74141
1.74146
1.7415
1.74152
1.74153
1.74152
1.7415
1.74147
1.74142
1.74135
1.74128
1.74119
1.74109
1.74098
1.74086
1.74073
1.7406
1.74046
1.74032
1.74018
1.74003
1.73989
1.73976
1.73963
1.7395
1.73939
1.73929
1.7392
1.73913
1.73908
1.73904
1.73903
1.73905
1.73909
1.73916
1.73927
1.73942
1.7396
1.73983
1.74011
1.74043
1.7408
1.74126
1.74178
1.74233
1.74299
1.74378
1.74457
1.74546
1.74662
1.74774
1.74891
1.7506
1.75221
1.75359
1.75626
1.75909
1.76015
1.76607
1.7645
1.71731
1.72958
1.73516
1.72365
1.72397
1.73169
1.73006
1.72708
1.72908
1.73051
1.7295
1.72929
1.73008
1.73023
1.73001
1.73018
1.73044
1.73048
1.73053
1.73068
1.73081
1.7309
1.73101
1.73113
1.73125
1.73136
1.73149
1.73161
1.73173
1.73186
1.73198
1.7321
1.73223
1.73234
1.73246
1.73258
1.73269
1.73279
1.73289
1.73298
1.73307
1.73315
1.73322
1.73328
1.73333
1.73336
1.73339
1.73341
1.73341
1.7334
1.73338
1.73334
1.7333
1.73324
1.73317
1.73308
1.73299
1.73288
1.73276
1.73264
1.7325
1.73236
1.73221
1.73205
1.73189
1.73172
1.73156
1.73139
1.73122
1.73105
1.73088
1.73072
1.73056
1.7304
1.73026
1.73012
1.72998
1.72986
1.72975
1.72964
1.72955
1.72947
1.72941
1.72935
1.72931
1.72928
1.72927
1.72927
1.72928
1.72931
1.72935
1.7294
1.72947
1.72955
1.72964
1.72974
1.72985
1.72998
1.73011
1.73025
1.73041
1.73057
1.73074
1.73092
1.7311
1.73129
1.73149
1.7317
1.73191
1.73212
1.73234
1.73257
1.7328
1.73303
1.73326
1.7335
1.73374
1.73399
1.73424
1.73448
1.73474
1.73499
1.73524
1.7355
1.73575
1.73601
1.73626
1.73651
1.73677
1.73702
1.73727
1.73752
1.73776
1.738
1.73824
1.73847
1.7387
1.73892
1.73913
1.73934
1.73954
1.73973
1.73992
1.74009
1.74026
1.74041
1.74056
1.7407
1.74082
1.74094
1.74105
1.74114
1.74122
1.7413
1.74136
1.74141
1.74145
1.74148
1.7415
1.74151
1.74152
1.74151
1.74149
1.74147
1.74144
1.7414
1.74136
1.74131
1.74126
1.7412
1.74114
1.74108
1.74101
1.74095
1.74088
1.74081
1.74074
1.74067
1.74061
1.74055
1.74049
1.74043
1.74037
1.74032
1.74027
1.74023
1.74019
1.74015
1.74012
1.74009
1.74006
1.74004
1.74003
1.74002
1.74001
1.74
1.74
1.74001
1.74002
1.74003
1.74004
1.74006
1.74008
1.74011
1.74013
1.74016
1.7402
1.74023
1.74027
1.74031
1.74036
1.74041
1.74046
1.74051
1.74056
1.74062
1.74068
1.74074
1.7408
1.74086
1.74092
1.74099
1.74106
1.74112
1.74119
1.74125
1.74132
1.74138
1.74144
1.7415
1.74156
1.74161
1.74166
1.74171
1.74175
1.74178
1.74181
1.74184
1.74185
1.74186
1.74186
1.74186
1.74184
1.74181
1.74178
1.74173
1.74168
1.74161
1.74154
1.74145
1.74136
1.74125
1.74114
1.74101
1.74088
1.74073
1.74058
1.74042
1.74025
1.74008
1.7399
1.73971
1.73953
1.73933
1.73914
1.73894
1.73874
1.73855
1.73835
1.73816
1.73797
1.73778
1.7376
1.73742
1.73725
1.73709
1.73693
1.73678
1.73665
1.73652
1.7364
1.73629
1.73619
1.7361
1.73602
1.73595
1.73589
1.73584
1.73581
1.73578
1.73576
1.73575
1.73576
1.73577
1.73579
1.73581
1.73585
1.73589
1.73595
1.736
1.73607
1.73614
1.73622
1.73631
1.7364
1.7365
1.7366
1.73671
1.73683
1.73695
1.73708
1.73721
1.73734
1.73749
1.73763
1.73778
1.73794
1.7381
1.73826
1.73843
1.7386
1.73877
1.73894
1.73912
1.73929
1.73946
1.73963
1.7398
1.73997
1.74013
1.74029
1.74045
1.74059
1.74073
1.74086
1.74098
1.74109
1.74119
1.74128
1.74136
1.74142
1.74147
1.7415
1.74152
1.74153
1.74152
1.7415
1.74146
1.74141
1.74134
1.74126
1.74117
1.74107
1.74095
1.74083
1.7407
1.74057
1.74043
1.74028
1.74014
1.73999
1.73985
1.73971
1.73958
1.73945
1.73934
1.73924
1.73915
1.73907
1.73902
1.73898
1.73897
1.73898
1.73902
1.73909
1.73919
1.73934
1.73951
1.73972
1.74001
1.74033
1.74066
1.74113
1.74168
1.74213
1.74274
1.74372
1.74437
1.74486
1.74649
1.74796
1.74763
1.7494
1.75377
1.75262
1.75048
1.76042
1.76432
1.75225
1.758
1.7298
1.72746
1.72582
1.72808
1.73059
1.72822
1.72739
1.72975
1.73004
1.72894
1.72933
1.73011
1.72996
1.7298
1.73012
1.73033
1.73031
1.73039
1.73058
1.73068
1.73076
1.73088
1.73101
1.73112
1.73123
1.73136
1.73148
1.7316
1.73173
1.73185
1.73198
1.7321
1.73222
1.73234
1.73246
1.73258
1.73269
1.73279
1.73289
1.73298
1.73307
1.73315
1.73322
1.73328
1.73333
1.73336
1.73339
1.73341
1.73341
1.7334
1.73338
1.73335
1.7333
1.73324
1.73317
1.73309
1.73299
1.73289
1.73277
1.73264
1.73251
1.73237
1.73222
1.73206
1.7319
1.73174
1.73157
1.7314
1.73124
1.73107
1.7309
1.73074
1.73058
1.73043
1.73028
1.73014
1.73001
1.72989
1.72978
1.72967
1.72958
1.72951
1.72944
1.72939
1.72935
1.72932
1.72931
1.72931
1.72932
1.72935
1.72939
1.72944
1.72951
1.72958
1.72967
1.72977
1.72989
1.73001
1.73014
1.73029
1.73044
1.7306
1.73077
1.73094
1.73112
1.73131
1.73151
1.73171
1.73192
1.73213
1.73235
1.73257
1.73279
1.73302
1.73325
1.73349
1.73373
1.73397
1.73421
1.73445
1.7347
1.73495
1.7352
1.73545
1.7357
1.73595
1.7362
1.73645
1.7367
1.73695
1.73719
1.73743
1.73767
1.73791
1.73814
1.73837
1.73859
1.73881
1.73902
1.73922
1.73942
1.73961
1.73979
1.73996
1.74012
1.74028
1.74042
1.74055
1.74068
1.74079
1.74089
1.74098
1.74106
1.74113
1.74119
1.74124
1.74128
1.74131
1.74133
1.74134
1.74134
1.74133
1.74131
1.74129
1.74126
1.74122
1.74117
1.74112
1.74107
1.74101
1.74095
1.74088
1.74082
1.74075
1.74068
1.74061
1.74055
1.74048
1.74041
1.74035
1.74029
1.74023
1.74017
1.74012
1.74007
1.74003
1.73999
1.73995
1.73992
1.73989
1.73986
1.73984
1.73983
1.73981
1.73981
1.7398
1.7398
1.73981
1.73982
1.73983
1.73984
1.73986
1.73988
1.73991
1.73994
1.73997
1.74
1.74004
1.74008
1.74012
1.74017
1.74021
1.74027
1.74032
1.74037
1.74043
1.74049
1.74055
1.74061
1.74068
1.74074
1.74081
1.74088
1.74094
1.74101
1.74108
1.74114
1.74121
1.74127
1.74133
1.74139
1.74145
1.7415
1.74154
1.74159
1.74162
1.74165
1.74168
1.7417
1.74171
1.74171
1.7417
1.74169
1.74166
1.74163
1.74159
1.74154
1.74147
1.7414
1.74132
1.74122
1.74112
1.74101
1.74088
1.74075
1.74061
1.74046
1.7403
1.74014
1.73997
1.73979
1.73961
1.73942
1.73923
1.73904
1.73885
1.73865
1.73846
1.73827
1.73808
1.73789
1.7377
1.73753
1.73735
1.73719
1.73703
1.73688
1.73673
1.7366
1.73647
1.73636
1.73625
1.73615
1.73607
1.73599
1.73593
1.73588
1.73583
1.7358
1.73578
1.73576
1.73576
1.73576
1.73578
1.7358
1.73583
1.73587
1.73592
1.73597
1.73603
1.7361
1.73618
1.73626
1.73634
1.73644
1.73654
1.73664
1.73675
1.73687
1.73699
1.73712
1.73725
1.73739
1.73753
1.73768
1.73783
1.73798
1.73814
1.7383
1.73847
1.73864
1.73881
1.73898
1.73915
1.73932
1.7395
1.73967
1.73984
1.74
1.74017
1.74032
1.74047
1.74062
1.74076
1.74089
1.74101
1.74112
1.74121
1.7413
1.74137
1.74143
1.74148
1.74151
1.74153
1.74153
1.74152
1.7415
1.74145
1.7414
1.74133
1.74125
1.74115
1.74105
1.74093
1.74081
1.74067
1.74053
1.74039
1.74024
1.7401
1.73995
1.7398
1.73966
1.73953
1.7394
1.73928
1.73917
1.73908
1.73901
1.73895
1.73891
1.73889
1.7389
1.73893
1.739
1.73909
1.73922
1.7394
1.73961
1.73986
1.74017
1.74054
1.74092
1.7414
1.74201
1.74256
1.74318
1.74412
1.74498
1.74559
1.74688
1.74849
1.74891
1.74984
1.75297
1.75411
1.75359
1.75663
1.7576
1.75821
1.73286
1.72738
1.72528
1.73079
1.73021
1.72671
1.72882
1.73061
1.72909
1.72883
1.73001
1.73007
1.72964
1.72993
1.73028
1.73024
1.73026
1.73046
1.7306
1.73065
1.73076
1.73091
1.73101
1.73112
1.73124
1.73137
1.73149
1.73161
1.73174
1.73186
1.73199
1.73211
1.73223
1.73235
1.73247
1.73259
1.7327
1.7328
1.7329
1.73299
1.73308
1.73316
1.73323
1.73328
1.73333
1.73337
1.7334
1.73341
1.73342
1.73341
1.73339
1.73336
1.73331
1.73325
1.73318
1.7331
1.733
1.7329
1.73278
1.73266
1.73253
1.73239
1.73224
1.73208
1.73192
1.73176
1.7316
1.73143
1.73126
1.7311
1.73093
1.73077
1.73061
1.73046
1.73031
1.73017
1.73004
1.72992
1.72981
1.72971
1.72962
1.72954
1.72948
1.72943
1.72939
1.72936
1.72935
1.72935
1.72936
1.72939
1.72943
1.72948
1.72955
1.72963
1.72971
1.72981
1.72993
1.73005
1.73018
1.73032
1.73047
1.73063
1.73079
1.73097
1.73115
1.73133
1.73153
1.73172
1.73193
1.73213
1.73235
1.73256
1.73278
1.73301
1.73324
1.73347
1.7337
1.73394
1.73417
1.73441
1.73466
1.7349
1.73515
1.73539
1.73564
1.73588
1.73613
1.73637
1.73662
1.73686
1.7371
1.73734
1.73757
1.7378
1.73803
1.73825
1.73847
1.73868
1.73889
1.73909
1.73928
1.73946
1.73964
1.73981
1.73996
1.74011
1.74025
1.74038
1.7405
1.74061
1.74071
1.7408
1.74088
1.74094
1.741
1.74105
1.74108
1.74111
1.74112
1.74113
1.74113
1.74112
1.7411
1.74107
1.74104
1.741
1.74095
1.7409
1.74085
1.74079
1.74072
1.74066
1.74059
1.74052
1.74045
1.74038
1.74031
1.74025
1.74018
1.74012
1.74005
1.73999
1.73994
1.73989
1.73984
1.73979
1.73975
1.73971
1.73968
1.73965
1.73963
1.73961
1.73959
1.73958
1.73957
1.73957
1.73957
1.73957
1.73958
1.73959
1.73961
1.73963
1.73965
1.73967
1.7397
1.73974
1.73977
1.73981
1.73985
1.73989
1.73994
1.73999
1.74004
1.74009
1.74015
1.74021
1.74027
1.74033
1.7404
1.74046
1.74053
1.7406
1.74067
1.74073
1.7408
1.74087
1.74094
1.74101
1.74107
1.74113
1.74119
1.74125
1.7413
1.74135
1.7414
1.74143
1.74147
1.74149
1.74151
1.74152
1.74153
1.74152
1.74151
1.74149
1.74146
1.74142
1.74137
1.74131
1.74124
1.74115
1.74106
1.74096
1.74085
1.74073
1.7406
1.74046
1.74032
1.74016
1.74
1.73983
1.73966
1.73948
1.7393
1.73911
1.73893
1.73874
1.73855
1.73836
1.73817
1.73798
1.7378
1.73762
1.73744
1.73728
1.73711
1.73696
1.73681
1.73667
1.73654
1.73642
1.73631
1.73621
1.73612
1.73604
1.73597
1.73591
1.73586
1.73582
1.73579
1.73577
1.73576
1.73576
1.73577
1.73579
1.73582
1.73585
1.73589
1.73594
1.736
1.73607
1.73614
1.73621
1.7363
1.73638
1.73648
1.73658
1.73669
1.7368
1.73692
1.73704
1.73716
1.7373
1.73743
1.73758
1.73772
1.73787
1.73803
1.73819
1.73835
1.73851
1.73868
1.73885
1.73902
1.73919
1.73937
1.73954
1.73971
1.73988
1.74004
1.7402
1.74036
1.74051
1.74065
1.74079
1.74091
1.74103
1.74114
1.74124
1.74132
1.74139
1.74145
1.7415
1.74153
1.74154
1.74154
1.74153
1.7415
1.74145
1.74139
1.74132
1.74123
1.74114
1.74103
1.74091
1.74078
1.74064
1.7405
1.74035
1.7402
1.74005
1.7399
1.73975
1.73961
1.73947
1.73934
1.73921
1.7391
1.73901
1.73893
1.73887
1.73882
1.7388
1.7388
1.73883
1.73889
1.73898
1.7391
1.73926
1.73947
1.73969
1.73998
1.74036
1.74073
1.74112
1.74174
1.74236
1.74278
1.7436
1.7448
1.74521
1.7457
1.74794
1.74916
1.74805
1.75051
1.75484
1.75196
1.75122
1.75848
1.75615
1.72712
1.72934
1.73077
1.72834
1.72728
1.72995
1.73038
1.72847
1.72897
1.73031
1.72988
1.72941
1.72997
1.7303
1.73009
1.73015
1.73043
1.73052
1.73054
1.73068
1.73083
1.73092
1.73102
1.73115
1.73128
1.73139
1.73151
1.73164
1.73176
1.73188
1.73201
1.73213
1.73225
1.73237
1.73249
1.7326
1.73271
1.73282
1.73292
1.73301
1.7331
1.73317
1.73324
1.7333
1.73335
1.73339
1.73341
1.73343
1.73343
1.73343
1.7334
1.73337
1.73333
1.73327
1.7332
1.73312
1.73302
1.73292
1.73281
1.73268
1.73255
1.73241
1.73226
1.73211
1.73195
1.73179
1.73163
1.73146
1.7313
1.73113
1.73097
1.73081
1.73065
1.7305
1.73035
1.73022
1.73009
1.72997
1.72986
1.72976
1.72967
1.72959
1.72953
1.72947
1.72944
1.72941
1.7294
1.7294
1.72941
1.72944
1.72948
1.72953
1.7296
1.72967
1.72976
1.72986
1.72997
1.73009
1.73022
1.73036
1.73051
1.73066
1.73082
1.73099
1.73117
1.73135
1.73154
1.73174
1.73194
1.73214
1.73235
1.73256
1.73278
1.733
1.73322
1.73344
1.73367
1.7339
1.73414
1.73437
1.73461
1.73485
1.73508
1.73532
1.73556
1.7358
1.73605
1.73628
1.73652
1.73676
1.73699
1.73723
1.73746
1.73768
1.7379
1.73812
1.73833
1.73854
1.73874
1.73893
1.73912
1.7393
1.73947
1.73963
1.73979
1.73993
1.74007
1.74019
1.74031
1.74041
1.74051
1.74059
1.74067
1.74073
1.74078
1.74082
1.74086
1.74088
1.74089
1.7409
1.74089
1.74088
1.74086
1.74083
1.74079
1.74075
1.7407
1.74065
1.74059
1.74053
1.74047
1.7404
1.74033
1.74026
1.74019
1.74012
1.74005
1.73998
1.73992
1.73985
1.73979
1.73973
1.73967
1.73962
1.73957
1.73952
1.73948
1.73944
1.73941
1.73938
1.73936
1.73934
1.73932
1.73931
1.7393
1.7393
1.7393
1.7393
1.73931
1.73932
1.73934
1.73936
1.73938
1.73941
1.73944
1.73947
1.73951
1.73955
1.73959
1.73963
1.73968
1.73973
1.73979
1.73984
1.7399
1.73996
1.74002
1.74009
1.74015
1.74022
1.74029
1.74036
1.74043
1.7405
1.74057
1.74064
1.74071
1.74078
1.74084
1.74091
1.74097
1.74103
1.74108
1.74113
1.74118
1.74122
1.74125
1.74128
1.7413
1.74132
1.74132
1.74132
1.74131
1.74129
1.74126
1.74122
1.74118
1.74112
1.74105
1.74097
1.74089
1.74079
1.74068
1.74056
1.74044
1.7403
1.74016
1.74001
1.73985
1.73969
1.73952
1.73934
1.73916
1.73898
1.7388
1.73861
1.73843
1.73824
1.73806
1.73787
1.73769
1.73752
1.73735
1.73719
1.73703
1.73688
1.73674
1.7366
1.73648
1.73636
1.73625
1.73616
1.73607
1.736
1.73593
1.73588
1.73583
1.7358
1.73578
1.73576
1.73576
1.73576
1.73578
1.7358
1.73583
1.73587
1.73592
1.73597
1.73603
1.7361
1.73617
1.73625
1.73634
1.73643
1.73652
1.73663
1.73673
1.73685
1.73697
1.73709
1.73722
1.73735
1.73749
1.73763
1.73778
1.73793
1.73808
1.73824
1.7384
1.73856
1.73873
1.7389
1.73907
1.73924
1.73941
1.73958
1.73975
1.73992
1.74008
1.74024
1.7404
1.74055
1.74069
1.74082
1.74095
1.74106
1.74117
1.74126
1.74135
1.74142
1.74147
1.74151
1.74154
1.74155
1.74155
1.74153
1.7415
1.74145
1.74139
1.74131
1.74122
1.74112
1.74101
1.74088
1.74075
1.74061
1.74046
1.74031
1.74016
1.74
1.73985
1.73969
1.73954
1.7394
1.73927
1.73914
1.73903
1.73893
1.73884
1.73878
1.73873
1.7387
1.7387
1.73872
1.73877
1.73885
1.73896
1.7391
1.73929
1.73954
1.73979
1.74009
1.74051
1.74093
1.74132
1.74196
1.74267
1.74311
1.74381
1.7451
1.74577
1.74595
1.74771
1.74954
1.74897
1.7498
1.7527
1.75252
1.75203
1.75243
1.72785
1.72969
1.73021
1.72813
1.72896
1.73038
1.72912
1.72884
1.7301
1.73001
1.72943
1.72987
1.73028
1.73008
1.73009
1.73038
1.73048
1.73048
1.73061
1.73077
1.73085
1.73094
1.73107
1.7312
1.7313
1.73142
1.73155
1.73167
1.73179
1.73192
1.73204
1.73216
1.73228
1.7324
1.73252
1.73263
1.73274
1.73285
1.73294
1.73304
1.73312
1.7332
1.73326
1.73332
1.73337
1.73341
1.73344
1.73345
1.73346
1.73345
1.73343
1.73339
1.73335
1.73329
1.73322
1.73314
1.73305
1.73295
1.73283
1.73271
1.73258
1.73244
1.7323
1.73215
1.73199
1.73183
1.73167
1.7315
1.73134
1.73117
1.73101
1.73085
1.7307
1.73055
1.7304
1.73027
1.73014
1.73002
1.72991
1.72981
1.72972
1.72965
1.72958
1.72953
1.72949
1.72947
1.72945
1.72945
1.72947
1.72949
1.72953
1.72958
1.72965
1.72972
1.72981
1.72991
1.73002
1.73013
1.73026
1.7304
1.73054
1.7307
1.73086
1.73102
1.7312
1.73137
1.73156
1.73175
1.73194
1.73214
1.73235
1.73255
1.73276
1.73298
1.73319
1.73341
1.73364
1.73386
1.73409
1.73432
1.73455
1.73478
1.73502
1.73525
1.73548
1.73572
1.73595
1.73619
1.73642
1.73665
1.73688
1.7371
1.73733
1.73755
1.73776
1.73797
1.73818
1.73838
1.73858
1.73876
1.73895
1.73912
1.73929
1.73944
1.73959
1.73973
1.73986
1.73998
1.74009
1.74019
1.74028
1.74036
1.74043
1.74049
1.74054
1.74058
1.74061
1.74063
1.74064
1.74064
1.74063
1.74061
1.74059
1.74056
1.74052
1.74048
1.74043
1.74037
1.74031
1.74025
1.74018
1.74012
1.74005
1.73997
1.7399
1.73983
1.73976
1.73969
1.73962
1.73956
1.7395
1.73943
1.73938
1.73932
1.73927
1.73923
1.73919
1.73915
1.73911
1.73908
1.73906
1.73904
1.73902
1.73901
1.739
1.739
1.739
1.73901
1.73902
1.73903
1.73904
1.73906
1.73909
1.73911
1.73915
1.73918
1.73922
1.73926
1.7393
1.73935
1.7394
1.73945
1.7395
1.73956
1.73962
1.73968
1.73974
1.73981
1.73988
1.73995
1.74002
1.74009
1.74016
1.74023
1.7403
1.74038
1.74045
1.74052
1.74059
1.74065
1.74072
1.74078
1.74083
1.74089
1.74094
1.74098
1.74102
1.74105
1.74107
1.74109
1.7411
1.7411
1.74109
1.74107
1.74105
1.74101
1.74097
1.74091
1.74085
1.74077
1.74069
1.74059
1.74049
1.74038
1.74025
1.74012
1.73998
1.73984
1.73968
1.73952
1.73936
1.73919
1.73901
1.73884
1.73866
1.73848
1.7383
1.73811
1.73793
1.73776
1.73758
1.73741
1.73725
1.73709
1.73694
1.73679
1.73666
1.73653
1.73641
1.7363
1.7362
1.73611
1.73603
1.73596
1.7359
1.73585
1.73581
1.73578
1.73576
1.73575
1.73575
1.73576
1.73578
1.73581
1.73585
1.73589
1.73594
1.736
1.73606
1.73613
1.73621
1.73629
1.73638
1.73647
1.73657
1.73668
1.73679
1.7369
1.73702
1.73714
1.73727
1.73741
1.73754
1.73769
1.73783
1.73798
1.73814
1.73829
1.73845
1.73862
1.73878
1.73895
1.73912
1.73929
1.73946
1.73963
1.7398
1.73996
1.74013
1.74028
1.74044
1.74059
1.74073
1.74086
1.74098
1.7411
1.7412
1.74129
1.74137
1.74144
1.74149
1.74153
1.74156
1.74157
1.74156
1.74154
1.7415
1.74145
1.74138
1.7413
1.74121
1.7411
1.74098
1.74086
1.74072
1.74057
1.74042
1.74027
1.74011
1.73995
1.73979
1.73963
1.73948
1.73933
1.73919
1.73907
1.73895
1.73884
1.73875
1.73868
1.73863
1.7386
1.73859
1.7386
1.73864
1.73871
1.73882
1.73895
1.73911
1.73934
1.7396
1.73985
1.74022
1.74068
1.74105
1.74148
1.74225
1.74289
1.74319
1.74415
1.74548
1.74563
1.74603
1.74834
1.74898
1.74788
1.75052
1.75215
1.74926
1.75055
1.73087
1.7291
1.72821
1.73001
1.73045
1.72874
1.72899
1.73045
1.72996
1.72924
1.72996
1.73039
1.72999
1.73001
1.73041
1.73047
1.7304
1.73056
1.73074
1.73079
1.73087
1.73102
1.73114
1.73123
1.73135
1.73148
1.7316
1.73171
1.73184
1.73196
1.73208
1.7322
1.73233
1.73244
1.73256
1.73267
1.73278
1.73288
1.73298
1.73307
1.73315
1.73323
1.7333
1.73335
1.7334
1.73344
1.73347
1.73348
1.73349
1.73348
1.73346
1.73343
1.73338
1.73332
1.73326
1.73318
1.73309
1.73298
1.73287
1.73275
1.73262
1.73248
1.73234
1.73219
1.73204
1.73188
1.73172
1.73155
1.73139
1.73123
1.73107
1.73091
1.73075
1.73061
1.73046
1.73033
1.7302
1.73008
1.72997
1.72987
1.72979
1.72971
1.72965
1.72959
1.72956
1.72953
1.72952
1.72952
1.72953
1.72956
1.72959
1.72964
1.72971
1.72978
1.72987
1.72996
1.73007
1.73018
1.73031
1.73044
1.73058
1.73073
1.73089
1.73105
1.73122
1.73139
1.73157
1.73176
1.73195
1.73214
1.73234
1.73254
1.73275
1.73296
1.73317
1.73338
1.7336
1.73382
1.73404
1.73426
1.73449
1.73471
1.73494
1.73517
1.7354
1.73562
1.73585
1.73608
1.7363
1.73653
1.73675
1.73697
1.73719
1.7374
1.73761
1.73782
1.73802
1.73821
1.7384
1.73858
1.73876
1.73893
1.73909
1.73924
1.73938
1.73951
1.73964
1.73975
1.73986
1.73995
1.74004
1.74012
1.74018
1.74023
1.74028
1.74031
1.74034
1.74035
1.74036
1.74036
1.74035
1.74033
1.7403
1.74027
1.74022
1.74018
1.74013
1.74007
1.74001
1.73994
1.73988
1.73981
1.73973
1.73966
1.73959
1.73952
1.73945
1.73937
1.73931
1.73924
1.73918