# vtk DataFile Version 2.0
LBE two cylinders
ASCII
DATASET STRUCTURED_POINTS
DIMENSIONS 400 100 1
ASPECT_RATIO 1 1 1
ORIGIN 0 0 0
POINT_DATA 40000
SCALARS rho double 1
LOOKUP_TABLE default
1.67924
1.73498
1.74902
1.72797
1.729
1.73799
1.7366
1.7333
1.73477
1.73613
1.73528
1.73488
1.7354
1.73552
1.73526
1.73527
1.7354
1.73537
1.73531
1.73533
1.73535
1.73533
1.73532
1.73532
1.73531
1.7353
1.73529
1.73529
1.73528
1.73526
1.73526
1.73524
1.73523
1.73522
1.73521
1.73519
1.73518
1.73516
1.73515
1.73513
1.73512
1.7351
1.73508
1.73506
1.73504
1.73502
1.73499
1.73497
1.73495
1.73492
1.7349
1.73487
1.73485
1.73482
1.7348
1.73477
1.73474
1.73472
1.73469
1.73467
1.73464
1.73462
1.7346
1.73458
1.73456
1.73455
1.73453
1.73452
1.73451
1.73451
1.73451
1.73451
1.73451
1.73452
1.73453
1.73455
1.73457
1.7346
1.73463
1.73466
1.7347
1.73475
1.7348
1.73485
1.73491
1.73497
1.73503
1.7351
1.73517
1.73525
1.73532
1.7354
1.73548
1.73556
1.73565
1.73573
1.73581
1.73589
1.73598
1.73606
1.73613
1.73621
1.73628
1.73635
1.73642
1.73649
1.73655
1.7366
1.73666
1.73671
1.73675
1.7368
1.73684
1.73687
1.7369
1.73693
1.73695
1.73697
1.73699
1.73701
1.73702
1.73703
1.73703
1.73704
1.73704
1.73704
1.73704
1.73703
1.73703
1.73702
1.73701
1.737
1.73699
1.73698
1.73696
1.73695
1.73693
1.73692
1.7369
1.73689
1.73687
1.73685
1.73683
1.73682
1.7368
1.73678
1.73676
1.73674
1.73672
1.73671
1.73669
1.73667
1.73665
1.73663
1.73661
1.73659
1.73657
1.73656
1.73654
1.73652
1.7365
1.73648
1.73646
1.73645
1.73643
1.73641
1.73639
1.73637
1.73635
1.73634
1.73632
1.7363
1.73628
1.73626
1.73624
1.73622
1.7362
1.73618
1.73616
1.73614
1.73612
1.73609
1.73607
1.73605
1.73603
1.736
1.73598
1.73595
1.73592
1.7359
1.73587
1.73584
1.73581
1.73578
1.73575
1.73572
1.73568
1.73565
1.73561
1.73557
1.73554
1.7355
1.73546
1.73541
1.73537
1.73533
1.73528
1.73524
1.73519
1.73514
1.73509
1.73504
1.73499
1.73493
1.73488
1.73482
1.73477
1.73471
1.73466
1.7346
1.73454
1.73449
1.73443
1.73437
1.73432
1.73426
1.73421
1.73415
1.7341
1.73405
1.734
1.73395
1.7339
1.73386
1.73381
1.73378
1.73374
1.73371
1.73368
1.73365
1.73363
1.73362
1.73361
1.7336
1.7336
1.7336
1.73362
1.73363
1.73366
1.73369
1.73372
1.73377
1.73382
1.73388
1.73395
1.73402
1.73411
1.7342
1.7343
1.73441
1.73453
1.73466
1.7348
1.73494
1.7351
1.73526
1.73543
1.73561
1.7358
1.736
1.7362
1.73641
1.73663
1.73686
1.73709
1.73733
1.73757
1.73781
1.73806
1.73831
1.73856
1.73882
1.73907
1.73932
1.73958
1.73982
1.74007
1.7403
1.74054
1.74076
1.74098
1.74119
1.74139
1.74157
1.74175
1.74191
1.74206
1.74219
1.74231
1.74241
1.7425
1.74257
1.74262
1.74266
1.74268
1.74268
1.74267
1.74263
1.74258
1.74252
1.74243
1.74234
1.74222
1.74209
1.74195
1.7418
1.74163
1.74145
1.74126
1.74107
1.74086
1.74065
1.74043
1.7402
1.73997
1.73974
1.73951
1.73927
1.73903
1.7388
1.73857
1.73833
1.73811
1.73788
1.73767
1.73745
1.73725
1.73705
1.73686
1.73668
1.7365
1.73634
1.73619
1.73605
1.73591
1.73579
1.73568
1.73559
1.7355
1.73543
1.73538
1.73533
1.7353
1.73529
1.73528
1.7353
1.73533
1.73537
1.73543
1.73551
1.73561
1.73572
1.73585
1.736
1.73617
1.73637
1.73658
1.73681
1.73707
1.73735
1.73765
1.73798
1.73834
1.73872
1.73913
1.73957
1.74005
1.74055
1.74108
1.74168
1.74229
1.74289
1.74361
1.74443
1.74509
1.74586
1.74708
1.74794
1.74841
1.75022
1.75212
1.75159
1.75321
1.75905
1.75753
1.75421
1.76966
1.77661
1.74806
1.7837
1.69888
1.72224
1.73717
1.73097
1.73147
1.73485
1.73505
1.73407
1.73462
1.73519
1.73505
1.73493
1.73513
1.73522
1.73517
1.73518
1.73523
1.73524
1.73523
1.73524
1.73525
1.73525
1.73525
1.73525
1.73525
1.73524
1.73524
1.73523
1.73523
1.73522
1.73521
1.7352
1.73519
1.73518
1.73517
1.73516
1.73515
1.73513
1.73512
1.7351
1.73509
1.73507
1.73505
1.73503
1.73501
1.73499
1.73497
1.73495
1.73492
1.7349
1.73488
1.73485
1.73483
1.7348
1.73478
1.73475
1.73473
1.7347
1.73468
1.73465
1.73463
1.73461
1.73459
1.73457
1.73455
1.73453
1.73452
1.73451
1.7345
1.7345
1.7345
1.7345
1.7345
1.73451
1.73453
1.73454
1.73457
1.73459
1.73462
1.73466
1.7347
1.73474
1.73479
1.73485
1.73491
1.73497
1.73503
1.7351
1.73517
1.73525
1.73533
1.7354
1.73549
1.73557
1.73565
1.73573
1.73582
1.7359
1.73598
1.73606
1.73614
1.73621
1.73628
1.73635
1.73642
1.73648
1.73655
1.7366
1.73666
1.73671
1.73675
1.73679
1.73683
1.73687
1.7369
1.73692
1.73695
1.73697
1.73699
1.737
1.73701
1.73702
1.73703
1.73703
1.73703
1.73703
1.73703
1.73703
1.73702
1.73701
1.737
1.73699
1.73698
1.73697
1.73696
1.73694
1.73693
1.73691
1.7369
1.73688
1.73686
1.73684
1.73683
1.73681
1.73679
1.73677
1.73675
1.73674
1.73672
1.7367
1.73668
1.73666
1.73664
1.73662
1.73661
1.73659
1.73657
1.73655
1.73653
1.73651
1.7365
1.73648
1.73646
1.73644
1.73642
1.7364
1.73639
1.73637
1.73635
1.73633
1.73631
1.73629
1.73627
1.73625
1.73624
1.73622
1.7362
1.73618
1.73615
1.73613
1.73611
1.73609
1.73607
1.73604
1.73602
1.736
1.73597
1.73595
1.73592
1.73589
1.73587
1.73584
1.73581
1.73578
1.73574
1.73571
1.73568
1.73564
1.73561
1.73557
1.73553
1.73549
1.73545
1.73541
1.73537
1.73532
1.73528
1.73523
1.73518
1.73513
1.73508
1.73503
1.73498
1.73493
1.73487
1.73482
1.73476
1.73471
1.73465
1.73459
1.73454
1.73448
1.73442
1.73437
1.73431
1.73425
1.7342
1.73415
1.73409
1.73404
1.73399
1.73394
1.7339
1.73385
1.73381
1.73377
1.73374
1.73371
1.73368
1.73365
1.73363
1.73362
1.73361
1.7336
1.7336
1.73361
1.73362
1.73363
1.73366
1.73369
1.73373
1.73377
1.73383
1.73389
1.73395
1.73403
1.73412
1.73421
1.73431
1.73442
1.73454
1.73467
1.73481
1.73495
1.73511
1.73527
1.73545
1.73563
1.73582
1.73601
1.73622
1.73643
1.73665
1.73688
1.73711
1.73734
1.73759
1.73783
1.73808
1.73833
1.73858
1.73884
1.73909
1.73934
1.73959
1.73984
1.74008
1.74032
1.74055
1.74078
1.74099
1.7412
1.7414
1.74158
1.74175
1.74191
1.74206
1.74219
1.74231
1.74241
1.7425
1.74257
1.74262
1.74265
1.74267
1.74267
1.74265
1.74262
1.74257
1.7425
1.74241
1.74232
1.7422
1.74207
1.74193
1.74177
1.74161
1.74143
1.74124
1.74104
1.74083
1.74062
1.7404
1.74018
1.73995
1.73971
1.73948
1.73925
1.73901
1.73878
1.73854
1.73831
1.73809
1.73786
1.73765
1.73744
1.73723
1.73703
1.73685
1.73666
1.73649
1.73633
1.73618
1.73604
1.73591
1.73579
1.73568
1.73558
1.7355
1.73543
1.73538
1.73533
1.7353
1.73529
1.73529
1.7353
1.73534
1.73538
1.73545
1.73552
1.73562
1.73574
1.73587
1.73602
1.73619
1.73639
1.7366
1.73684
1.73709
1.73738
1.73768
1.73801
1.73837
1.73876
1.73917
1.73962
1.74009
1.74059
1.74114
1.74172
1.74232
1.74299
1.74369
1.74441
1.7452
1.7461
1.74697
1.74785
1.749
1.7503
1.75123
1.7525
1.75474
1.75654
1.75691
1.76047
1.76661
1.76754
1.76419
1.78863
1.751
1.72322
1.71346
1.73652
1.73924
1.73
1.73177
1.7363
1.73509
1.73356
1.7347
1.73538
1.73486
1.73475
1.73512
1.73516
1.73504
1.73508
1.73517
1.73516
1.73514
1.73517
1.73518
1.73517
1.73517
1.73518
1.73518
1.73517
1.73517
1.73517
1.73516
1.73516
1.73515
1.73514
1.73513
1.73512
1.73511
1.7351
1.73509
1.73507
1.73506
1.73504
1.73502
1.735
1.73499
1.73497
1.73495
1.73492
1.7349
1.73488
1.73486
1.73483
1.73481
1.73478
1.73476
1.73473
1.73471
1.73468
1.73466
1.73463
1.73461
1.73459
1.73457
1.73455
1.73453
1.73452
1.73451
1.73449
1.73449
1.73448
1.73448
1.73448
1.73449
1.7345
1.73452
1.73453
1.73456
1.73458
1.73462
1.73465
1.73469
1.73474
1.73479
1.73484
1.7349
1.73496
1.73503
1.7351
1.73517
1.73525
1.73533
1.7354
1.73549
1.73557
1.73565
1.73573
1.73582
1.7359
1.73598
1.73606
1.73614
1.73621
1.73629
1.73636
1.73642
1.73649
1.73655
1.7366
1.73666
1.73671
1.73675
1.73679
1.73683
1.73687
1.7369
1.73692
1.73695
1.73697
1.73698
1.737
1.73701
1.73702
1.73702
1.73703
1.73703
1.73703
1.73702
1.73702
1.73701
1.73701
1.737
1.73699
1.73698
1.73696
1.73695
1.73694
1.73692
1.7369
1.73689
1.73687
1.73686
1.73684
1.73682
1.7368
1.73679
1.73677
1.73675
1.73673
1.73671
1.73669
1.73667
1.73666
1.73664
1.73662
1.7366
1.73658
1.73656
1.73654
1.73653
1.73651
1.73649
1.73647
1.73645
1.73644
1.73642
1.7364
1.73638
1.73636
1.73634
1.73633
1.73631
1.73629
1.73627
1.73625
1.73623
1.73621
1.73619
1.73617
1.73615
1.73613
1.73611
1.73609
1.73606
1.73604
1.73602
1.73599
1.73597
1.73594
1.73592
1.73589
1.73586
1.73583
1.7358
1.73577
1.73574
1.73571
1.73567
1.73564
1.7356
1.73556
1.73553
1.73549
1.73545
1.7354
1.73536
1.73532
1.73527
1.73522
1.73518
1.73513
1.73508
1.73503
1.73498
1.73492
1.73487
1.73481
1.73476
1.7347
1.73465
1.73459
1.73453
1.73447
1.73442
1.73436
1.7343
1.73425
1.73419
1.73414
1.73409
1.73403
1.73399
1.73394
1.73389
1.73385
1.73381
1.73377
1.73373
1.7337
1.73367
1.73365
1.73363
1.73361
1.7336
1.7336
1.7336
1.7336
1.73361
1.73363
1.73366
1.73369
1.73373
1.73377
1.73382
1.73388
1.73395
1.73403
1.73412
1.73421
1.73431
1.73442
1.73454
1.73467
1.73481
1.73496
1.73511
1.73528
1.73545
1.73563
1.73583
1.73602
1.73623
1.73644
1.73666
1.73689
1.73712
1.73736
1.7376
1.73785
1.7381
1.73835
1.7386
1.73886
1.73911
1.73936
1.73961
1.73986
1.7401
1.74034
1.74057
1.7408
1.74101
1.74122
1.74142
1.7416
1.74177
1.74193
1.74208
1.74221
1.74232
1.74242
1.74251
1.74258
1.74263
1.74266
1.74268
1.74267
1.74265
1.74262
1.74256
1.7425
1.74241
1.74231
1.74219
1.74206
1.74192
1.74176
1.74159
1.74141
1.74122
1.74102
1.74081
1.7406
1.74038
1.74015
1.73992
1.73969
1.73946
1.73922
1.73898
1.73875
1.73852
1.73829
1.73806
1.73784
1.73762
1.73741
1.73721
1.73701
1.73682
1.73664
1.73647
1.73631
1.73616
1.73602
1.73589
1.73577
1.73566
1.73557
1.73549
1.73542
1.73536
1.73532
1.73529
1.73528
1.73528
1.7353
1.73533
1.73538
1.73544
1.73552
1.73562
1.73573
1.73587
1.73602
1.73619
1.73639
1.7366
1.73684
1.7371
1.73738
1.73769
1.73802
1.73838
1.73876
1.73918
1.73962
1.74009
1.74061
1.74116
1.74171
1.74233
1.74303
1.74369
1.74437
1.74528
1.74616
1.74677
1.74789
1.7494
1.74985
1.75065
1.75378
1.75478
1.7532
1.7589
1.76544
1.75674
1.75986
1.78808
1.77791
1.73369
1.73033
1.73067
1.73331
1.73156
1.73296
1.73468
1.73402
1.73377
1.73459
1.73483
1.73458
1.73469
1.73493
1.73494
1.73491
1.73498
1.73504
1.73504
1.73505
1.73508
1.7351
1.7351
1.73511
1.73512
1.73512
1.73512
1.73513
1.73513
1.73512
1.73512
1.73512
1.73511
1.7351
1.7351
1.73509
1.73508
1.73507
1.73506
1.73504
1.73503
1.73501
1.735
1.73498
1.73496
1.73494
1.73492
1.7349
1.73488
1.73486
1.73483
1.73481
1.73479
1.73476
1.73474
1.73471
1.73469
1.73466
1.73464
1.73462
1.73459
1.73457
1.73455
1.73453
1.73452
1.7345
1.73449
1.73448
1.73447
1.73447
1.73447
1.73447
1.73448
1.73449
1.7345
1.73452
1.73454
1.73457
1.7346
1.73464
1.73468
1.73473
1.73478
1.73483
1.73489
1.73496
1.73503
1.7351
1.73517
1.73524
1.73532
1.7354
1.73549
1.73557
1.73565
1.73574
1.73582
1.7359
1.73599
1.73606
1.73614
1.73622
1.73629
1.73636
1.73643
1.73649
1.73655
1.73661
1.73666
1.73671
1.73676
1.7368
1.73683
1.73687
1.7369
1.73692
1.73695
1.73697
1.73698
1.737
1.73701
1.73702
1.73702
1.73702
1.73703
1.73702
1.73702
1.73702
1.73701
1.737
1.73699
1.73698
1.73697
1.73696
1.73694
1.73693
1.73691
1.7369
1.73688
1.73687
1.73685
1.73683
1.73681
1.7368
1.73678
1.73676
1.73674
1.73672
1.73671
1.73669
1.73667
1.73665
1.73663
1.73661
1.73659
1.73658
1.73656
1.73654
1.73652
1.7365
1.73648
1.73647
1.73645
1.73643
1.73641
1.73639
1.73638
1.73636
1.73634
1.73632
1.7363
1.73628
1.73626
1.73625
1.73623
1.73621
1.73619
1.73617
1.73615
1.73613
1.7361
1.73608
1.73606
1.73604
1.73601
1.73599
1.73596
1.73594
1.73591
1.73589
1.73586
1.73583
1.7358
1.73577
1.73574
1.7357
1.73567
1.73564
1.7356
1.73556
1.73552
1.73548
1.73544
1.7354
1.73536
1.73531
1.73527
1.73522
1.73517
1.73512
1.73507
1.73502
1.73497
1.73492
1.73486
1.73481
1.73475
1.7347
1.73464
1.73458
1.73453
1.73447
1.73441
1.73436
1.7343
1.73424
1.73419
1.73413
1.73408
1.73403
1.73398
1.73393
1.73388
1.73384
1.7338
1.73376
1.73372
1.73369
1.73366
1.73364
1.73362
1.7336
1.73359
1.73359
1.73359
1.73359
1.7336
1.73362
1.73365
1.73368
1.73372
1.73376
1.73382
1.73388
1.73395
1.73402
1.73411
1.7342
1.73431
1.73442
1.73454
1.73467
1.73481
1.73495
1.73511
1.73528
1.73545
1.73563
1.73583
1.73602
1.73623
1.73645
1.73667
1.7369
1.73713
1.73737
1.73761
1.73786
1.73811
1.73836
1.73862
1.73887
1.73913
1.73938
1.73963
1.73988
1.74013
1.74037
1.7406
1.74082
1.74104
1.74125
1.74144
1.74163
1.7418
1.74196
1.74211
1.74224
1.74235
1.74245
1.74253
1.7426
1.74265
1.74268
1.74269
1.74269
1.74267
1.74263
1.74258
1.7425
1.74242
1.74231
1.74219
1.74206
1.74191
1.74175
1.74158
1.7414
1.74121
1.74101
1.7408
1.74058
1.74036
1.74013
1.7399
1.73967
1.73943
1.73919
1.73896
1.73872
1.73849
1.73826
1.73803
1.73781
1.73759
1.73738
1.73718
1.73698
1.73679
1.73661
1.73644
1.73628
1.73613
1.73599
1.73586
1.73574
1.73564
1.73554
1.73546
1.73539
1.73534
1.7353
1.73527
1.73526
1.73526
1.73527
1.73531
1.73535
1.73542
1.7355
1.7356
1.73571
1.73585
1.736
1.73617
1.73637
1.73658
1.73682
1.73708
1.73736
1.73766
1.738
1.73835
1.73874
1.73915
1.7396
1.74008
1.74058
1.74112
1.7417
1.74231
1.74295
1.74366
1.74441
1.74516
1.746
1.74694
1.74784
1.74882
1.75003
1.75119
1.75236
1.75403
1.7556
1.75693
1.75957
1.76236
1.76341
1.76935
1.7678
1.72228
1.73457
1.74017
1.72862
1.72892
1.73666
1.73502
1.73201
1.734
1.73541
1.73436
1.73411
1.73487
1.73497
1.73469
1.7348
1.73499
1.73496
1.73493
1.735
1.73504
1.73503
1.73504
1.73506
1.73507
1.73507
1.73508
1.73508
1.73508
1.73508
1.73508
1.73508
1.73508
1.73507
1.73507
1.73506
1.73505
1.73504
1.73503
1.73502
1.735
1.73499
1.73497
1.73496
1.73494
1.73492
1.7349
1.73488
1.73486
1.73484
1.73481
1.73479
1.73477
1.73474
1.73472
1.73469
1.73467
1.73465
1.73462
1.7346
1.73458
1.73455
1.73453
1.73452
1.7345
1.73448
1.73447
1.73446
1.73446
1.73445
1.73445
1.73445
1.73446
1.73447
1.73449
1.7345
1.73453
1.73456
1.73459
1.73463
1.73467
1.73472
1.73477
1.73482
1.73489
1.73495
1.73502
1.73509
1.73516
1.73524
1.73532
1.7354
1.73549
1.73557
1.73565
1.73574
1.73582
1.73591
1.73599
1.73607
1.73615
1.73622
1.7363
1.73637
1.73644
1.7365
1.73656
1.73662
1.73667
1.73672
1.73676
1.7368
1.73684
1.73687
1.7369
1.73693
1.73695
1.73697
1.73699
1.737
1.73701
1.73702
1.73702
1.73702
1.73702
1.73702
1.73702
1.73701
1.73701
1.737
1.73699
1.73698
1.73697
1.73695
1.73694
1.73692
1.73691
1.73689
1.73688
1.73686
1.73684
1.73683
1.73681
1.73679
1.73677
1.73675
1.73674
1.73672
1.7367
1.73668
1.73666
1.73664
1.73663
1.73661
1.73659
1.73657
1.73655
1.73653
1.73652
1.7365
1.73648
1.73646
1.73644
1.73642
1.73641
1.73639
1.73637
1.73635
1.73633
1.73632
1.7363
1.73628
1.73626
1.73624
1.73622
1.7362
1.73618
1.73616
1.73614
1.73612
1.7361
1.73608
1.73606
1.73603
1.73601
1.73599
1.73596
1.73594
1.73591
1.73588
1.73586
1.73583
1.7358
1.73577
1.73573
1.7357
1.73567
1.73563
1.7356
1.73556
1.73552
1.73548
1.73544
1.7354
1.73536
1.73531
1.73527
1.73522
1.73517
1.73512
1.73507
1.73502
1.73497
1.73491
1.73486
1.7348
1.73475
1.73469
1.73464
1.73458
1.73452
1.73446
1.73441
1.73435
1.73429
1.73424
1.73418
1.73412
1.73407
1.73402
1.73397
1.73392
1.73387
1.73383
1.73379
1.73375
1.73371
1.73368
1.73365
1.73363
1.73361
1.73359
1.73358
1.73357
1.73357
1.73358
1.73359
1.73361
1.73363
1.73366
1.7337
1.73375
1.7338
1.73386
1.73393
1.73401
1.73409
1.73419
1.73429
1.7344
1.73453
1.73466
1.73479
1.73494
1.7351
1.73527
1.73544
1.73563
1.73582
1.73602
1.73623
1.73644
1.73667
1.73689
1.73713
1.73737
1.73762
1.73787
1.73812
1.73837
1.73863
1.73889
1.73915
1.7394
1.73966
1.73991
1.74015
1.74039
1.74063
1.74085
1.74107
1.74128
1.74148
1.74166
1.74184
1.742
1.74214
1.74227
1.74239
1.74249
1.74257
1.74264
1.74268
1.74271
1.74273
1.74272
1.7427
1.74266
1.7426
1.74252
1.74243
1.74233
1.74221
1.74207
1.74192
1.74176
1.74158
1.7414
1.7412
1.741
1.74079
1.74057
1.74034
1.74011
1.73988
1.73964
1.7394
1.73917
1.73893
1.73869
1.73846
1.73822
1.738
1.73777
1.73756
1.73734
1.73714
1.73694
1.73675
1.73657
1.7364
1.73624
1.73609
1.73595
1.73582
1.73571
1.7356
1.73551
1.73543
1.73536
1.7353
1.73526
1.73523
1.73522
1.73522
1.73524
1.73527
1.73532
1.73538
1.73546
1.73556
1.73568
1.73581
1.73596
1.73613
1.73633
1.73654
1.73677
1.73703
1.73731
1.73762
1.73795
1.73831
1.73869
1.7391
1.73954
1.74002
1.74052
1.74104
1.74164
1.74224
1.74285
1.74357
1.74435
1.74501
1.74581
1.74694
1.74771
1.74829
1.74998
1.75147
1.75114
1.7529
1.75722
1.75602
1.75384
1.76376
1.76766
1.7556
1.76133
1.73478
1.73243
1.73078
1.73304
1.73554
1.73316
1.73232
1.73466
1.73494
1.73381
1.73417
1.73491
1.73472
1.73451
1.73477
1.73492
1.73483
1.73484
1.73495
1.73497
1.73495
1.73498
1.73501
1.73502
1.73502
1.73503
1.73504
1.73504
1.73505
1.73505
1.73505
1.73505
1.73505
1.73504
1.73504
1.73503
1.73502
1.73501
1.735
1.73499
1.73498
1.73497
1.73495
1.73494
1.73492
1.7349
1.73488
1.73486
1.73484
1.73482
1.7348
1.73477
1.73475
1.73473
1.7347
1.73468
1.73465
1.73463
1.73461
1.73458
1.73456
1.73454
1.73452
1.7345
1.73448
1.73447
1.73446
1.73445
1.73444
1.73443
1.73443
1.73444
1.73444
1.73445
1.73447
1.73449
1.73451
1.73454
1.73458
1.73461
1.73466
1.7347
1.73476
1.73481
1.73487
1.73494
1.73501
1.73508
1.73516
1.73524
1.73532
1.7354
1.73548
1.73557
1.73566
1.73574
1.73583
1.73591
1.73599
1.73608
1.73616
1.73623
1.73631
1.73638
1.73644
1.73651
1.73657
1.73662
1.73668
1.73672
1.73677
1.73681
1.73685
1.73688
1.73691
1.73693
1.73695
1.73697
1.73699
1.737
1.73701
1.73702
1.73702
1.73702
1.73702
1.73702
1.73702
1.73701
1.737
1.73699
1.73698
1.73697
1.73696
1.73695
1.73693
1.73692
1.7369
1.73689
1.73687
1.73685
1.73684
1.73682
1.7368
1.73678
1.73677
1.73675
1.73673
1.73671
1.73669
1.73667
1.73666
1.73664
1.73662
1.7366
1.73658
1.73656
1.73655
1.73653
1.73651
1.73649
1.73647
1.73646
1.73644
1.73642
1.7364
1.73638
1.73637
1.73635
1.73633
1.73631
1.73629
1.73628
1.73626
1.73624
1.73622
1.7362
1.73618
1.73616
1.73614
1.73612
1.7361
1.73608
1.73605
1.73603
1.73601
1.73598
1.73596
1.73593
1.73591
1.73588
1.73585
1.73582
1.7358
1.73576
1.73573
1.7357
1.73567
1.73563
1.7356
1.73556
1.73552
1.73548
1.73544
1.7354
1.73535
1.73531
1.73526
1.73522
1.73517
1.73512
1.73507
1.73502
1.73497
1.73491
1.73486
1.7348
1.73475
1.73469
1.73463
1.73457
1.73452
1.73446
1.7344
1.73434
1.73429
1.73423
1.73417
1.73412
1.73406
1.73401
1.73396
1.73391
1.73386
1.73382
1.73378
1.73374
1.7337
1.73367
1.73364
1.73361
1.73359
1.73357
1.73356
1.73356
1.73356
1.73356
1.73357
1.73359
1.73361
1.73364
1.73368
1.73373
1.73378
1.73384
1.73391
1.73399
1.73407
1.73417
1.73427
1.73438
1.7345
1.73464
1.73478
1.73492
1.73508
1.73525
1.73543
1.73561
1.7358
1.736
1.73621
1.73643
1.73666
1.73689
1.73712
1.73737
1.73761
1.73787
1.73812
1.73838
1.73864
1.7389
1.73916
1.73942
1.73967
1.73993
1.74018
1.74042
1.74066
1.74089
1.74111
1.74132
1.74152
1.7417
1.74188
1.74204
1.74219
1.74232
1.74243
1.74253
1.74261
1.74268
1.74273
1.74275
1.74277
1.74276
1.74273
1.74269
1.74263
1.74255
1.74246
1.74235
1.74222
1.74208
1.74193
1.74176
1.74159
1.7414
1.7412
1.74099
1.74078
1.74055
1.74033
1.74009
1.73986
1.73962
1.73938
1.73914
1.7389
1.73866
1.73842
1.73819
1.73796
1.73773
1.73752
1.7373
1.7371
1.7369
1.73671
1.73653
1.73636
1.7362
1.73605
1.73591
1.73578
1.73566
1.73556
1.73546
1.73538
1.73531
1.73526
1.73522
1.73519
1.73518
1.73518
1.73519
1.73523
1.73527
1.73534
1.73541
1.73551
1.73563
1.73576
1.73591
1.73608
1.73627
1.73648
1.73671
1.73697
1.73725
1.73755
1.73788
1.73823
1.73861
1.73902
1.73945
1.73992
1.74042
1.74095
1.74151
1.74212
1.74277
1.74341
1.74413
1.74494
1.74569
1.74646
1.74753
1.74848
1.74916
1.75048
1.75209
1.7525
1.75339
1.75647
1.75757
1.75703
1.76005
1.76102
1.76162
1.73781
1.73232
1.73021
1.73573
1.73514
1.73161
1.73371
1.7355
1.73396
1.73366
1.73481
1.73484
1.73437
1.7346
1.7349
1.7348
1.73474
1.73488
1.73493
1.7349
1.73492
1.73497
1.73498
1.73498
1.73499
1.73501
1.73501
1.73502
1.73502
1.73502
1.73502
1.73502
1.73502
1.73502
1.73501
1.73501
1.735
1.73499
1.73498
1.73497
1.73496
1.73495
1.73493
1.73492
1.7349
1.73488
1.73486
1.73484
1.73482
1.7348
1.73478
1.73476
1.73473
1.73471
1.73469
1.73466
1.73464
1.73461
1.73459
1.73457
1.73454
1.73452
1.7345
1.73448
1.73447
1.73445
1.73444
1.73443
1.73442
1.73442
1.73442
1.73442
1.73443
1.73444
1.73445
1.73447
1.7345
1.73453
1.73456
1.7346
1.73464
1.73469
1.73474
1.7348
1.73486
1.73493
1.735
1.73507
1.73515
1.73523
1.73531
1.7354
1.73548
1.73557
1.73566
1.73574
1.73583
1.73591
1.736
1.73608
1.73616
1.73624
1.73631
1.73638
1.73645
1.73652
1.73658
1.73663
1.73668
1.73673
1.73678
1.73682
1.73685
1.73688
1.73691
1.73694
1.73696
1.73698
1.73699
1.737
1.73701
1.73702
1.73702
1.73702
1.73702
1.73702
1.73701
1.73701
1.737
1.73699
1.73698
1.73697
1.73696
1.73694
1.73693
1.73691
1.7369
1.73688
1.73687
1.73685
1.73683
1.73681
1.7368
1.73678
1.73676
1.73674
1.73672
1.73671
1.73669
1.73667
1.73665
1.73663
1.73661
1.7366
1.73658
1.73656
1.73654
1.73652
1.7365
1.73649
1.73647
1.73645
1.73643
1.73642
1.7364
1.73638
1.73636
1.73634
1.73633
1.73631
1.73629
1.73627
1.73625
1.73623
1.73622
1.7362
1.73618
1.73616
1.73614
1.73612
1.7361
1.73607
1.73605
1.73603
1.73601
1.73598
1.73596
1.73593
1.73591
1.73588
1.73585
1.73582
1.73579
1.73576
1.73573
1.7357
1.73567
1.73563
1.7356
1.73556
1.73552
1.73548
1.73544
1.7354
1.73535
1.73531
1.73526
1.73522
1.73517
1.73512
1.73507
1.73502
1.73496
1.73491
1.73485
1.7348
1.73474
1.73469
1.73463
1.73457
1.73451
1.73445
1.73439
1.73434
1.73428
1.73422
1.73416
1.73411
1.73405
1.734
1.73395
1.7339
1.73385
1.7338
1.73376
1.73372
1.73368
1.73365
1.73362
1.7336
1.73357
1.73356
1.73354
1.73354
1.73354
1.73354
1.73355
1.73357
1.73359
1.73362
1.73366
1.7337
1.73376
1.73382
1.73388
1.73396
1.73405
1.73414
1.73424
1.73436
1.73448
1.73461
1.73475
1.7349
1.73506
1.73522
1.7354
1.73559
1.73578
1.73598
1.7362
1.73641
1.73664
1.73687
1.73711
1.73736
1.73761
1.73786
1.73812
1.73838
1.73864
1.73891
1.73917
1.73943
1.73969
1.73995
1.7402
1.74045
1.74069
1.74092
1.74114
1.74135
1.74156
1.74175
1.74192
1.74209
1.74223
1.74237
1.74248
1.74258
1.74267
1.74273
1.74278
1.7428
1.74281
1.7428
1.74278
1.74273
1.74267
1.74259
1.74249
1.74237
1.74225
1.7421
1.74195
1.74178
1.74159
1.7414
1.7412
1.74099
1.74077
1.74054
1.74031
1.74007
1.73983
1.73959
1.73935
1.73911
1.73886
1.73862
1.73838
1.73815
1.73792
1.73769
1.73747
1.73726
1.73705
1.73685
1.73666
1.73648
1.73631
1.73615
1.736
1.73586
1.73573
1.73561
1.7355
1.73541
1.73533
1.73526
1.73521
1.73516
1.73514
1.73512
1.73512
1.73514
1.73517
1.73522
1.73528
1.73536
1.73545
1.73556
1.73569
1.73584
1.73601
1.7362
1.73641
1.73664
1.73689
1.73716
1.73746
1.73778
1.73813
1.7385
1.73891
1.73934
1.73979
1.74029
1.74082
1.74136
1.74195
1.74261
1.74324
1.74388
1.74472
1.74553
1.74611
1.74707
1.74838
1.74886
1.74939
1.75164
1.75284
1.75169
1.75412
1.7584
1.75549
1.75473
1.76198
1.75964
1.73202
1.73425
1.73568
1.73323
1.73216
1.73483
1.73524
1.73331
1.73379
1.73511
1.73464
1.73413
1.73466
1.73493
1.73467
1.73467
1.73488
1.73489
1.73483
1.73488
1.73495
1.73494
1.73494
1.73497
1.73498
1.73498
1.73499
1.735
1.735
1.735
1.735
1.735
1.735
1.735
1.735
1.73499
1.73498
1.73497
1.73497
1.73496
1.73494
1.73493
1.73492
1.7349
1.73489
1.73487
1.73485
1.73483
1.73481
1.73479
1.73477
1.73474
1.73472
1.7347
1.73467
1.73465
1.73463
1.7346
1.73458
1.73455
1.73453
1.73451
1.73449
1.73447
1.73445
1.73444
1.73443
1.73442
1.73441
1.73441
1.7344
1.73441
1.73441
1.73443
1.73444
1.73446
1.73448
1.73451
1.73455
1.73459
1.73463
1.73468
1.73473
1.73479
1.73485
1.73492
1.73499
1.73507
1.73515
1.73523
1.73531
1.73539
1.73548
1.73557
1.73566
1.73574
1.73583
1.73592
1.736
1.73609
1.73617
1.73625
1.73632
1.73639
1.73646
1.73652
1.73658
1.73664
1.73669
1.73674
1.73678
1.73682
1.73686
1.73689
1.73692
1.73694
1.73696
1.73698
1.73699
1.737
1.73701
1.73702
1.73702
1.73702
1.73702
1.73702
1.73701
1.73701
1.737
1.73699
1.73698
1.73697
1.73695
1.73694
1.73693
1.73691
1.73689
1.73688
1.73686
1.73684
1.73683
1.73681
1.73679
1.73677
1.73676
1.73674
1.73672
1.7367
1.73668
1.73666
1.73664
1.73663
1.73661
1.73659
1.73657
1.73655
1.73654
1.73652
1.7365
1.73648
1.73646
1.73645
1.73643
1.73641
1.73639
1.73638
1.73636
1.73634
1.73632
1.7363
1.73629
1.73627
1.73625
1.73623
1.73621
1.73619
1.73617
1.73615
1.73613
1.73611
1.73609
1.73607
1.73605
1.73603
1.736
1.73598
1.73596
1.73593
1.73591
1.73588
1.73585
1.73582
1.73579
1.73576
1.73573
1.7357
1.73567
1.73563
1.7356
1.73556
1.73552
1.73548
1.73544
1.7354
1.73535
1.73531
1.73526
1.73522
1.73517
1.73512
1.73507
1.73501
1.73496
1.73491
1.73485
1.7348
1.73474
1.73468
1.73462
1.73457
1.73451
1.73445
1.73439
1.73433
1.73427
1.73421
1.73416
1.7341
1.73404
1.73399
1.73394
1.73389
1.73384
1.73379
1.73375
1.73371
1.73367
1.73363
1.7336
1.73358
1.73355
1.73354
1.73352
1.73352
1.73351
1.73352
1.73353
1.73354
1.73356
1.73359
1.73363
1.73367
1.73373
1.73379
1.73385
1.73393
1.73402
1.73411
1.73421
1.73433
1.73445
1.73458
1.73472
1.73487
1.73503
1.73519
1.73537
1.73556
1.73575
1.73596
1.73617
1.73639
1.73662
1.73685
1.73709
1.73734
1.73759
1.73785
1.73811
1.73837
1.73864
1.73891
1.73917
1.73944
1.7397
1.73996
1.74022
1.74047
1.74071
1.74095
1.74118
1.74139
1.7416
1.74179
1.74197
1.74213
1.74228
1.74242
1.74254
1.74264
1.74272
1.74278
1.74283
1.74285
1.74286
1.74285
1.74282
1.74277
1.74271
1.74262
1.74252
1.7424
1.74227
1.74212
1.74196
1.74179
1.7416
1.7414
1.7412
1.74098
1.74076
1.74053
1.74029
1.74005
1.73981
1.73956
1.73932
1.73907
1.73883
1.73858
1.73834
1.7381
1.73787
1.73764
1.73742
1.73721
1.737
1.7368
1.73661
1.73643
1.73626
1.73609
1.73594
1.7358
1.73567
1.73555
1.73545
1.73535
1.73527
1.7352
1.73515
1.73511
1.73508
1.73506
1.73506
1.73508
1.73511
1.73515
1.73521
1.73529
1.73538
1.73549
1.73562
1.73577
1.73593
1.73612
1.73632
1.73655
1.73679
1.73706
1.73736
1.73767
1.73802
1.73838
1.73878
1.7392
1.73965
1.74013
1.74064
1.7412
1.74176
1.74235
1.74304
1.74371
1.74433
1.74517
1.74606
1.74664
1.74745
1.74882
1.74953
1.74973
1.75148
1.75328
1.75267
1.75346
1.75633
1.75612
1.7556
1.75598
1.73273
1.73457
1.73509
1.73298
1.7338
1.73522
1.73394
1.73364
1.73488
1.73476
1.73415
1.73455
1.73492
1.73467
1.73461
1.73484
1.73488
1.7348
1.73485
1.73492
1.73492
1.73491
1.73494
1.73496
1.73496
1.73497
1.73498
1.73499
1.73499
1.73499
1.73499
1.73499
1.73499
1.73499
1.73498
1.73498
1.73497
1.73496
1.73495
1.73494
1.73493
1.73492
1.7349
1.73489
1.73487
1.73486
1.73484
1.73482
1.7348
1.73478
1.73476
1.73473
1.73471
1.73469
1.73466
1.73464
1.73461
1.73459
1.73457
1.73454
1.73452
1.7345
1.73448
1.73446
1.73444
1.73443
1.73442
1.73441
1.7344
1.73439
1.73439
1.7344
1.7344
1.73441
1.73443
1.73445
1.73447
1.7345
1.73454
1.73458
1.73462
1.73467
1.73472
1.73478
1.73485
1.73491
1.73499
1.73506
1.73514
1.73522
1.73531
1.73539
1.73548
1.73557
1.73566
1.73575
1.73583
1.73592
1.73601
1.73609
1.73617
1.73625
1.73633
1.7364
1.73647
1.73653
1.73659
1.73665
1.7367
1.73675
1.73679
1.73683
1.73686
1.73689
1.73692
1.73695
1.73697
1.73698
1.737
1.73701
1.73701
1.73702
1.73702
1.73702
1.73702
1.73702
1.73701
1.737
1.737
1.73699
1.73697
1.73696
1.73695
1.73694
1.73692
1.73691
1.73689
1.73687
1.73686
1.73684
1.73682
1.7368
1.73679
1.73677
1.73675
1.73673
1.73671
1.73669
1.73668
1.73666
1.73664
1.73662
1.7366
1.73658
1.73657
1.73655
1.73653
1.73651
1.73649
1.73648
1.73646
1.73644
1.73642
1.73641
1.73639
1.73637
1.73635
1.73634
1.73632
1.7363
1.73628
1.73626
1.73625
1.73623
1.73621
1.73619
1.73617
1.73615
1.73613
1.73611
1.73609
1.73607
1.73605
1.73603
1.736
1.73598
1.73596
1.73593
1.73591
1.73588
1.73585
1.73582
1.73579
1.73576
1.73573
1.7357
1.73567
1.73563
1.7356
1.73556
1.73552
1.73548
1.73544
1.7354
1.73535
1.73531
1.73526
1.73522
1.73517
1.73512
1.73507
1.73501
1.73496
1.73491
1.73485
1.73479
1.73474
1.73468
1.73462
1.73456
1.7345
1.73444
1.73438
1.73432
1.73426
1.73421
1.73415
1.73409
1.73403
1.73398
1.73393
1.73387
1.73382
1.73378
1.73373
1.73369
1.73365
1.73362
1.73359
1.73356
1.73353
1.73351
1.7335
1.73349
1.73349
1.73349
1.7335
1.73351
1.73354
1.73356
1.7336
1.73364
1.7337
1.73375
1.73382
1.7339
1.73398
1.73408
1.73418
1.73429
1.73441
1.73454
1.73468
1.73483
1.73499
1.73516
1.73534
1.73552
1.73572
1.73592
1.73614
1.73636
1.73659
1.73683
1.73707
1.73732
1.73757
1.73783
1.7381
1.73836
1.73863
1.7389
1.73917
1.73944
1.73971
1.73997
1.74023
1.74049
1.74074
1.74098
1.74121
1.74143
1.74164
1.74183
1.74201
1.74218
1.74233
1.74247
1.74259
1.74269
1.74277
1.74284
1.74288
1.74291
1.74291
1.7429
1.74287
1.74282
1.74275
1.74266
1.74255
1.74243
1.7423
1.74214
1.74198
1.7418
1.74161
1.74141
1.74119
1.74097
1.74075
1.74051
1.74027
1.74003
1.73978
1.73953
1.73928
1.73903
1.73878
1.73854
1.7383
1.73806
1.73782
1.73759
1.73737
1.73715
1.73694
1.73674
1.73655
1.73637
1.7362
1.73603
1.73588
1.73574
1.73561
1.73549
1.73539
1.73529
1.73521
1.73514
1.73509
1.73504
1.73501
1.735
1.735
1.73501
1.73504
1.73508
1.73514
1.73521
1.73531
1.73541
1.73554
1.73568
1.73584
1.73602
1.73622
1.73644
1.73669
1.73695
1.73724
1.73755
1.73788
1.73824
1.73863
1.73904
1.73949
1.73995
1.74044
1.74099
1.74156
1.74211
1.74274
1.74347
1.74407
1.74471
1.74566
1.74645
1.74687
1.74791
1.7493
1.74947
1.74987
1.75217
1.75276
1.75162
1.75422
1.75582
1.7529
1.75416
1.73571
1.73394
1.73304
1.73483
1.73527
1.73354
1.73377
1.73522
1.7347
1.73395
1.73464
1.73503
1.73458
1.73455
1.73489
1.73488
1.73474
1.73483
1.73493
1.7349
1.73488
1.73494
1.73495
1.73494
1.73495
1.73497
1.73498
1.73497
1.73498
1.73498
1.73498
1.73498
1.73498
1.73498
1.73497
1.73497
1.73496
1.73495
1.73494
1.73493
1.73492
1.73491
1.7349
1.73488
1.73486
1.73485
1.73483
1.73481
1.73479
1.73477
1.73475
1.73473
1.7347
1.73468
1.73466
1.73463
1.73461
1.73458
1.73456
1.73454
1.73451
1.73449
1.73447
1.73445
1.73444
1.73442
1.73441
1.7344
1.73439
1.73439
1.73439
1.73439
1.73439
1.73441
1.73442
1.73444
1.73447
1.73449
1.73453
1.73457
1.73461
1.73466
1.73472
1.73478
1.73484
1.73491
1.73498
1.73506
1.73514
1.73522
1.7353
1.73539
1.73548
1.73557
1.73566
1.73575
1.73584
1.73592
1.73601
1.73609
1.73618
1.73625
1.73633
1.7364
1.73647
1.73653
1.73659
1.73665
1.7367
1.73675
1.73679
1.73683
1.73687
1.7369
1.73692
1.73695
1.73697
1.73698
1.737
1.73701
1.73701
1.73702
1.73702
1.73702
1.73702
1.73701
1.73701
1.737
1.73699
1.73698
1.73697
1.73696
1.73694
1.73693
1.73692
1.7369
1.73688
1.73687
1.73685
1.73683
1.73682
1.7368
1.73678
1.73676
1.73674
1.73673
1.73671
1.73669
1.73667
1.73665
1.73663
1.73662
1.7366
1.73658
1.73656
1.73654
1.73653
1.73651
1.73649
1.73647
1.73646
1.73644
1.73642
1.7364
1.73639
1.73637
1.73635
1.73633
1.73632
1.7363
1.73628
1.73626
1.73624
1.73623
1.73621
1.73619
1.73617
1.73615
1.73613
1.73611
1.73609
1.73607
1.73605
1.73603
1.736