# vtk DataFile Version 2.0
LBE two cylinders
ASCII
DATASET STRUCTURED_POINTS
DIMENSIONS 400 100 1
ASPECT_RATIO 1 1 1
ORIGIN 0 0 0
POINT_DATA 40000
SCALARS rho double 1
LOOKUP_TABLE default
1.67924
1.73498
1.74902
1.72797
1.72899
1.73799
1.7366
1.7333
1.73477
1.73613
1.73528
1.73487
1.7354
1.73552
1.73526
1.73527
1.7354
1.73537
1.73531
1.73533
1.73535
1.73533
1.73532
1.73532
1.73531
1.7353
1.73529
1.73529
1.73528
1.73527
1.73526
1.73525
1.73524
1.73522
1.73521
1.7352
1.73518
1.73517
1.73515
1.73514
1.73512
1.7351
1.73508
1.73506
1.73504
1.73502
1.735
1.73497
1.73495
1.73493
1.7349
1.73488
1.73485
1.73482
1.7348
1.73477
1.73475
1.73472
1.7347
1.73467
1.73465
1.73463
1.73461
1.73459
1.73457
1.73455
1.73454
1.73453
1.73452
1.73452
1.73452
1.73452
1.73453
1.73454
1.73455
1.73457
1.73459
1.73462
1.73465
1.73469
1.73473
1.73478
1.73483
1.73489
1.73495
1.73501
1.73508
1.73515
1.73523
1.7353
1.73538
1.73546
1.73555
1.73563
1.73572
1.7358
1.73588
1.73597
1.73605
1.73613
1.73621
1.73628
1.73636
1.73643
1.73649
1.73656
1.73662
1.73667
1.73672
1.73677
1.73681
1.73685
1.73689
1.73692
1.73695
1.73697
1.73699
1.737
1.73702
1.73703
1.73703
1.73703
1.73704
1.73703
1.73703
1.73702
1.73701
1.737
1.73699
1.73698
1.73696
1.73694
1.73693
1.73691
1.73689
1.73687
1.73684
1.73682
1.7368
1.73677
1.73675
1.73673
1.7367
1.73668
1.73665
1.73663
1.7366
1.73658
1.73655
1.73652
1.7365
1.73647
1.73645
1.73642
1.73639
1.73637
1.73634
1.73632
1.73629
1.73626
1.73624
1.73621
1.73618
1.73616
1.73613
1.73611
1.73608
1.73605
1.73603
1.736
1.73597
1.73594
1.73592
1.73589
1.73586
1.73583
1.7358
1.73577
1.73574
1.73571
1.73568
1.73565
1.73562
1.73559
1.73555
1.73552
1.73548
1.73545
1.73541
1.73538
1.73534
1.7353
1.73526
1.73522
1.73518
1.73514
1.7351
1.73505
1.73501
1.73496
1.73492
1.73487
1.73482
1.73477
1.73472
1.73467
1.73462
1.73457
1.73452
1.73446
1.73441
1.73436
1.7343
1.73424
1.73419
1.73413
1.73408
1.73402
1.73396
1.73391
1.73385
1.7338
1.73374
1.73369
1.73364
1.73359
1.73354
1.73349
1.73344
1.7334
1.73335
1.73331
1.73328
1.73324
1.73321
1.73318
1.73316
1.73314
1.73312
1.73311
1.7331
1.7331
1.7331
1.73311
1.73313
1.73314
1.73317
1.7332
1.73324
1.73329
1.73334
1.7334
1.73347
1.73355
1.73363
1.73372
1.73382
1.73393
1.73405
1.73417
1.73431
1.73445
1.7346
1.73476
1.73493
1.73511
1.73529
1.73549
1.73569
1.7359
1.73612
1.73634
1.73657
1.7368
1.73704
1.73729
1.73754
1.73779
1.73805
1.7383
1.73856
1.73882
1.73908
1.73934
1.73959
1.73984
1.74009
1.74033
1.74056
1.74079
1.741
1.74121
1.74141
1.7416
1.74177
1.74193
1.74208
1.74221
1.74233
1.74243
1.74252
1.74259
1.74264
1.74267
1.74269
1.74269
1.74267
1.74264
1.74259
1.74252
1.74243
1.74233
1.74222
1.74208
1.74194
1.74178
1.74161
1.74143
1.74124
1.74104
1.74083
1.74061
1.74039
1.74016
1.73993
1.73969
1.73946
1.73922
1.73898
1.73874
1.7385
1.73827
1.73804
1.73781
1.73759
1.73738
1.73717
1.73697
1.73677
1.73659
1.73641
1.73625
1.73609
1.73595
1.73581
1.73569
1.73558
1.73549
1.7354
1.73533
1.73527
1.73523
1.7352
1.73518
1.73518
1.73519
1.73522
1.73527
1.73533
1.73541
1.73551
1.73563
1.73576
1.73591
1.73608
1.73628
1.73649
1.73673
1.73699
1.73727
1.73758
1.73791
1.73827
1.73866
1.73907
1.73951
1.73999
1.74049
1.74102
1.74162
1.74224
1.74284
1.74357
1.74439
1.74505
1.74582
1.74704
1.7479
1.74837
1.75017
1.75208
1.75154
1.75316
1.759
1.75748
1.75417
1.76962
1.77656
1.74801
1.78365
1.69888
1.72224
1.73717
1.73097
1.73147
1.73485
1.73505
1.73407
1.73461
1.73519
1.73504
1.73493
1.73513
1.73522
1.73517
1.73518
1.73523
1.73524
1.73523
1.73524
1.73525
1.73525
1.73525
1.73525
1.73525
1.73524
1.73524
1.73523
1.73523
1.73522
1.73521
1.7352
1.7352
1.73518
1.73517
1.73516
1.73515
1.73514
1.73512
1.73511
1.73509
1.73507
1.73505
1.73504
1.73502
1.73499
1.73497
1.73495
1.73493
1.7349
1.73488
1.73486
1.73483
1.73481
1.73478
1.73475
1.73473
1.7347
1.73468
1.73466
1.73463
1.73461
1.73459
1.73457
1.73456
1.73454
1.73453
1.73452
1.73451
1.73451
1.73451
1.73451
1.73452
1.73453
1.73454
1.73456
1.73459
1.73462
1.73465
1.73469
1.73473
1.73478
1.73483
1.73489
1.73495
1.73501
1.73508
1.73515
1.73523
1.73531
1.73539
1.73547
1.73555
1.73563
1.73572
1.7358
1.73589
1.73597
1.73605
1.73613
1.73621
1.73629
1.73636
1.73643
1.73649
1.73656
1.73662
1.73667
1.73672
1.73677
1.73681
1.73685
1.73688
1.73691
1.73694
1.73696
1.73698
1.737
1.73701
1.73702
1.73703
1.73703
1.73703
1.73703
1.73702
1.73701
1.73701
1.73699
1.73698
1.73697
1.73695
1.73694
1.73692
1.7369
1.73688
1.73686
1.73684
1.73681
1.73679
1.73677
1.73674
1.73672
1.73669
1.73667
1.73664
1.73662
1.73659
1.73657
1.73654
1.73652
1.73649
1.73646
1.73644
1.73641
1.73639
1.73636
1.73634
1.73631
1.73628
1.73626
1.73623
1.7362
1.73618
1.73615
1.73613
1.7361
1.73607
1.73605
1.73602
1.73599
1.73597
1.73594
1.73591
1.73588
1.73585
1.73582
1.7358
1.73577
1.73574
1.73571
1.73568
1.73564
1.73561
1.73558
1.73555
1.73551
1.73548
1.73544
1.73541
1.73537
1.73533
1.7353
1.73526
1.73522
1.73518
1.73513
1.73509
1.73505
1.735
1.73496
1.73491
1.73487
1.73482
1.73477
1.73472
1.73467
1.73462
1.73456
1.73451
1.73446
1.7344
1.73435
1.73429
1.73424
1.73418
1.73413
1.73407
1.73401
1.73396
1.7339
1.73385
1.73379
1.73374
1.73368
1.73363
1.73358
1.73353
1.73348
1.73344
1.73339
1.73335
1.73331
1.73327
1.73324
1.73321
1.73318
1.73316
1.73314
1.73312
1.73311
1.7331
1.7331
1.7331
1.73311
1.73313
1.73315
1.73317
1.73321
1.73325
1.73329
1.73335
1.73341
1.73348
1.73355
1.73364
1.73373
1.73383
1.73394
1.73406
1.73419
1.73432
1.73446
1.73462
1.73478
1.73495
1.73512
1.73531
1.73551
1.73571
1.73592
1.73613
1.73636
1.73659
1.73682
1.73706
1.73731
1.73756
1.73781
1.73807
1.73832
1.73858
1.73884
1.7391
1.73935
1.73961
1.73986
1.7401
1.74034
1.74057
1.7408
1.74102
1.74122
1.74142
1.74161
1.74178
1.74194
1.74208
1.74221
1.74233
1.74243
1.74251
1.74258
1.74263
1.74266
1.74268
1.74268
1.74266
1.74262
1.74257
1.7425
1.74241
1.74231
1.74219
1.74206
1.74192
1.74176
1.74159
1.74141
1.74121
1.74101
1.7408
1.74059
1.74036
1.74014
1.7399
1.73967
1.73943
1.73919
1.73895
1.73871
1.73848
1.73825
1.73802
1.73779
1.73757
1.73736
1.73715
1.73695
1.73676
1.73658
1.7364
1.73624
1.73608
1.73594
1.73581
1.73569
1.73558
1.73548
1.7354
1.73533
1.73527
1.73523
1.7352
1.73519
1.73519
1.7352
1.73523
1.73528
1.73534
1.73543
1.73552
1.73564
1.73578
1.73593
1.7361
1.7363
1.73652
1.73675
1.73701
1.7373
1.73761
1.73794
1.7383
1.73869
1.73911
1.73956
1.74003
1.74054
1.74109
1.74167
1.74227
1.74294
1.74365
1.74436
1.74515
1.74606
1.74693
1.74781
1.74896
1.75025
1.75119
1.75245
1.75469
1.75649
1.75686
1.76042
1.76656
1.76749
1.76414
1.78858
1.751
1.72322
1.71346
1.73652
1.73924
1.73
1.73177
1.7363
1.73509
1.73356
1.7347
1.73538
1.73486
1.73475
1.73512
1.73516
1.73504
1.73508
1.73517
1.73516
1.73514
1.73517
1.73518
1.73518
1.73518
1.73518
1.73518
1.73518
1.73518
1.73517
1.73517
1.73516
1.73515
1.73515
1.73514
1.73513
1.73512
1.7351
1.73509
1.73508
1.73506
1.73504
1.73503
1.73501
1.73499
1.73497
1.73495
1.73493
1.73491
1.73488
1.73486
1.73483
1.73481
1.73479
1.73476
1.73474
1.73471
1.73469
1.73466
1.73464
1.73462
1.73459
1.73457
1.73456
1.73454
1.73453
1.73451
1.7345
1.7345
1.73449
1.73449
1.7345
1.73451
1.73452
1.73453
1.73455
1.73458
1.73461
1.73464
1.73468
1.73473
1.73477
1.73483
1.73488
1.73494
1.73501
1.73508
1.73515
1.73523
1.7353
1.73539
1.73547
1.73555
1.73564
1.73572
1.73581
1.73589
1.73597
1.73606
1.73614
1.73621
1.73629
1.73636
1.73643
1.7365
1.73656
1.73662
1.73667
1.73672
1.73677
1.73681
1.73685
1.73688
1.73691
1.73694
1.73696
1.73698
1.73699
1.73701
1.73702
1.73702
1.73702
1.73702
1.73702
1.73702
1.73701
1.737
1.73699
1.73698
1.73696
1.73695
1.73693
1.73691
1.73689
1.73687
1.73685
1.73683
1.73681
1.73678
1.73676
1.73674
1.73671
1.73669
1.73666
1.73664
1.73661
1.73659
1.73656
1.73654
1.73651
1.73648
1.73646
1.73643
1.73641
1.73638
1.73635
1.73633
1.7363
1.73628
1.73625
1.73622
1.7362
1.73617
1.73615
1.73612
1.73609
1.73607
1.73604
1.73601
1.73599
1.73596
1.73593
1.7359
1.73588
1.73585
1.73582
1.73579
1.73576
1.73573
1.7357
1.73567
1.73564
1.73561
1.73558
1.73554
1.73551
1.73547
1.73544
1.7354
1.73537
1.73533
1.73529
1.73525
1.73521
1.73517
1.73513
1.73509
1.73504
1.735
1.73495
1.73491
1.73486
1.73481
1.73476
1.73471
1.73466
1.73461
1.73456
1.73451
1.73445
1.7344
1.73434
1.73429
1.73423
1.73418
1.73412
1.73407
1.73401
1.73395
1.7339
1.73384
1.73379
1.73373
1.73368
1.73363
1.73358
1.73353
1.73348
1.73343
1.73339
1.73335
1.73331
1.73327
1.73323
1.7332
1.73318
1.73315
1.73313
1.73312
1.73311
1.7331
1.7331
1.7331
1.73311
1.73312
1.73314
1.73317
1.7332
1.73324
1.73329
1.73335
1.73341
1.73348
1.73355
1.73364
1.73373
1.73383
1.73394
1.73406
1.73419
1.73432
1.73447
1.73462
1.73478
1.73495
1.73513
1.73532
1.73551
1.73572
1.73593
1.73614
1.73637
1.7366
1.73684
1.73708
1.73732
1.73757
1.73783
1.73808
1.73834
1.7386
1.73886
1.73912
1.73937
1.73963
1.73988
1.74012
1.74036
1.7406
1.74082
1.74104
1.74124
1.74144
1.74162
1.7418
1.74196
1.7421
1.74223
1.74234
1.74244
1.74253
1.74259
1.74264
1.74267
1.74269
1.74268
1.74266
1.74262
1.74257
1.74249
1.74241
1.7423
1.74218
1.74205
1.7419
1.74174
1.74157
1.74139
1.7412
1.74099
1.74078
1.74056
1.74034
1.74011
1.73988
1.73964
1.7394
1.73917
1.73893
1.73869
1.73845
1.73822
1.73799
1.73776
1.73755
1.73733
1.73713
1.73693
1.73674
1.73655
1.73638
1.73622
1.73606
1.73592
1.73579
1.73567
1.73556
1.73547
1.73538
1.73531
1.73526
1.73522
1.73519
1.73518
1.73518
1.73519
1.73523
1.73527
1.73534
1.73542
1.73552
1.73564
1.73577
1.73593
1.7361
1.7363
1.73652
1.73676
1.73702
1.7373
1.73761
1.73795
1.73831
1.7387
1.73912
1.73956
1.74004
1.74055
1.74111
1.74166
1.74228
1.74298
1.74365
1.74432
1.74524
1.74612
1.74673
1.74785
1.74936
1.74981
1.75061
1.75373
1.75473
1.75316
1.75885
1.76539
1.75669
1.75981
1.78803
1.77786
1.73369
1.73033
1.73067
1.73331
1.73156
1.73296
1.73468
1.73402
1.73377
1.73459
1.73483
1.73458
1.73469
1.73493
1.73494
1.73491
1.73499
1.73505
1.73504
1.73505
1.73509
1.7351
1.7351
1.73511
1.73512
1.73513
1.73513
1.73513
1.73513
1.73513
1.73512
1.73512
1.73512
1.73511
1.7351
1.73509
1.73508
1.73507
1.73506
1.73505
1.73503
1.73502
1.735
1.73498
1.73497
1.73495
1.73493
1.73491
1.73488
1.73486
1.73484
1.73481
1.73479
1.73477
1.73474
1.73472
1.73469
1.73467
1.73464
1.73462
1.7346
1.73458
1.73456
1.73454
1.73452
1.73451
1.7345
1.73449
1.73448
1.73448
1.73448
1.73448
1.73449
1.7345
1.73452
1.73454
1.73457
1.7346
1.73463
1.73467
1.73471
1.73476
1.73482
1.73488
1.73494
1.735
1.73507
1.73515
1.73522
1.7353
1.73538
1.73547
1.73555
1.73564
1.73572
1.73581
1.73589
1.73598
1.73606
1.73614
1.73622
1.73629
1.73637
1.73644
1.7365
1.73656
1.73662
1.73668
1.73673
1.73677
1.73681
1.73685
1.73689
1.73691
1.73694
1.73696
1.73698
1.73699
1.73701
1.73701
1.73702
1.73702
1.73702
1.73702
1.73701
1.737
1.73699
1.73698
1.73697
1.73696
1.73694
1.73692
1.7369
1.73688
1.73686
1.73684
1.73682
1.7368
1.73678
1.73675
1.73673
1.7367
1.73668
1.73666
1.73663
1.7366
1.73658
1.73655
1.73653
1.7365
1.73648
1.73645
1.73643
1.7364
1.73637
1.73635
1.73632
1.7363
1.73627
1.73624
1.73622
1.73619
1.73617
1.73614
1.73611
1.73609
1.73606
1.73604
1.73601
1.73598
1.73595
1.73593
1.7359
1.73587
1.73584
1.73582
1.73579
1.73576
1.73573
1.7357
1.73567
1.73564
1.7356
1.73557
1.73554
1.7355
1.73547
1.73543
1.7354
1.73536
1.73533
1.73529
1.73525
1.73521
1.73517
1.73513
1.73508
1.73504
1.735
1.73495
1.7349
1.73486
1.73481
1.73476
1.73471
1.73466
1.73461
1.73455
1.7345
1.73445
1.73439
1.73434
1.73428
1.73423
1.73417
1.73412
1.73406
1.734
1.73395
1.73389
1.73384
1.73378
1.73373
1.73367
1.73362
1.73357
1.73352
1.73347
1.73342
1.73338
1.73334
1.7333
1.73326
1.73323
1.7332
1.73317
1.73314
1.73312
1.73311
1.7331
1.73309
1.73309
1.73309
1.7331
1.73312
1.73314
1.73316
1.7332
1.73324
1.73328
1.73334
1.7334
1.73347
1.73355
1.73363
1.73372
1.73383
1.73394
1.73406
1.73418
1.73432
1.73446
1.73462
1.73478
1.73495
1.73513
1.73532
1.73551
1.73572
1.73593
1.73615
1.73637
1.73661
1.73684
1.73709
1.73733
1.73759
1.73784
1.7381
1.73836
1.73862
1.73888
1.73914
1.7394
1.73965
1.7399
1.74015
1.74039
1.74062
1.74085
1.74106
1.74127
1.74147
1.74165
1.74182
1.74198
1.74213
1.74226
1.74237
1.74247
1.74255
1.74262
1.74266
1.74269
1.7427
1.7427
1.74268
1.74264
1.74258
1.7425
1.74241
1.74231
1.74219
1.74205
1.7419
1.74174
1.74156
1.74138
1.74118
1.74098
1.74077
1.74055
1.74032
1.74009
1.73986
1.73962
1.73938
1.73914
1.7389
1.73866
1.73842
1.73819
1.73796
1.73773
1.73751
1.7373
1.73709
1.73689
1.7367
1.73652
1.73635
1.73619
1.73603
1.73589
1.73576
1.73564
1.73553
1.73544
1.73536
1.73529
1.73523
1.73519
1.73516
1.73515
1.73515
1.73517
1.7352
1.73525
1.73532
1.7354
1.7355
1.73562
1.73575
1.73591
1.73608
1.73628
1.7365
1.73673
1.737
1.73728
1.73759
1.73793
1.73829
1.73868
1.73909
1.73954
1.74002
1.74053
1.74107
1.74165
1.74227
1.74291
1.74361
1.74436
1.74512
1.74596
1.7469
1.7478
1.74878
1.74999
1.75115
1.75231
1.75398
1.75556
1.75688
1.75952
1.76231
1.76336
1.7693
1.76775
1.72228
1.73457
1.74017
1.72862
1.72892
1.73666
1.73502
1.73201
1.734
1.73541
1.73436
1.73412
1.73487
1.73497
1.73469
1.7348
1.73499
1.73497
1.73493
1.735
1.73504
1.73503
1.73504
1.73506
1.73507
1.73507
1.73508
1.73509
1.73509
1.73509
1.73509
1.73508
1.73508
1.73508
1.73507
1.73506
1.73505
1.73504
1.73503
1.73502
1.73501
1.73499
1.73498
1.73496
1.73494
1.73493
1.73491
1.73489
1.73486
1.73484
1.73482
1.7348
1.73477
1.73475
1.73472
1.7347
1.73467
1.73465
1.73463
1.7346
1.73458
1.73456
1.73454
1.73452
1.73451
1.73449
1.73448
1.73447
1.73447
1.73446
1.73446
1.73447
1.73448
1.73449
1.7345
1.73453
1.73455
1.73458
1.73462
1.73466
1.7347
1.73475
1.73481
1.73487
1.73493
1.735
1.73507
1.73514
1.73522
1.7353
1.73538
1.73547
1.73555
1.73564
1.73572
1.73581
1.7359
1.73598
1.73606
1.73615
1.73623
1.7363
1.73637
1.73644
1.73651
1.73657
1.73663
1.73668
1.73673
1.73678
1.73682
1.73686
1.73689
1.73692
1.73694
1.73697
1.73698
1.737
1.73701
1.73701
1.73702
1.73702
1.73702
1.73702
1.73701
1.737
1.73699
1.73698
1.73697
1.73695
1.73693
1.73692
1.7369
1.73688
1.73686
1.73684
1.73682
1.73679
1.73677
1.73675
1.73672
1.7367
1.73667
1.73665
1.73662
1.7366
1.73657
1.73655
1.73652
1.7365
1.73647
1.73644
1.73642
1.73639
1.73637
1.73634
1.73632
1.73629
1.73626
1.73624
1.73621
1.73619
1.73616
1.73613
1.73611
1.73608
1.73606
1.73603
1.736
1.73598
1.73595
1.73592
1.73589
1.73587
1.73584
1.73581
1.73578
1.73575
1.73572
1.73569
1.73566
1.73563
1.7356
1.73557
1.73553
1.7355
1.73547
1.73543
1.7354
1.73536
1.73532
1.73528
1.73524
1.7352
1.73516
1.73512
1.73508
1.73504
1.73499
1.73495
1.7349
1.73485
1.7348
1.73476
1.73471
1.73465
1.7346
1.73455
1.7345
1.73444
1.73439
1.73433
1.73428
1.73422
1.73417
1.73411
1.73405
1.734
1.73394
1.73388
1.73383
1.73377
1.73372
1.73366
1.73361
1.73356
1.73351
1.73346
1.73342
1.73337
1.73333
1.73329
1.73325
1.73322
1.73318
1.73316
1.73313
1.73311
1.7331
1.73308
1.73308
1.73308
1.73308
1.73309
1.7331
1.73312
1.73315
1.73318
1.73322
1.73327
1.73332
1.73338
1.73345
1.73353
1.73362
1.73371
1.73381
1.73392
1.73404
1.73417
1.73431
1.73445
1.73461
1.73477
1.73494
1.73512
1.73531
1.73551
1.73571
1.73593
1.73615
1.73637
1.7366
1.73684
1.73709
1.73734
1.73759
1.73785
1.73811
1.73837
1.73863
1.73889
1.73916
1.73941
1.73967
1.73992
1.74017
1.74042
1.74065
1.74088
1.7411
1.74131
1.7415
1.74169
1.74186
1.74202
1.74217
1.74229
1.74241
1.74251
1.74259
1.74265
1.7427
1.74272
1.74274
1.74273
1.7427
1.74266
1.7426
1.74252
1.74243
1.74232
1.7422
1.74206
1.74191
1.74174
1.74156
1.74137
1.74118
1.74097
1.74075
1.74053
1.7403
1.74007
1.73983
1.73959
1.73935
1.73911
1.73887
1.73863
1.73839
1.73816
1.73792
1.7377
1.73748
1.73726
1.73706
1.73686
1.73667
1.73648
1.73631
1.73615
1.736
1.73585
1.73572
1.7356
1.7355
1.7354
1.73532
1.73525
1.7352
1.73516
1.73513
1.73512
1.73512
1.73514
1.73517
1.73522
1.73528
1.73536
1.73546
1.73558
1.73572
1.73587
1.73604
1.73624
1.73646
1.73669
1.73695
1.73724
1.73754
1.73788
1.73824
1.73863
1.73904
1.73948
1.73996
1.74046
1.74099
1.74159
1.7422
1.7428
1.74353
1.74431
1.74497
1.74577
1.7469
1.74767
1.74825
1.74994
1.75143
1.7511
1.75286
1.75718
1.75598
1.7538
1.76371
1.76761
1.75555
1.76128
1.73478
1.73243
1.73078
1.73304
1.73554
1.73316
1.73232
1.73467
1.73494
1.73381
1.73417
1.73491
1.73472
1.73451
1.73477
1.73492
1.73483
1.73485
1.73495
1.73497
1.73496
1.73498
1.73501
1.73502
1.73502
1.73504
1.73505
1.73505
1.73505
1.73505
1.73505
1.73505
1.73505
1.73505
1.73504
1.73504
1.73503
1.73502
1.73501
1.735
1.73499
1.73497
1.73496
1.73494
1.73492
1.73491
1.73489
1.73487
1.73485
1.73482
1.7348
1.73478
1.73475
1.73473
1.73471
1.73468
1.73466
1.73463
1.73461
1.73459
1.73456
1.73454
1.73452
1.73451
1.73449
1.73448
1.73446
1.73445
1.73445
1.73445
1.73445
1.73445
1.73446
1.73447
1.73449
1.73451
1.73454
1.73457
1.7346
1.73464
1.73469
1.73474
1.73479
1.73485
1.73492
1.73499
1.73506
1.73513
1.73521
1.73529
1.73538
1.73546
1.73555
1.73564
1.73573
1.73581
1.7359
1.73599
1.73607
1.73615
1.73623
1.73631
1.73638
1.73645
1.73652
1.73658
1.73664
1.73669
1.73674
1.73679
1.73683
1.73686
1.7369
1.73692
1.73695
1.73697
1.73699
1.737
1.73701
1.73702
1.73702
1.73702
1.73702
1.73701
1.73701
1.737
1.73699
1.73698
1.73696
1.73695
1.73693
1.73691
1.73689
1.73687
1.73685
1.73683
1.73681
1.73679
1.73676
1.73674
1.73672
1.73669
1.73667
1.73664
1.73662
1.73659
1.73657
1.73654
1.73651
1.73649
1.73646
1.73644
1.73641
1.73639
1.73636
1.73634
1.73631
1.73628
1.73626
1.73623
1.73621
1.73618
1.73616
1.73613
1.7361
1.73608
1.73605
1.73602
1.736
1.73597
1.73594
1.73592
1.73589
1.73586
1.73583
1.73581
1.73578
1.73575
1.73572
1.73569
1.73566
1.73563
1.7356
1.73556
1.73553
1.7355
1.73546
1.73543
1.73539
1.73536
1.73532
1.73528
1.73524
1.7352
1.73516
1.73512
1.73508
1.73503
1.73499
1.73494
1.7349
1.73485
1.7348
1.73475
1.7347
1.73465
1.7346
1.73455
1.73449
1.73444
1.73439
1.73433
1.73427
1.73422
1.73416
1.7341
1.73405
1.73399
1.73393
1.73388
1.73382
1.73377
1.73371
1.73366
1.7336
1.73355
1.7335
1.73345
1.73341
1.73336
1.73332
1.73328
1.73324
1.7332
1.73317
1.73314
1.73312
1.7331
1.73308
1.73307
1.73306
1.73306
1.73306
1.73307
1.73308
1.7331
1.73313
1.73316
1.7332
1.73325
1.7333
1.73337
1.73343
1.73351
1.7336
1.73369
1.73379
1.7339
1.73402
1.73415
1.73429
1.73443
1.73459
1.73475
1.73492
1.73511
1.7353
1.73549
1.7357
1.73591
1.73613
1.73636
1.7366
1.73684
1.73708
1.73734
1.73759
1.73785
1.73811
1.73838
1.73864
1.73891
1.73917
1.73943
1.73969
1.73995
1.7402
1.74044
1.74068
1.74091
1.74113
1.74134
1.74154
1.74173
1.7419
1.74206
1.74221
1.74234
1.74245
1.74255
1.74263
1.74269
1.74274
1.74277
1.74277
1.74277
1.74274
1.74269
1.74263
1.74255
1.74245
1.74234
1.74221
1.74207
1.74192
1.74175
1.74157
1.74137
1.74117
1.74096
1.74074
1.74052
1.74029
1.74005
1.73981
1.73957
1.73932
1.73908
1.73884
1.73859
1.73835
1.73812
1.73789
1.73766
1.73744
1.73722
1.73701
1.73681
1.73662
1.73644
1.73627
1.7361
1.73595
1.73581
1.73568
1.73556
1.73545
1.73536
1.73528
1.73521
1.73515
1.73511
1.73508
1.73507
1.73507
1.73509
1.73512
1.73517
1.73523
1.73532
1.73541
1.73553
1.73566
1.73582
1.73599
1.73618
1.7364
1.73663
1.73689
1.73717
1.73748
1.73781
1.73816
1.73854
1.73896
1.73939
1.73986
1.74037
1.7409
1.74146
1.74207
1.74272
1.74337
1.74409
1.7449
1.74565
1.74642
1.74749
1.74844
1.74912
1.75044
1.75205
1.75246
1.75335
1.75643
1.75753
1.75698
1.76
1.76097
1.76157
1.73782
1.73232
1.73021
1.73573
1.73514
1.73161
1.73372
1.7355
1.73396
1.73366
1.73481
1.73484
1.73437
1.7346
1.7349
1.7348
1.73474
1.73488
1.73493
1.7349
1.73492
1.73497
1.73498
1.73498
1.735
1.73501
1.73502
1.73502
1.73503
1.73503
1.73503
1.73503
1.73503
1.73502
1.73502
1.73501
1.73501
1.735
1.73499
1.73498
1.73497
1.73495
1.73494
1.73492
1.73491
1.73489
1.73487
1.73485
1.73483
1.73481
1.73479
1.73476
1.73474
1.73472
1.73469
1.73467
1.73464
1.73462
1.7346
1.73457
1.73455
1.73453
1.73451
1.73449
1.73447
1.73446
1.73445
1.73444
1.73443
1.73443
1.73443
1.73443
1.73444
1.73446
1.73447
1.73449
1.73452
1.73455
1.73459
1.73463
1.73468
1.73473
1.73478
1.73484
1.73491
1.73498
1.73505
1.73513
1.73521
1.73529
1.73537
1.73546
1.73555
1.73564
1.73573
1.73582
1.7359
1.73599
1.73608
1.73616
1.73624
1.73632
1.73639
1.73646
1.73653
1.73659
1.73665
1.7367
1.73675
1.73679
1.73684
1.73687
1.7369
1.73693
1.73695
1.73697
1.73699
1.737
1.73701
1.73702
1.73702
1.73702
1.73702
1.73701
1.73701
1.737
1.73699
1.73697
1.73696
1.73694
1.73693
1.73691
1.73689
1.73687
1.73685
1.73683
1.7368
1.73678
1.73676
1.73673
1.73671
1.73668
1.73666
1.73663
1.73661
1.73658
1.73656
1.73653
1.73651
1.73648
1.73646
1.73643
1.73641
1.73638
1.73635
1.73633
1.7363
1.73628
1.73625
1.73623
1.7362
1.73618
1.73615
1.73612
1.7361
1.73607
1.73605
1.73602
1.73599
1.73597
1.73594
1.73591
1.73589
1.73586
1.73583
1.7358
1.73577
1.73574
1.73572
1.73569
1.73566
1.73562
1.73559
1.73556
1.73553
1.73549
1.73546
1.73543
1.73539
1.73535
1.73532
1.73528
1.73524
1.7352
1.73516
1.73512
1.73507
1.73503
1.73499
1.73494
1.7349
1.73485
1.7348
1.73475
1.7347
1.73465
1.7346
1.73454
1.73449
1.73444
1.73438
1.73433
1.73427
1.73421
1.73416
1.7341
1.73404
1.73399
1.73393
1.73387
1.73381
1.73376
1.7337
1.73365
1.73359
1.73354
1.73349
1.73344
1.73339
1.73335
1.7333
1.73326
1.73323
1.73319
1.73316
1.73313
1.7331
1.73308
1.73306
1.73305
1.73304
1.73304
1.73304
1.73305
1.73306
1.73308
1.73311
1.73314
1.73318
1.73323
1.73328
1.73334
1.73341
1.73349
1.73357
1.73367
1.73377
1.73388
1.734
1.73413
1.73426
1.73441
1.73456
1.73473
1.7349
1.73508
1.73527
1.73547
1.73568
1.73589
1.73612
1.73635
1.73658
1.73683
1.73707
1.73733
1.73759
1.73785
1.73811
1.73838
1.73865
1.73891
1.73918
1.73945
1.73971
1.73997
1.74022
1.74047
1.74071
1.74094
1.74117
1.74138
1.74158
1.74177
1.74195
1.74211
1.74226
1.74239
1.7425
1.7426
1.74268
1.74274
1.74279
1.74281
1.74282
1.74281
1.74278
1.74273
1.74267
1.74258
1.74248
1.74237
1.74224
1.74209
1.74193
1.74176
1.74157
1.74138
1.74117
1.74096
1.74073
1.74051
1.74027
1.74003
1.73979
1.73954
1.7393
1.73905
1.7388
1.73856
1.73832
1.73808
1.73784
1.73761
1.73739
1.73718
1.73697
1.73677
1.73657
1.73639
1.73622
1.73605
1.7359
1.73576
1.73563
1.73551
1.7354
1.73531
1.73522
1.73516
1.7351
1.73506
1.73503
1.73502
1.73502
1.73503
1.73507
1.73511
1.73518
1.73526
1.73535
1.73547
1.7356
1.73575
1.73592
1.73611
1.73632
1.73655
1.73681
1.73709
1.73739
1.73771
1.73806
1.73844
1.73885
1.73928
1.73974
1.74024
1.74077
1.74131
1.7419
1.74257
1.7432
1.74384
1.74468
1.7455
1.74608
1.74703
1.74834
1.74882
1.74935
1.7516
1.7528
1.75165
1.75407
1.75836
1.75545
1.75468
1.76193
1.7596
1.73202
1.73425
1.73568
1.73323
1.73216
1.73483
1.73524
1.73332
1.73379
1.73511
1.73464
1.73413
1.73466
1.73493
1.73467
1.73467
1.73488
1.7349
1.73483
1.73489
1.73495
1.73494
1.73494
1.73497
1.73499
1.73499
1.73499
1.735
1.73501
1.73501
1.73501
1.73501
1.73501
1.735
1.735
1.735
1.73499
1.73498
1.73497
1.73496
1.73495
1.73494
1.73492
1.73491
1.73489
1.73487
1.73486
1.73484
1.73482
1.73479
1.73477
1.73475
1.73473
1.7347
1.73468
1.73465
1.73463
1.73461
1.73458
1.73456
1.73454
1.73452
1.7345
1.73448
1.73446
1.73445
1.73444
1.73443
1.73442
1.73442
1.73442
1.73442
1.73443
1.73444
1.73446
1.73448
1.73451
1.73454
1.73458
1.73462
1.73466
1.73472
1.73477
1.73483
1.7349
1.73497
1.73504
1.73512
1.7352
1.73529
1.73537
1.73546
1.73555
1.73564
1.73573
1.73582
1.73591
1.736
1.73608
1.73616
1.73625
1.73632
1.7364
1.73647
1.73653
1.7366
1.73666
1.73671
1.73676
1.7368
1.73684
1.73688
1.73691
1.73694
1.73696
1.73698
1.73699
1.73701
1.73701
1.73702
1.73702
1.73702
1.73702
1.73701
1.737
1.737
1.73698
1.73697
1.73696
1.73694
1.73692
1.7369
1.73688
1.73686
1.73684
1.73682
1.7368
1.73677
1.73675
1.73673
1.7367
1.73668
1.73665
1.73663
1.7366
1.73658
1.73655
1.73653
1.7365
1.73648
1.73645
1.73642
1.7364
1.73637
1.73635
1.73632
1.7363
1.73627
1.73625
1.73622
1.7362
1.73617
1.73614
1.73612
1.73609
1.73607
1.73604
1.73601
1.73599
1.73596
1.73594
1.73591
1.73588
1.73585
1.73583
1.7358
1.73577
1.73574
1.73571
1.73568
1.73565
1.73562
1.73559
1.73556
1.73553
1.73549
1.73546
1.73542
1.73539
1.73535
1.73531
1.73528
1.73524
1.7352
1.73516
1.73512
1.73507
1.73503
1.73498
1.73494
1.73489
1.73485
1.7348
1.73475
1.7347
1.73465
1.73459
1.73454
1.73449
1.73443
1.73438
1.73432
1.73427
1.73421
1.73415
1.73409
1.73404
1.73398
1.73392
1.73386
1.73381
1.73375
1.73369
1.73364
1.73359
1.73353
1.73348
1.73343
1.73338
1.73334
1.73329
1.73325
1.73321
1.73317
1.73314
1.73311
1.73309
1.73306
1.73305
1.73303
1.73302
1.73302
1.73302
1.73303
1.73304
1.73306
1.73308
1.73312
1.73315
1.7332
1.73325
1.73331
1.73338
1.73346
1.73354
1.73363
1.73374
1.73385
1.73397
1.73409
1.73423
1.73438
1.73453
1.7347
1.73487
1.73505
1.73524
1.73544
1.73565
1.73587
1.73609
1.73632
1.73656
1.73681
1.73706
1.73731
1.73757
1.73784
1.73811
1.73838
1.73865
1.73892
1.73919
1.73946
1.73972
1.73999
1.74024
1.7405
1.74074
1.74098
1.7412
1.74142
1.74162
1.74182
1.74199
1.74216
1.74231
1.74244
1.74256
1.74265
1.74273
1.7428
1.74284
1.74286
1.74287
1.74286
1.74283
1.74277
1.74271
1.74262
1.74252
1.7424
1.74226
1.74211
1.74195
1.74177
1.74158
1.74138
1.74117
1.74095
1.74072
1.74049
1.74025
1.74001
1.73976
1.73951
1.73926
1.73901
1.73877
1.73852
1.73827
1.73803
1.7378
1.73757
1.73734
1.73712
1.73691
1.73671
1.73652
1.73633
1.73616
1.736
1.73584
1.7357
1.73557
1.73545
1.73534
1.73525
1.73517
1.7351
1.73504
1.735
1.73497
1.73496
1.73496
1.73497
1.735
1.73505
1.73511
1.73519
1.73528
1.7354
1.73553
1.73567
1.73584
1.73603
1.73624
1.73646
1.73671
1.73699
1.73728
1.7376
1.73795
1.73832
1.73871
1.73914
1.7396
1.74007
1.74059
1.74115
1.74171
1.74231
1.743
1.74367
1.7443
1.74513
1.74602
1.7466
1.74741
1.74878
1.7495
1.74969
1.75145
1.75324
1.75263
1.75341
1.75629
1.75607
1.75555
1.75594
1.73273
1.73457
1.73509
1.73299
1.73381
1.73523
1.73395
1.73364
1.73488
1.73477
1.73415
1.73456
1.73492
1.73467
1.73462
1.73485
1.73488
1.7348
1.73485
1.73493
1.73492
1.73492
1.73495
1.73497
1.73497
1.73497
1.73499
1.73499
1.73499
1.735
1.735
1.735
1.73499
1.73499
1.73499
1.73498
1.73498
1.73497
1.73496
1.73495
1.73494
1.73492
1.73491
1.7349
1.73488
1.73486
1.73484
1.73483
1.7348
1.73478
1.73476
1.73474
1.73472
1.73469
1.73467
1.73464
1.73462
1.7346
1.73457
1.73455
1.73453
1.73451
1.73449
1.73447
1.73445
1.73444
1.73442
1.73441
1.73441
1.73441
1.73441
1.73441
1.73442
1.73443
1.73445
1.73447
1.7345
1.73453
1.73456
1.73461
1.73465
1.73471
1.73476
1.73482
1.73489
1.73496
1.73504
1.73511
1.7352
1.73528
1.73537
1.73546
1.73555
1.73564
1.73573
1.73582
1.73591
1.736
1.73609
1.73617
1.73625
1.73633
1.7364
1.73648
1.73654
1.7366
1.73666
1.73672
1.73676
1.73681
1.73685
1.73688
1.73691
1.73694
1.73696
1.73698
1.737
1.73701
1.73702
1.73702
1.73702
1.73702
1.73702
1.73701
1.737
1.73699
1.73698
1.73697
1.73695
1.73693
1.73692
1.7369
1.73688
1.73686
1.73684
1.73681
1.73679
1.73677
1.73674
1.73672
1.7367
1.73667
1.73665
1.73662
1.7366
1.73657
1.73655
1.73652
1.73649
1.73647
1.73644
1.73642
1.73639
1.73637
1.73634
1.73632
1.73629
1.73627
1.73624
1.73621
1.73619
1.73616
1.73614
1.73611
1.73609
1.73606
1.73604
1.73601
1.73598
1.73596
1.73593
1.7359
1.73588
1.73585
1.73582
1.73579
1.73577
1.73574
1.73571
1.73568
1.73565
1.73562
1.73559
1.73556
1.73552
1.73549
1.73546
1.73542
1.73539
1.73535
1.73531
1.73527
1.73524
1.7352
1.73516
1.73511
1.73507
1.73503
1.73498
1.73494
1.73489
1.73484
1.7348
1.73475
1.7347
1.73464
1.73459
1.73454
1.73448
1.73443
1.73437
1.73432
1.73426
1.73421
1.73415
1.73409
1.73403
1.73397
1.73392
1.73386
1.7338
1.73374
1.73369
1.73363
1.73358
1.73352
1.73347
1.73342
1.73337
1.73332
1.73328
1.73324
1.7332
1.73316
1.73312
1.73309
1.73307
1.73304
1.73302
1.73301
1.733
1.733
1.733
1.733
1.73301
1.73303
1.73306
1.73309
1.73312
1.73317
1.73322
1.73328
1.73335
1.73342
1.73351
1.7336
1.7337
1.73381
1.73393
1.73406
1.7342
1.73434
1.7345
1.73466
1.73484
1.73502
1.73521
1.73541
1.73562
1.73584
1.73606
1.7363
1.73654
1.73678
1.73703
1.73729
1.73756
1.73782
1.73809
1.73837
1.73864
1.73892
1.73919
1.73946
1.73973
1.74
1.74026
1.74052
1.74076
1.741
1.74123
1.74145
1.74166
1.74186
1.74204
1.74221
1.74236
1.74249
1.74261
1.74271
1.74279
1.74285
1.74289
1.74292
1.74292
1.74291
1.74287
1.74282
1.74275
1.74266
1.74255
1.74243
1.74229
1.74213
1.74196
1.74178
1.74159
1.74138
1.74117
1.74094
1.74071
1.74047
1.74023
1.73998
1.73973
1.73948
1.73923
1.73898
1.73872
1.73847
1.73823
1.73798
1.73775
1.73751
1.73729
1.73707
1.73686
1.73665
1.73646
1.73628
1.7361
1.73594
1.73578
1.73564
1.73551
1.73539
1.73528
1.73519
1.7351
1.73503
1.73498
1.73493
1.73491
1.73489
1.73489
1.7349
1.73493
1.73498
1.73504
1.73511
1.73521
1.73532
1.73544
1.73559
1.73575
1.73594
1.73614
1.73636
1.73661
1.73687
1.73716
1.73748
1.73782
1.73818
1.73857
1.73898
1.73943
1.7399
1.74039
1.74094
1.74151
1.74206
1.7427
1.74343
1.74404
1.74468
1.74563
1.74642
1.74684
1.74788
1.74926
1.74943
1.74984
1.75213
1.75272
1.75158
1.75418
1.75577
1.75285
1.75412
1.73571
1.73394
1.73304
1.73484
1.73527
1.73354
1.73378
1.73522
1.7347
1.73395
1.73464
1.73503
1.73458
1.73455
1.7349
1.73489
1.73475
1.73484
1.73494
1.7349
1.73489
1.73494
1.73496
1.73495
1.73496
1.73498
1.73498
1.73498
1.73499
1.73499
1.73499
1.73499
1.73499
1.73498
1.73498
1.73497
1.73497
1.73496
1.73495
1.73494
1.73493
1.73492
1.7349
1.73489
1.73487
1.73485
1.73484
1.73482
1.7348
1.73478
1.73475
1.73473
1.73471
1.73469
1.73466
1.73464
1.73461
1.73459
1.73457
1.73454
1.73452
1.7345
1.73448
1.73446
1.73444
1.73443
1.73442
1.73441
1.7344
1.7344
1.7344
1.7344
1.73441
1.73442
1.73444
1.73446
1.73449
1.73452
1.73456
1.7346
1.73465
1.7347
1.73476
1.73482
1.73488
1.73496
1.73503
1.73511
1.73519
1.73528
1.73537
1.73546
1.73555
1.73564
1.73573
1.73582
1.73591
1.736
1.73609
1.73617
1.73626
1.73633
1.73641
1.73648
1.73655
1.73661
1.73667
1.73672
1.73677
1.73681
1.73685
1.73689
1.73692
1.73694
1.73697
1.73698
1.737
1.73701
1.73702
1.73702
1.73702
1.73702
1.73701
1.73701
1.737
1.73699
1.73698
1.73696
1.73695
1.73693
1.73691
1.73689
1.73687
1.73685
1.73683
1.73681
1.73678
1.73676
1.73674
1.73671
1.73669
1.73666
1.73664
1.73661
1.73659
1.73656
1.73654
1.73651
1.73649
1.73646
1.73644
1.73641
1.73639
1.73636
1.73634
1.73631
1.73629
1.73626
1.73623
1.73621
1.73618
1.73616
1.73613
1.73611
1.73608
1.73606
1.73603
1.73601
1.73598
1.73595
1.73593
1.7359
1.73587
1.73585
1.73582
1.73579
1.73576
1.73573
1.73571
1.73568
1.73565
1.73562
1.73558