# vtk DataFile Version 2.0
LBE mesh
ASCII
DATASET STRUCTURED_POINTS
DIMENSIONS 400 100 1
ASPECT_RATIO 1 1 1
ORIGIN 0 0 0
POINT_DATA 40000
SCALARS rho double 1
LOOKUP_TABLE default
1.10667
1.18053
1.20203
1.20641
1.20854
1.2104
1.21174
1.21262
1.2132
1.21363
1.21396
1.21421
1.21441
1.21456
1.21468
1.21477
1.21483
1.21488
1.21492
1.21494
1.21494
1.21494
1.21493
1.21491
1.21488
1.21485
1.21481
1.21476
1.21471
1.21465
1.2146
1.21453
1.21447
1.2144
1.21432
1.21425
1.21417
1.2141
1.21402
1.21394
1.21386
1.21378
1.2137
1.21362
1.21354
1.21346
1.21339
1.21332
1.21325
1.21318
1.21311
1.21305
1.213
1.21295
1.2129
1.21286
1.21282
1.21279
1.21277
1.21275
1.21274
1.21274
1.21275
1.21276
1.21278
1.21281
1.21285
1.2129
1.21296
1.21302
1.21309
1.21318
1.21327
1.21337
1.21348
1.2136
1.21373
1.21387
1.21401
1.21417
1.21433
1.2145
1.21468
1.21487
1.21506
1.21527
1.21548
1.21569
1.21592
1.21615
1.21638
1.21662
1.21687
1.21711
1.21737
1.21762
1.21788
1.21814
1.2184
1.21866
1.21892
1.21918
1.21944
1.21969
1.21994
1.22019
1.22044
1.22068
1.22091
1.22114
1.22136
1.22157
1.22178
1.22198
1.22217
1.22235
1.22252
1.22268
1.22283
1.22297
1.2231
1.22321
1.22332
1.22342
1.22351
1.22359
1.22366
1.22372
1.22378
1.22382
1.22386
1.22389
1.22391
1.22393
1.22394
1.22395
1.22395
1.22395
1.22394
1.22393
1.22392
1.2239
1.22388
1.22386
1.22384
1.22381
1.22379
1.22376
1.22374
1.22371
1.22368
1.22366
1.22363
1.2236
1.22358
1.22355
1.22353
1.22351
1.22348
1.22346
1.22344
1.22342
1.22341
1.22339
1.22337
1.22336
1.22334
1.22333
1.22332
1.22331
1.2233
1.22329
1.22329
1.22328
1.22327
1.22327
1.22326
1.22326
1.22326
1.22325
1.22325
1.22325
1.22325
1.22325
1.22324
1.22324
1.22324
1.22324
1.22323
1.22323
1.22323
1.22322
1.22322
1.22321
1.2232
1.2232
1.22319
1.22318
1.22317
1.22316
1.22315
1.22314
1.22313
1.22312
1.22311
1.22309
1.22308
1.22307
1.22305
1.22304
1.22302
1.22301
1.223
1.22298
1.22297
1.22296
1.22295
1.22294
1.22293
1.22292
1.22292
1.22292
1.22291
1.22292
1.22292
1.22293
1.22294
1.22296
1.22298
1.223
1.22303
1.22306
1.2231
1.22314
1.22319
1.22324
1.2233
1.22337
1.22344
1.22352
1.22361
1.2237
1.22381
1.22392
1.22403
1.22416
1.2243
1.22444
1.22459
1.22475
1.22492
1.2251
1.22528
1.22548
1.22568
1.2259
1.22612
1.22635
1.22659
1.22683
1.22708
1.22735
1.22761
1.22789
1.22817
1.22845
1.22874
1.22904
1.22934
1.22964
1.22995
1.23026
1.23056
1.23087
1.23118
1.23149
1.2318
1.2321
1.2324
1.23269
1.23299
1.23327
1.23355
1.23382
1.23409
1.23435
1.2346
1.23485
1.23508
1.23531
1.23553
1.23574
1.23595
1.23614
1.23633
1.23652
1.23669
1.23686
1.23702
1.23718
1.23733
1.23747
1.23761
1.23775
1.23788
1.23801
1.23813
1.23825
1.23836
1.23848
1.23859
1.23869
1.2388
1.2389
1.239
1.23909
1.23918
1.23927
1.23936
1.23945
1.23953
1.23961
1.23968
1.23976
1.23983
1.2399
1.23997
1.24003
1.24009
1.24015
1.24021
1.24027
1.24033
1.24038
1.24044
1.24049
1.24055
1.24061
1.24067
1.24073
1.24079
1.24086
1.24093
1.24101
1.2411
1.24119
1.24128
1.24139
1.24151
1.24164
1.24177
1.24192
1.24209
1.24227
1.24246
1.24267
1.2429
1.24314
1.24341
1.24369
1.244
1.24433
1.24468
1.24506
1.24546
1.24589
1.24635
1.24684
1.24735
1.2479
1.24848
1.2491
1.24975
1.25044
1.25117
1.25194
1.25276
1.25362
1.25454
1.25551
1.25654
1.25763
1.2588
1.26005
1.26139
1.26283
1.2644
1.26611
1.26798
1.27006
1.2724
1.27506
1.27814
1.28178
1.28622
1.29196
1.29996
1.31123
1.32781
1.3616
1.16951
1.17932
1.19117
1.20091
1.20596
1.20853
1.21013
1.21129
1.21213
1.21276
1.21322
1.21358
1.21386
1.21408
1.21425
1.21439
1.2145
1.21458
1.21464
1.21468
1.21471
1.21473
1.21473
1.21472
1.21471
1.21469
1.21466
1.21462
1.21458
1.21453
1.21448
1.21442
1.21436
1.2143
1.21423
1.21416
1.21409
1.21401
1.21394
1.21386
1.21379
1.21371
1.21363
1.21356
1.21348
1.21341
1.21334
1.21327
1.2132
1.21313
1.21307
1.21301
1.21296
1.21291
1.21287
1.21283
1.21279
1.21277
1.21275
1.21273
1.21272
1.21272
1.21273
1.21275
1.21277
1.2128
1.21284
1.21289
1.21295
1.21302
1.21309
1.21318
1.21327
1.21337
1.21349
1.21361
1.21374
1.21387
1.21402
1.21418
1.21434
1.21451
1.2147
1.21488
1.21508
1.21528
1.21549
1.21571
1.21594
1.21616
1.2164
1.21664
1.21689
1.21713
1.21739
1.21764
1.2179
1.21816
1.21842
1.21868
1.21894
1.21919
1.21945
1.2197
1.21996
1.2202
1.22045
1.22068
1.22092
1.22114
1.22136
1.22158
1.22178
1.22198
1.22216
1.22234
1.22251
1.22267
1.22282
1.22295
1.22308
1.2232
1.22331
1.2234
1.22349
1.22357
1.22364
1.2237
1.22375
1.2238
1.22384
1.22387
1.22389
1.22391
1.22392
1.22392
1.22393
1.22392
1.22392
1.22391
1.22389
1.22388
1.22386
1.22384
1.22382
1.2238
1.22377
1.22375
1.22372
1.2237
1.22367
1.22364
1.22362
1.22359
1.22357
1.22354
1.22352
1.2235
1.22348
1.22345
1.22344
1.22342
1.2234
1.22338
1.22337
1.22335
1.22334
1.22333
1.22332
1.22331
1.2233
1.22329
1.22328
1.22328
1.22327
1.22327
1.22326
1.22326
1.22326
1.22325
1.22325
1.22325
1.22325
1.22324
1.22324
1.22324
1.22324
1.22323
1.22323
1.22323
1.22322
1.22322
1.22321
1.22321
1.2232
1.2232
1.22319
1.22318
1.22317
1.22316
1.22315
1.22314
1.22313
1.22312
1.2231
1.22309
1.22308
1.22306
1.22305
1.22304
1.22302
1.22301
1.223
1.22298
1.22297
1.22296
1.22295
1.22294
1.22293
1.22293
1.22292
1.22292
1.22292
1.22292
1.22293
1.22294
1.22295
1.22297
1.22299
1.22301
1.22304
1.22307
1.22311
1.22315
1.2232
1.22326
1.22332
1.22339
1.22346
1.22354
1.22363
1.22373
1.22383
1.22394
1.22406
1.22419
1.22432
1.22447
1.22462
1.22478
1.22495
1.22513
1.22532
1.22551
1.22572
1.22593
1.22615
1.22638
1.22662
1.22687
1.22712
1.22738
1.22765
1.22792
1.2282
1.22849
1.22878
1.22908
1.22938
1.22968
1.22998
1.23029
1.2306
1.2309
1.23121
1.23152
1.23182
1.23212
1.23242
1.23272
1.23301
1.23329
1.23357
1.23384
1.2341
1.23436
1.23461
1.23485
1.23509
1.23531
1.23553
1.23574
1.23595
1.23614
1.23633
1.23651
1.23668
1.23685
1.23701
1.23717
1.23732
1.23746
1.2376
1.23774
1.23787
1.238
1.23812
1.23824
1.23835
1.23847
1.23858
1.23868
1.23879
1.23889
1.23899
1.23908
1.23918
1.23927
1.23935
1.23944
1.23952
1.2396
1.23968
1.23975
1.23982
1.23989
1.23996
1.24002
1.24009
1.24015
1.24021
1.24026
1.24032
1.24038
1.24043
1.24049
1.24055
1.2406
1.24066
1.24073
1.24079
1.24086
1.24094
1.24101
1.2411
1.24119
1.24129
1.2414
1.24152
1.24165
1.24179
1.24194
1.24211
1.24229
1.24249
1.2427
1.24293
1.24318
1.24345
1.24374
1.24405
1.24438
1.24474
1.24512
1.24553
1.24596
1.24642
1.24691
1.24744
1.24799
1.24858
1.2492
1.24986
1.25055
1.25129
1.25207
1.25289
1.25376
1.25469
1.25567
1.25671
1.25782
1.259
1.26027
1.26163
1.2631
1.2647
1.26645
1.26838
1.27053
1.27296
1.27574
1.27898
1.28287
1.28766
1.29372
1.30162
1.31319
1.33343
1.36537
1.18913
1.18733
1.19451
1.2005
1.20426
1.20696
1.2089
1.21027
1.21125
1.21199
1.21256
1.21301
1.21336
1.21363
1.21386
1.21403
1.21417
1.21428
1.21437
1.21444
1.21449
1.21452
1.21454
1.21455
1.21454
1.21453
1.21451
1.21448
1.21445
1.21441
1.21436
1.21431
1.21426
1.2142
1.21414
1.21407
1.214
1.21393
1.21386
1.21379
1.21372
1.21364
1.21357
1.2135
1.21342
1.21335
1.21328
1.21321
1.21315
1.21309
1.21303
1.21297
1.21292
1.21287
1.21283
1.21279
1.21276
1.21274
1.21272
1.2127
1.2127
1.2127
1.21271
1.21273
1.21275
1.21279
1.21283
1.21288
1.21294
1.21301
1.21309
1.21317
1.21327
1.21337
1.21348
1.21361
1.21374
1.21388
1.21403
1.21418
1.21435
1.21452
1.2147
1.21489
1.21509
1.21529
1.21551
1.21572
1.21595
1.21618
1.21641
1.21666
1.2169
1.21715
1.2174
1.21766
1.21791
1.21817
1.21843
1.21869
1.21895
1.21921
1.21947
1.21972
1.21997
1.22022
1.22046
1.2207
1.22093
1.22115
1.22137
1.22158
1.22179
1.22198
1.22217
1.22234
1.22251
1.22267
1.22281
1.22295
1.22308
1.22319
1.2233
1.22339
1.22348
1.22356
1.22363
1.22369
1.22374
1.22378
1.22382
1.22385
1.22387
1.22389
1.2239
1.22391
1.22391
1.2239
1.2239
1.22389
1.22388
1.22386
1.22384
1.22382
1.2238
1.22378
1.22376
1.22373
1.22371
1.22368
1.22366
1.22363
1.22361
1.22358
1.22356
1.22353
1.22351
1.22349
1.22347
1.22345
1.22343
1.22341
1.22339
1.22338
1.22336
1.22335
1.22334
1.22332
1.22331
1.2233
1.2233
1.22329
1.22328
1.22327
1.22327
1.22326
1.22326
1.22326
1.22325
1.22325
1.22325
1.22325
1.22324
1.22324
1.22324
1.22324
1.22324
1.22323
1.22323
1.22323
1.22322
1.22322
1.22321
1.22321
1.2232
1.22319
1.22319
1.22318
1.22317
1.22316
1.22315
1.22314
1.22313
1.22312
1.2231
1.22309
1.22308
1.22306
1.22305
1.22304
1.22302
1.22301
1.223
1.22298
1.22297
1.22296
1.22295
1.22294
1.22294
1.22293
1.22293
1.22292
1.22293
1.22293
1.22294
1.22294
1.22296
1.22297
1.22299
1.22302
1.22305
1.22308
1.22312
1.22317
1.22322
1.22327
1.22333
1.2234
1.22348
1.22356
1.22365
1.22374
1.22385
1.22396
1.22408
1.22421
1.22435
1.22449
1.22464
1.22481
1.22498
1.22516
1.22534
1.22554
1.22575
1.22596
1.22618
1.22641
1.22665
1.2269
1.22715
1.22742
1.22768
1.22796
1.22824
1.22853
1.22882
1.22911
1.22941
1.22971
1.23002
1.23032
1.23063
1.23094
1.23125
1.23155
1.23185
1.23215
1.23245
1.23274
1.23303
1.23331
1.23359
1.23386
1.23412
1.23438
1.23463
1.23487
1.2351
1.23532
1.23554
1.23575
1.23595
1.23615
1.23633
1.23651
1.23669
1.23685
1.23701
1.23717
1.23732
1.23746
1.2376
1.23773
1.23786
1.23799
1.23811
1.23823
1.23835
1.23846
1.23857
1.23868
1.23878
1.23888
1.23898
1.23908
1.23917
1.23926
1.23935
1.23943
1.23951
1.23959
1.23967
1.23974
1.23981
1.23988
1.23995
1.24002
1.24008
1.24014
1.2402
1.24026
1.24031
1.24037
1.24042
1.24048
1.24054
1.2406
1.24066
1.24072
1.24079
1.24085
1.24093
1.24101
1.2411
1.24119
1.24129
1.2414
1.24152
1.24165
1.24179
1.24195
1.24212
1.2423
1.2425
1.24272
1.24295
1.2432
1.24347
1.24376
1.24407
1.24441
1.24477
1.24515
1.24556
1.246
1.24647
1.24696
1.24749
1.24804
1.24863
1.24926
1.24992
1.25062
1.25136
1.25215
1.25297
1.25385
1.25478
1.25577
1.25681
1.25793
1.25912
1.2604
1.26177
1.26325
1.26486
1.26662
1.26857
1.27073
1.27318
1.27597
1.27921
1.28305
1.28769
1.29351
1.30105
1.31054
1.32084
1.33053
1.19716
1.19621
1.19847
1.20118
1.20415
1.20653
1.20828
1.20959
1.21061
1.21141
1.21203
1.21253
1.21292
1.21324
1.2135
1.21371
1.21388
1.21401
1.21412
1.21421
1.21427
1.21432
1.21436
1.21437
1.21438
1.21438
1.21437
1.21435
1.21432
1.21429
1.21425
1.2142
1.21415
1.2141
1.21404
1.21398
1.21392
1.21385
1.21379
1.21372
1.21365
1.21357
1.2135
1.21343
1.21336
1.21329
1.21323
1.21316
1.2131
1.21304
1.21298
1.21292
1.21288
1.21283
1.21279
1.21275
1.21272
1.2127
1.21268
1.21267
1.21267
1.21267
1.21268
1.2127
1.21273
1.21276
1.21281
1.21286
1.21292
1.21299
1.21307
1.21316
1.21325
1.21336
1.21347
1.2136
1.21373
1.21387
1.21402
1.21418
1.21435
1.21452
1.2147
1.21489
1.21509
1.2153
1.21551
1.21573
1.21596
1.21619
1.21642
1.21667
1.21691
1.21716
1.21742
1.21767
1.21793
1.21819
1.21845
1.21871
1.21897
1.21923
1.21948
1.21974
1.21999
1.22023
1.22048
1.22071
1.22094
1.22117
1.22139
1.2216
1.2218
1.22199
1.22218
1.22235
1.22252
1.22267
1.22282
1.22295
1.22308
1.22319
1.2233
1.22339
1.22348
1.22355
1.22362
1.22368
1.22373
1.22377
1.22381
1.22384
1.22386
1.22388
1.22389
1.22389
1.22389
1.22389
1.22388
1.22387
1.22386
1.22385
1.22383
1.22381
1.22379
1.22377
1.22374
1.22372
1.22369
1.22367
1.22364
1.22362
1.2236
1.22357
1.22355
1.22352
1.2235
1.22348
1.22346
1.22344
1.22342
1.2234
1.22339
1.22337
1.22336
1.22334
1.22333
1.22332
1.22331
1.2233
1.22329
1.22329
1.22328
1.22327
1.22327
1.22326
1.22326
1.22326
1.22325
1.22325
1.22325
1.22325
1.22324
1.22324
1.22324
1.22324
1.22324
1.22323
1.22323
1.22323
1.22322
1.22322
1.22321
1.22321
1.2232
1.2232
1.22319
1.22318
1.22317
1.22316
1.22315
1.22314
1.22313
1.22312
1.22311
1.22309
1.22308
1.22307
1.22305
1.22304
1.22303
1.22301
1.223
1.22299
1.22298
1.22296
1.22296
1.22295
1.22294
1.22293
1.22293
1.22293
1.22293
1.22293
1.22294
1.22295
1.22296
1.22298
1.223
1.22303
1.22306
1.22309
1.22313
1.22317
1.22322
1.22328
1.22334
1.22341
1.22349
1.22357
1.22366
1.22376
1.22386
1.22398
1.2241
1.22423
1.22436
1.22451
1.22466
1.22483
1.225
1.22518
1.22537
1.22556
1.22577
1.22599
1.22621
1.22644
1.22668
1.22693
1.22718
1.22744
1.22771
1.22799
1.22827
1.22856
1.22885
1.22914
1.22944
1.22975
1.23005
1.23036
1.23067
1.23097
1.23128
1.23159
1.23189
1.23219
1.23249
1.23278
1.23306
1.23335
1.23362
1.23389
1.23415
1.23441
1.23465
1.23489
1.23512
1.23534
1.23556
1.23577
1.23597
1.23616
1.23634
1.23652
1.23669
1.23686
1.23702
1.23717
1.23732
1.23746
1.2376
1.23773
1.23786
1.23799
1.23811
1.23823
1.23835
1.23846
1.23857
1.23867
1.23878
1.23888
1.23898
1.23907
1.23916
1.23925
1.23934
1.23943
1.23951
1.23959
1.23966
1.23974
1.23981
1.23988
1.23994
1.24001
1.24007
1.24013
1.24019
1.24025
1.2403
1.24036
1.24041
1.24047
1.24053
1.24058
1.24064
1.24071
1.24077
1.24084
1.24092
1.241
1.24108
1.24118
1.24128
1.24139
1.24151
1.24164
1.24178
1.24194
1.24211
1.24229
1.24249
1.24271
1.24294
1.2432
1.24347
1.24376
1.24408
1.24441
1.24477
1.24516
1.24557
1.24601
1.24648
1.24698
1.2475
1.24806
1.24866
1.24928
1.24995
1.25065
1.25139
1.25218
1.25301
1.25389
1.25482
1.2558
1.25685
1.25797
1.25916
1.26043
1.2618
1.26327
1.26487
1.26662
1.26854
1.27067
1.27306
1.27577
1.27888
1.28249
1.28673
1.29171
1.29749
1.3039
1.30911
1.30923
1.2015
1.20103
1.20162
1.20313
1.205
1.20667
1.2081
1.20929
1.21025
1.21102
1.21165
1.21216
1.21257
1.21291
1.21319
1.21342
1.21361
1.21377
1.2139
1.214
1.21408
1.21414
1.21418
1.21421
1.21423
1.21424
1.21423
1.21422
1.2142
1.21417
1.21414
1.2141
1.21406
1.21401
1.21395
1.21389
1.21384
1.21377
1.21371
1.21364
1.21358
1.21351
1.21344
1.21337
1.2133
1.21323
1.21317
1.2131
1.21304
1.21298
1.21293
1.21288
1.21283
1.21278
1.21274
1.21271
1.21268
1.21266
1.21264
1.21263
1.21263
1.21264
1.21265
1.21267
1.2127
1.21273
1.21278
1.21283
1.2129
1.21297
1.21305
1.21314
1.21324
1.21334
1.21346
1.21358
1.21372
1.21386
1.21401
1.21417
1.21434
1.21451
1.2147
1.21489
1.21509
1.2153
1.21551
1.21573
1.21596
1.21619
1.21643
1.21667
1.21692
1.21717
1.21743
1.21768
1.21794
1.2182
1.21846
1.21872
1.21898
1.21924
1.2195
1.21975
1.22001
1.22025
1.2205
1.22073
1.22096
1.22119
1.22141
1.22162
1.22182
1.22201
1.2222
1.22237
1.22253
1.22269
1.22283
1.22297
1.22309
1.2232
1.22331
1.2234
1.22348
1.22356
1.22362
1.22368
1.22373
1.22377
1.2238
1.22383
1.22385
1.22387
1.22388
1.22388
1.22388
1.22388
1.22387
1.22386
1.22385
1.22383
1.22382
1.2238
1.22378
1.22375
1.22373
1.22371
1.22368
1.22366
1.22363
1.22361
1.22359
1.22356
1.22354
1.22352
1.22349
1.22347
1.22345
1.22343
1.22342
1.2234
1.22338
1.22337
1.22335
1.22334
1.22333
1.22332
1.22331
1.2233
1.22329
1.22328
1.22328
1.22327
1.22327
1.22326
1.22326
1.22326
1.22325
1.22325
1.22325
1.22325
1.22325
1.22324
1.22324
1.22324
1.22324
1.22323
1.22323
1.22323
1.22323
1.22322
1.22322
1.22321
1.2232
1.2232
1.22319
1.22318
1.22317
1.22316
1.22315
1.22314
1.22313
1.22312
1.22311
1.2231
1.22308
1.22307
1.22306
1.22304
1.22303
1.22302
1.223
1.22299
1.22298
1.22297
1.22296
1.22295
1.22294
1.22294
1.22293
1.22293
1.22294
1.22294
1.22295
1.22296
1.22297
1.22299
1.22301
1.22303
1.22306
1.2231
1.22314
1.22318
1.22323
1.22329
1.22335
1.22342
1.2235
1.22358
1.22367
1.22377
1.22387
1.22399
1.22411
1.22424
1.22437
1.22452
1.22468
1.22484
1.22501
1.22519
1.22538
1.22558
1.22579
1.226
1.22623
1.22646
1.2267
1.22695
1.22721
1.22747
1.22774
1.22802
1.2283
1.22859
1.22888
1.22918
1.22948
1.22978
1.23009
1.23039
1.2307
1.23101
1.23132
1.23162
1.23193
1.23223
1.23253
1.23282
1.2331
1.23338
1.23366
1.23393
1.23419
1.23444
1.23469
1.23492
1.23515
1.23537
1.23559
1.23579
1.23599
1.23618
1.23636
1.23654
1.23671
1.23687
1.23703
1.23718
1.23733
1.23747
1.23761
1.23774
1.23787
1.23799
1.23811
1.23823
1.23835
1.23846
1.23857
1.23867
1.23877
1.23887
1.23897
1.23907
1.23916
1.23925
1.23934
1.23942
1.2395
1.23958
1.23966
1.23973
1.2398
1.23987
1.23994
1.24
1.24006
1.24012
1.24018
1.24024
1.24029
1.24035
1.2404
1.24046
1.24051
1.24057
1.24063
1.24069
1.24075
1.24082
1.2409
1.24098
1.24106
1.24116
1.24126
1.24137
1.24149
1.24162
1.24176
1.24192
1.24209
1.24227
1.24247
1.24269
1.24292
1.24317
1.24345
1.24374
1.24405
1.24439
1.24475
1.24514
1.24555
1.24599
1.24646
1.24696
1.24749
1.24805
1.24864
1.24927
1.24994
1.25064
1.25138
1.25216
1.25299
1.25387
1.2548
1.25578
1.25682
1.25793
1.25911
1.26037
1.26172
1.26317
1.26474
1.26644
1.26831
1.27037
1.27265
1.2752
1.27806
1.28129
1.28493
1.28894
1.29306
1.29676
1.29929
1.2986
1.20451
1.20399
1.20413
1.20495
1.20603
1.20719
1.2083
1.20927
1.21011
1.21081
1.2114
1.2119
1.21231
1.21266
1.21295
1.21319
1.21339
1.21356
1.21369
1.21381
1.2139
1.21397
1.21402
1.21406
1.21409
1.2141
1.2141
1.2141
1.21408
1.21406
1.21403
1.214
1.21396
1.21391
1.21386
1.21381
1.21375
1.21369
1.21363
1.21357
1.21351
1.21344
1.21337
1.21331
1.21324
1.21317
1.21311
1.21305
1.21299
1.21293
1.21288
1.21283
1.21278
1.21274
1.2127
1.21266
1.21264
1.21262
1.2126
1.21259
1.21259
1.2126
1.21261
1.21263
1.21266
1.2127
1.21275
1.2128
1.21286
1.21294
1.21302
1.21311
1.21321
1.21332
1.21343
1.21356
1.2137
1.21384
1.21399
1.21415
1.21432
1.2145
1.21468
1.21488
1.21508
1.21529
1.2155
1.21573
1.21595
1.21619
1.21643
1.21667
1.21692
1.21718
1.21743
1.21769
1.21795
1.21821
1.21848
1.21874
1.219
1.21926
1.21952
1.21977
1.22003
1.22027
1.22052
1.22076
1.22099
1.22121
1.22143
1.22164
1.22184
1.22204
1.22222
1.22239
1.22256
1.22271
1.22285
1.22299
1.22311
1.22322
1.22332
1.22341
1.2235
1.22357
1.22363
1.22369
1.22373
1.22377
1.2238
1.22383
1.22385
1.22386
1.22387
1.22388
1.22388
1.22387
1.22386
1.22385
1.22384
1.22382
1.22381
1.22379
1.22377
1.22374
1.22372
1.2237
1.22367
1.22365
1.22362
1.2236
1.22358
1.22355
1.22353
1.22351
1.22349
1.22347
1.22345
1.22343
1.22341
1.22339
1.22338
1.22336
1.22335
1.22334
1.22333
1.22331
1.22331
1.2233
1.22329
1.22328
1.22328
1.22327
1.22327
1.22326
1.22326
1.22326
1.22326
1.22325
1.22325
1.22325
1.22325
1.22325
1.22324
1.22324
1.22324
1.22324
1.22324
1.22323
1.22323
1.22322
1.22322
1.22321
1.22321
1.2232
1.22319
1.22319
1.22318
1.22317
1.22316
1.22315
1.22314
1.22312
1.22311
1.2231
1.22309
1.22307
1.22306
1.22305
1.22303
1.22302
1.22301
1.22299
1.22298
1.22297
1.22296
1.22295
1.22295
1.22294
1.22294
1.22294
1.22294
1.22294
1.22295
1.22296
1.22297
1.22299
1.22301
1.22304
1.22307
1.2231
1.22314
1.22319
1.22324
1.22329
1.22336
1.22343
1.2235
1.22358
1.22368
1.22377
1.22388
1.22399
1.22411
1.22424
1.22438
1.22453
1.22468
1.22485
1.22502
1.2252
1.22539
1.22559
1.2258
1.22602
1.22624
1.22648
1.22672
1.22697
1.22722
1.22749
1.22776
1.22804
1.22832
1.22861
1.22891
1.22921
1.22951
1.22981
1.23012
1.23043
1.23074
1.23105
1.23136
1.23167
1.23197
1.23227
1.23257
1.23286
1.23315
1.23343
1.2337
1.23397
1.23423
1.23448
1.23473
1.23496
1.23519
1.23541
1.23562
1.23582
1.23602
1.23621
1.23639
1.23656
1.23673
1.23689
1.23705
1.2372
1.23734
1.23748
1.23762
1.23775
1.23787
1.238
1.23812
1.23823
1.23835
1.23846
1.23857
1.23867
1.23877
1.23887
1.23897
1.23907
1.23916
1.23925
1.23933
1.23942
1.2395
1.23958
1.23965
1.23973
1.2398
1.23987
1.23993
1.23999
1.24005
1.24011
1.24017
1.24023
1.24028
1.24033
1.24039
1.24044
1.2405
1.24055
1.24061
1.24067
1.24073
1.2408
1.24087
1.24095
1.24103
1.24113
1.24123
1.24133
1.24145
1.24158
1.24172
1.24188
1.24205
1.24223
1.24243
1.24265
1.24288
1.24313
1.2434
1.2437
1.24401
1.24435
1.24471
1.2451
1.24551
1.24595
1.24642
1.24691
1.24744
1.248
1.24859
1.24922
1.24988
1.25058
1.25132
1.2521
1.25293
1.2538
1.25472
1.25569
1.25672
1.25781
1.25897
1.26021
1.26153
1.26295
1.26447
1.26611
1.2679
1.26984
1.27197
1.2743
1.27687
1.27966
1.28264
1.28569
1.28858
1.2908
1.29192
1.29164
1.20658
1.20603
1.20601
1.20642
1.20707
1.20786
1.20867
1.20944
1.21014
1.21075
1.21128
1.21174
1.21213
1.21247
1.21275
1.213
1.2132
1.21337
1.21352
1.21364
1.21373
1.21381
1.21387
1.21392
1.21395
1.21397
1.21398
1.21398
1.21397
1.21395
1.21393
1.2139
1.21386
1.21382
1.21378
1.21373
1.21367
1.21362
1.21356
1.2135
1.21343
1.21337
1.21331
1.21324
1.21318
1.21311
1.21305
1.21299
1.21293
1.21287
1.21282
1.21277
1.21273
1.21268
1.21265
1.21261
1.21259
1.21257
1.21255
1.21255
1.21255
1.21255
1.21257
1.21259
1.21262
1.21266
1.21271
1.21276
1.21283
1.2129
1.21299
1.21308
1.21318
1.21329
1.21341
1.21353
1.21367
1.21381
1.21397
1.21413
1.2143
1.21448
1.21467
1.21486
1.21506
1.21527
1.21549
1.21572
1.21595
1.21618
1.21643
1.21667
1.21692
1.21718
1.21744
1.2177
1.21796
1.21823
1.21849
1.21875
1.21902
1.21928
1.21954
1.2198
1.22005
1.2203
1.22054
1.22078
1.22102
1.22124
1.22146
1.22167
1.22188
1.22207
1.22225
1.22243
1.22259
1.22274
1.22288
1.22301
1.22314
1.22324
1.22334
1.22343
1.22351
1.22358
1.22365
1.2237
1.22374
1.22378
1.22381
1.22383
1.22385
1.22386
1.22387
1.22387
1.22387
1.22387
1.22386
1.22385
1.22383
1.22382
1.2238
1.22378
1.22376
1.22373
1.22371
1.22369
1.22366
1.22364
1.22361
1.22359
1.22357
1.22354
1.22352
1.2235
1.22348
1.22346
1.22344
1.22342
1.2234
1.22339
1.22337
1.22336
1.22335
1.22333
1.22332
1.22331
1.2233
1.2233
1.22329
1.22328
1.22328
1.22327
1.22327
1.22326
1.22326
1.22326
1.22326
1.22326
1.22325
1.22325
1.22325
1.22325
1.22325
1.22325
1.22324
1.22324
1.22324
1.22324
1.22323
1.22323
1.22322
1.22322
1.22321
1.22321
1.2232
1.22319
1.22318
1.22317
1.22316
1.22315
1.22314
1.22313
1.22312
1.2231
1.22309
1.22308
1.22307
1.22305
1.22304
1.22302
1.22301
1.223
1.22299
1.22298
1.22297
1.22296
1.22295
1.22295
1.22294
1.22294
1.22294
1.22295
1.22295
1.22296
1.22298
1.22299
1.22301
1.22304
1.22307
1.2231
1.22314
1.22319
1.22324
1.2233
1.22336
1.22343
1.2235
1.22359
1.22368
1.22378
1.22388
1.22399
1.22412
1.22425
1.22438
1.22453
1.22469
1.22485
1.22502
1.22521
1.2254
1.2256
1.22581
1.22602
1.22625
1.22649
1.22673
1.22698
1.22724
1.2275
1.22778
1.22806
1.22834
1.22864
1.22893
1.22923
1.22954
1.22985
1.23016
1.23047
1.23078
1.23109
1.2314
1.23171
1.23202
1.23232
1.23262
1.23291
1.2332
1.23348
1.23376
1.23402
1.23428
1.23453
1.23478
1.23501
1.23524
1.23545
1.23566
1.23586
1.23606
1.23624
1.23642
1.23659
1.23676
1.23692
1.23707
1.23722
1.23736
1.2375
1.23763
1.23776
1.23788
1.23801
1.23812
1.23824
1.23835
1.23846
1.23857
1.23867
1.23878
1.23887
1.23897
1.23907
1.23916
1.23925
1.23933
1.23942
1.2395
1.23958
1.23965
1.23972
1.23979
1.23986
1.23993
1.23999
1.24005
1.2401
1.24016
1.24021
1.24027
1.24032
1.24037
1.24042
1.24048
1.24053
1.24058
1.24064
1.2407
1.24077
1.24084
1.24092
1.241
1.24109
1.24119
1.24129
1.24141
1.24154
1.24168
1.24183
1.242
1.24218
1.24237
1.24259
1.24282
1.24307
1.24334
1.24363
1.24395
1.24428
1.24464
1.24503
1.24544
1.24588
1.24634
1.24684
1.24736
1.24792
1.24851
1.24913
1.24979
1.25049
1.25122
1.252
1.25281
1.25368
1.25458
1.25554
1.25656
1.25763
1.25876
1.25997
1.26125
1.26262
1.26408
1.26564
1.26732
1.26913
1.27108
1.27318
1.27542
1.27777
1.28016
1.28244
1.28442
1.28583
1.28638
1.28614
1.20801
1.20753
1.20743
1.20761
1.20801
1.20854
1.20913
1.20972
1.21028
1.21079
1.21126
1.21167
1.21203
1.21234
1.21262
1.21285
1.21305
1.21322
1.21337
1.21349
1.21359
1.21367
1.21374
1.21379
1.21383
1.21385
1.21387
1.21387
1.21387
1.21385
1.21383
1.21381
1.21377
1.21374
1.21369
1.21365
1.2136
1.21354
1.21349
1.21343
1.21337
1.2133
1.21324
1.21318
1.21312
1.21305
1.21299
1.21293
1.21288
1.21282
1.21277
1.21272
1.21267
1.21263
1.2126
1.21256
1.21254
1.21252
1.2125
1.2125
1.2125
1.2125
1.21252
1.21254
1.21258
1.21261
1.21266
1.21272
1.21279
1.21286
1.21295
1.21304
1.21314
1.21325
1.21337
1.2135
1.21364
1.21378
1.21394
1.2141
1.21427
1.21445
1.21464
1.21484
1.21504
1.21525
1.21547
1.2157
1.21593
1.21617
1.21642
1.21667
1.21692
1.21718
1.21744
1.2177
1.21797
1.21823
1.2185
1.21877
1.21903
1.2193
1.21956
1.21982
1.22007
1.22033
1.22057
1.22081
1.22105
1.22128
1.2215
1.22171
1.22191
1.22211
1.22229
1.22246
1.22263
1.22278
1.22292
1.22305
1.22317
1.22327
1.22337
1.22346
1.22354
1.22361
1.22366
1.22371
1.22376
1.22379
1.22382
1.22384
1.22386
1.22387
1.22387
1.22387
1.22387
1.22386
1.22385
1.22384
1.22383
1.22381
1.22379
1.22377
1.22375
1.22373
1.2237
1.22368
1.22365
1.22363
1.22361
1.22358
1.22356
1.22354
1.22351
1.22349
1.22347
1.22345
1.22343
1.22342
1.2234
1.22338
1.22337
1.22335
1.22334
1.22333
1.22332
1.22331
1.2233
1.22329
1.22329
1.22328
1.22328
1.22327
1.22327
1.22327
1.22326
1.22326
1.22326
1.22326
1.22326
1.22326
1.22326
1.22325
1.22325
1.22325
1.22325
1.22325
1.22325
1.22324
1.22324
1.22323
1.22323
1.22323
1.22322
1.22321
1.22321
1.2232
1.22319
1.22318
1.22317
1.22316
1.22315
1.22314
1.22312
1.22311
1.2231
1.22308
1.22307
1.22306
1.22304
1.22303
1.22302
1.22301
1.22299
1.22298
1.22297
1.22296
1.22296
1.22295
1.22295
1.22295
1.22295
1.22295
1.22296
1.22297
1.22298
1.223
1.22302
1.22304
1.22307
1.2231
1.22314
1.22319
1.22324
1.22329
1.22336
1.22343
1.2235
1.22358
1.22368
1.22377
1.22388
1.22399
1.22411
1.22424
1.22438
1.22453
1.22468
1.22485
1.22502
1.2252
1.2254
1.2256
1.22581
1.22603
1.22625
1.22649
1.22673
1.22699
1.22725
1.22751
1.22779
1.22807
1.22836
1.22865
1.22895
1.22926
1.22956
1.22987
1.23019
1.2305
1.23082
1.23113
1.23144
1.23176
1.23206
1.23237
1.23267
1.23297
1.23325
1.23354
1.23381
1.23408
1.23434
1.23459
1.23483
1.23506
1.23529
1.2355
1.23571
1.23591
1.2361
1.23628
1.23646
1.23663
1.23679
1.23695
1.2371
1.23724
1.23738
1.23752
1.23765
1.23777
1.2379
1.23802
1.23813
1.23825
1.23836
1.23847
1.23857
1.23868
1.23878
1.23888
1.23897
1.23907
1.23916
1.23925
1.23933
1.23942
1.2395
1.23957
1.23965
1.23972
1.23979
1.23986
1.23992
1.23998
1.24004
1.2401
1.24015
1.2402
1.24025
1.2403
1.24035
1.2404
1.24045
1.2405
1.24056
1.24061
1.24067
1.24074
1.2408
1.24088
1.24096
1.24104
1.24114
1.24124
1.24136
1.24148
1.24162
1.24177
1.24193
1.24211
1.24231
1.24252
1.24275
1.24299
1.24326
1.24355
1.24386
1.2442
1.24455
1.24494
1.24534
1.24578
1.24624
1.24673
1.24726
1.24781
1.24839
1.24901
1.24967
1.25036
1.25108
1.25185
1.25265
1.2535
1.2544
1.25534
1.25633
1.25737
1.25848
1.25964
1.26088
1.26218
1.26357
1.26505
1.26661
1.26828
1.27004
1.27189
1.27382
1.27576
1.27765
1.27937
1.28075
1.28166
1.28196
1.28163
1.20905
1.20865
1.2085
1.20857
1.20881
1.20916
1.20959
1.21003
1.21048
1.21091
1.2113
1.21166
1.21198
1.21227
1.21252
1.21275
1.21294
1.21311
1.21325
1.21337
1.21347
1.21355
1.21362
1.21367
1.21372
1.21374
1.21376
1.21377
1.21377
1.21376
1.21374
1.21372
1.21369
1.21365
1.21361
1.21357
1.21352
1.21347
1.21341
1.21336
1.2133
1.21324
1.21318
1.21311
1.21305
1.21299
1.21293
1.21287
1.21282
1.21276
1.21271
1.21266
1.21262
1.21258
1.21254
1.21251
1.21248
1.21246
1.21245
1.21245
1.21245
1.21245
1.21247
1.21249
1.21253
1.21257
1.21262
1.21267
1.21274
1.21282
1.2129
1.213
1.2131
1.21321
1.21333
1.21346
1.2136
1.21375
1.21391
1.21407
1.21424
1.21442
1.21461
1.21481
1.21502
1.21523
1.21545
1.21568
1.21592
1.21616
1.21641
1.21666
1.21691
1.21717
1.21744
1.2177
1.21797
1.21824
1.21851
1.21878
1.21905
1.21931
1.21958
1.21984
1.2201
1.22035
1.2206
1.22084
1.22108
1.22131
1.22153
1.22175
1.22195
1.22215
1.22233
1.2225
1.22267
1.22282
1.22296
1.22309
1.2232
1.22331
1.22341
1.22349
1.22357
1.22363
1.22369
1.22374
1.22378
1.22381
1.22383
1.22385
1.22387
1.22387
1.22388
1.22388
1.22387
1.22386
1.22385
1.22384
1.22382
1.2238
1.22378
1.22376
1.22374
1.22372
1.22369
1.22367
1.22365
1.22362
1.2236
1.22357
1.22355
1.22353
1.22351
1.22349
1.22347
1.22345
1.22343
1.22341
1.22339
1.22338
1.22337
1.22335
1.22334
1.22333
1.22332
1.22331
1.2233
1.22329
1.22329
1.22328
1.22328
1.22328
1.22327
1.22327
1.22327
1.22327
1.22326
1.22326
1.22326
1.22326
1.22326
1.22326
1.22326
1.22326
1.22326
1.22325
1.22325
1.22325
1.22325
1.22324
1.22324
1.22323
1.22323
1.22322
1.22321
1.22321
1.2232
1.22319
1.22318
1.22317
1.22316
1.22314
1.22313
1.22312
1.22311
1.22309
1.22308
1.22307
1.22305
1.22304
1.22303
1.22301
1.223
1.22299
1.22298
1.22297
1.22296
1.22296
1.22295
1.22295
1.22295
1.22295
1.22296
1.22297
1.22298
1.223
1.22302
1.22304
1.22307
1.2231
1.22314
1.22319
1.22324
1.22329
1.22335
1.22342
1.2235
1.22358
1.22367
1.22377
1.22387
1.22399
1.22411
1.22424
1.22437
1.22452
1.22468
1.22484
1.22502
1.2252
1.22539
1.22559
1.2258
1.22602
1.22625
1.22649
1.22673
1.22699
1.22725
1.22752
1.2278
1.22808
1.22837
1.22867
1.22897
1.22928
1.22959
1.2299
1.23022
1.23054
1.23085
1.23117
1.23149
1.2318
1.23212
1.23242
1.23273
1.23302
1.23331
1.2336
1.23387
1.23414
1.2344
1.23465
1.23489
1.23512
1.23535
1.23556
1.23577
1.23596
1.23615
1.23633
1.2365
1.23667
1.23683
1.23698
1.23713
1.23727
1.23741
1.23754
1.23767
1.23779
1.23791
1.23803
1.23815
1.23826
1.23837
1.23848
1.23858
1.23868
1.23878
1.23888
1.23898
1.23907
1.23916
1.23925
1.23933
1.23942
1.2395
1.23957
1.23965
1.23972
1.23979
1.23985
1.23992
1.23998
1.24003
1.24009
1.24014
1.24019
1.24024
1.24029
1.24033
1.24038
1.24043
1.24048
1.24053
1.24058
1.24064
1.2407
1.24076
1.24083
1.24091
1.24099
1.24108
1.24118
1.24129
1.24142
1.24155
1.2417
1.24186
1.24203
1.24222
1.24243
1.24266
1.2429
1.24317
1.24345
1.24376
1.24409
1.24444
1.24482
1.24523
1.24566
1.24612
1.2466
1.24712
1.24767
1.24825
1.24886
1.24951
1.25019
1.2509
1.25166
1.25245
1.25328
1.25416
1.25508
1.25604
1.25706
1.25812
1.25925
1.26043
1.26167
1.26298
1.26435
1.2658
1.26731
1.26889
1.27051
1.27215
1.27375
1.27524
1.27653
1.27752
1.27812
1.27827
1.27791
1.20984
1.2095
1.20935
1.20935
1.20949
1.20972
1.21003
1.21036
1.21071
1.21106
1.21139
1.2117
1.21198
1.21224
1.21247
1.21268
1.21286
1.21302
1.21315
1.21327
1.21337
1.21345
1.21352
1.21357
1.21362
1.21364
1.21366
1.21367
1.21367
1.21367
1.21365
1.21363
1.2136
1.21357
1.21353
1.21349
1.21345
1.2134
1.21334
1.21329
1.21323
1.21317
1.21311
1.21305
1.21299
1.21293
1.21288
1.21282
1.21276
1.21271
1.21266
1.21261
1.21256
1.21252
1.21249
1.21246
1.21243
1.21241
1.2124
1.21239
1.2124
1.2124
1.21242
1.21244
1.21248
1.21252
1.21257
1.21263
1.2127
1.21277
1.21286
1.21295
1.21306
1.21317
1.21329
1.21342
1.21356
1.21371
1.21387
1.21403
1.21421
1.21439
1.21458
1.21478
1.21499
1.2152
1.21543
1.21566
1.2159
1.21614
1.21639
1.21664
1.2169
1.21717
1.21743
1.2177
1.21797
1.21825
1.21852
1.21879
1.21906
1.21933
1.2196
1.21986
1.22012
1.22038
1.22063
1.22088
1.22112
1.22135
1.22157
1.22179
1.22199
1.22219
1.22238
1.22255
1.22271
1.22286
1.223
1.22313
1.22325
1.22335
1.22344
1.22353
1.2236
1.22366
1.22372
1.22376
1.2238
1.22383
1.22385
1.22387
1.22388
1.22388
1.22389
1.22388
1.22388
1.22387
1.22385
1.22384
1.22382
1.2238
1.22378
1.22376
1.22374
1.22371
1.22369
1.22366
1.22364
1.22362
1.22359
1.22357
1.22355
1.22352
1.2235
1.22348
1.22346
1.22344
1.22342
1.22341
1.22339
1.22338
1.22336
1.22335
1.22334
1.22333
1.22332
1.22331
1.2233
1.2233
1.22329
1.22329
1.22328
1.22328
1.22328
1.22327
1.22327