# vtk DataFile Version 2.0
LBE mesh
ASCII
DATASET STRUCTURED_POINTS
DIMENSIONS 400 100 1
ASPECT_RATIO 1 1 1
ORIGIN 0 0 0
POINT_DATA 40000
SCALARS rho double 1
LOOKUP_TABLE default
1.10516
1.17862
1.20001
1.2044
1.20653
1.20839
1.20973
1.21061
1.2112
1.21163
1.21196
1.21221
1.21241
1.21256
1.21268
1.21277
1.21284
1.2129
1.21293
1.21295
1.21297
1.21297
1.21296
1.21294
1.21291
1.21288
1.21284
1.2128
1.21275
1.2127
1.21264
1.21258
1.21251
1.21245
1.21237
1.2123
1.21223
1.21215
1.21207
1.21199
1.21191
1.21183
1.21175
1.21167
1.21159
1.21151
1.21143
1.21136
1.21128
1.21121
1.21115
1.21108
1.21102
1.21097
1.21092
1.21087
1.21083
1.21079
1.21077
1.21074
1.21073
1.21072
1.21072
1.21072
1.21074
1.21076
1.21079
1.21083
1.21088
1.21094
1.211
1.21108
1.21116
1.21125
1.21135
1.21146
1.21158
1.21171
1.21184
1.21198
1.21214
1.2123
1.21246
1.21264
1.21282
1.21301
1.21321
1.21342
1.21363
1.21384
1.21407
1.21429
1.21453
1.21476
1.215
1.21524
1.21549
1.21573
1.21598
1.21623
1.21647
1.21672
1.21696
1.21721
1.21745
1.21768
1.21791
1.21814
1.21836
1.21858
1.21879
1.21899
1.21918
1.21937
1.21954
1.21971
1.21987
1.22002
1.22016
1.22029
1.22041
1.22051
1.22061
1.2207
1.22078
1.22085
1.22091
1.22096
1.221
1.22104
1.22107
1.22109
1.2211
1.22111
1.22111
1.22111
1.2211
1.22109
1.22108
1.22106
1.22104
1.22101
1.22099
1.22096
1.22093
1.2209
1.22087
1.22084
1.22081
1.22077
1.22074
1.22071
1.22068
1.22065
1.22062
1.22059
1.22056
1.22054
1.22051
1.22049
1.22046
1.22044
1.22042
1.2204
1.22039
1.22037
1.22036
1.22035
1.22033
1.22032
1.22032
1.22031
1.2203
1.2203
1.22029
1.22029
1.22029
1.22029
1.22029
1.22029
1.22029
1.22029
1.22029
1.22029
1.2203
1.2203
1.2203
1.2203
1.2203
1.22031
1.22031
1.22031
1.22031
1.22031
1.2203
1.2203
1.2203
1.2203
1.22029
1.22029
1.22028
1.22027
1.22026
1.22025
1.22024
1.22023
1.22022
1.22021
1.2202
1.22018
1.22017
1.22015
1.22014
1.22012
1.22011
1.22009
1.22008
1.22007
1.22005
1.22004
1.22003
1.22002
1.22001
1.22001
1.22001
1.22001
1.22001
1.22001
1.22002
1.22004
1.22005
1.22008
1.2201
1.22013
1.22017
1.22021
1.22026
1.22032
1.22038
1.22045
1.22053
1.22061
1.2207
1.2208
1.22091
1.22103
1.22116
1.22129
1.22144
1.22159
1.22175
1.22193
1.22211
1.2223
1.2225
1.22271
1.22293
1.22316
1.2234
1.22364
1.22389
1.22416
1.22443
1.2247
1.22498
1.22527
1.22557
1.22587
1.22617
1.22648
1.22678
1.2271
1.22741
1.22772
1.22803
1.22834
1.22865
1.22895
1.22926
1.22955
1.22984
1.23013
1.23041
1.23068
1.23094
1.2312
1.23144
1.23168
1.23191
1.23213
1.23234
1.23255
1.23274
1.23293
1.23311
1.23328
1.23344
1.23359
1.23374
1.23388
1.23402
1.23415
1.23427
1.23439
1.23451
1.23462
1.23472
1.23482
1.23492
1.23502
1.23511
1.2352
1.23528
1.23537
1.23545
1.23552
1.2356
1.23567
1.23574
1.23581
1.23588
1.23594
1.236
1.23606
1.23612
1.23617
1.23622
1.23628
1.23632
1.23637
1.23642
1.23647
1.23651
1.23656
1.2366
1.23665
1.2367
1.23675
1.2368
1.23686
1.23692
1.23699
1.23706
1.23713
1.23722
1.23731
1.23741
1.23752
1.23764
1.23777
1.23791
1.23807
1.23824
1.23843
1.23863
1.23885
1.23909
1.23935
1.23963
1.23993
1.24025
1.2406
1.24097
1.24136
1.24178
1.24223
1.24271
1.24321
1.24375
1.24432
1.24492
1.24556
1.24623
1.24694
1.24769
1.24848
1.24932
1.2502
1.25113
1.25212
1.25317
1.25428
1.25546
1.25673
1.25808
1.25954
1.26112
1.26283
1.26472
1.26681
1.26915
1.27181
1.2749
1.27854
1.28297
1.28871
1.2967
1.30794
1.32454
1.35844
1.16754
1.17739
1.18922
1.19893
1.20397
1.20653
1.20813
1.20928
1.21013
1.21076
1.21122
1.21158
1.21186
1.21209
1.21226
1.2124
1.21251
1.21259
1.21266
1.2127
1.21274
1.21275
1.21276
1.21276
1.21274
1.21272
1.2127
1.21266
1.21262
1.21258
1.21252
1.21247
1.21241
1.21235
1.21228
1.21221
1.21214
1.21207
1.21199
1.21192
1.21184
1.21176
1.21168
1.21161
1.21153
1.21145
1.21138
1.21131
1.21124
1.21117
1.2111
1.21104
1.21099
1.21093
1.21088
1.21084
1.2108
1.21077
1.21074
1.21072
1.21071
1.2107
1.2107
1.21071
1.21073
1.21075
1.21078
1.21083
1.21088
1.21093
1.211
1.21108
1.21116
1.21125
1.21136
1.21147
1.21159
1.21172
1.21185
1.212
1.21215
1.21231
1.21248
1.21266
1.21284
1.21303
1.21323
1.21344
1.21365
1.21386
1.21409
1.21431
1.21455
1.21478
1.21502
1.21526
1.21551
1.21575
1.216
1.21624
1.21649
1.21674
1.21698
1.21722
1.21746
1.21769
1.21792
1.21815
1.21837
1.21858
1.21879
1.21899
1.21918
1.21937
1.21954
1.21971
1.21986
1.22001
1.22015
1.22028
1.22039
1.2205
1.2206
1.22068
1.22076
1.22083
1.22089
1.22094
1.22098
1.22102
1.22105
1.22107
1.22108
1.22109
1.22109
1.22109
1.22108
1.22107
1.22106
1.22104
1.22102
1.221
1.22097
1.22094
1.22091
1.22089
1.22085
1.22082
1.22079
1.22076
1.22073
1.2207
1.22067
1.22064
1.22061
1.22058
1.22055
1.22053
1.2205
1.22048
1.22046
1.22044
1.22042
1.2204
1.22038
1.22037
1.22035
1.22034
1.22033
1.22032
1.22031
1.22031
1.2203
1.2203
1.22029
1.22029
1.22029
1.22029
1.22029
1.22029
1.22029
1.22029
1.22029
1.22029
1.2203
1.2203
1.2203
1.2203
1.2203
1.22031
1.22031
1.22031
1.22031
1.22031
1.2203
1.2203
1.2203
1.2203
1.22029
1.22029
1.22028
1.22027
1.22026
1.22025
1.22024
1.22023
1.22022
1.22021
1.2202
1.22018
1.22017
1.22015
1.22014
1.22013
1.22011
1.2201
1.22008
1.22007
1.22006
1.22005
1.22004
1.22003
1.22002
1.22002
1.22001
1.22001
1.22002
1.22002
1.22003
1.22005
1.22007
1.22009
1.22012
1.22015
1.22019
1.22023
1.22028
1.22034
1.2204
1.22047
1.22055
1.22063
1.22073
1.22083
1.22094
1.22106
1.22118
1.22132
1.22147
1.22162
1.22179
1.22196
1.22214
1.22233
1.22253
1.22275
1.22297
1.22319
1.22343
1.22368
1.22393
1.22419
1.22446
1.22474
1.22502
1.22531
1.2256
1.2259
1.22621
1.22651
1.22682
1.22713
1.22744
1.22775
1.22806
1.22837
1.22868
1.22898
1.22928
1.22957
1.22986
1.23014
1.23042
1.23069
1.23095
1.23121
1.23145
1.23169
1.23192
1.23213
1.23235
1.23255
1.23274
1.23293
1.2331
1.23327
1.23343
1.23359
1.23374
1.23388
1.23401
1.23414
1.23427
1.23438
1.2345
1.23461
1.23471
1.23482
1.23491
1.23501
1.2351
1.23519
1.23528
1.23536
1.23544
1.23552
1.23559
1.23567
1.23574
1.2358
1.23587
1.23593
1.236
1.23605
1.23611
1.23617
1.23622
1.23627
1.23632
1.23637
1.23642
1.23646
1.23651
1.23656
1.2366
1.23665
1.2367
1.23675
1.2368
1.23686
1.23692
1.23699
1.23706
1.23714
1.23722
1.23732
1.23742
1.23753
1.23765
1.23779
1.23793
1.23809
1.23827
1.23846
1.23867
1.23889
1.23913
1.23939
1.23968
1.23998
1.2403
1.24065
1.24103
1.24143
1.24185
1.2423
1.24278
1.24329
1.24384
1.24441
1.24502
1.24566
1.24634
1.24705
1.24781
1.24861
1.24945
1.25034
1.25128
1.25228
1.25334
1.25447
1.25567
1.25695
1.25832
1.25981
1.26142
1.26318
1.26512
1.26728
1.26971
1.27249
1.27574
1.27962
1.28442
1.29047
1.29836
1.30992
1.33012
1.36197
1.18713
1.18538
1.19254
1.19852
1.20227
1.20497
1.2069
1.20827
1.20926
1.21
1.21057
1.21102
1.21137
1.21165
1.21187
1.21205
1.21219
1.21231
1.2124
1.21247
1.21252
1.21255
1.21257
1.21258
1.21258
1.21257
1.21255
1.21253
1.21249
1.21246
1.21241
1.21236
1.21231
1.21225
1.21219
1.21212
1.21206
1.21199
1.21192
1.21184
1.21177
1.2117
1.21162
1.21155
1.21147
1.2114
1.21133
1.21126
1.21119
1.21112
1.21106
1.211
1.21095
1.21089
1.21085
1.21081
1.21077
1.21074
1.21071
1.2107
1.21068
1.21068
1.21068
1.21069
1.21071
1.21074
1.21077
1.21081
1.21087
1.21093
1.21099
1.21107
1.21116
1.21125
1.21136
1.21147
1.21159
1.21172
1.21186
1.212
1.21216
1.21232
1.21249
1.21267
1.21285
1.21304
1.21324
1.21345
1.21366
1.21388
1.2141
1.21433
1.21456
1.2148
1.21504
1.21528
1.21552
1.21577
1.21602
1.21626
1.21651
1.21675
1.217
1.21724
1.21747
1.21771
1.21794
1.21816
1.21838
1.21859
1.2188
1.219
1.21919
1.21937
1.21955
1.21971
1.21987
1.22001
1.22015
1.22027
1.22039
1.2205
1.22059
1.22068
1.22075
1.22082
1.22088
1.22093
1.22097
1.22101
1.22103
1.22105
1.22107
1.22107
1.22108
1.22107
1.22107
1.22106
1.22104
1.22102
1.221
1.22098
1.22096
1.22093
1.2209
1.22087
1.22084
1.22081
1.22078
1.22075
1.22072
1.22069
1.22066
1.22063
1.2206
1.22057
1.22055
1.22052
1.2205
1.22047
1.22045
1.22043
1.22041
1.2204
1.22038
1.22037
1.22035
1.22034
1.22033
1.22032
1.22031
1.22031
1.2203
1.2203
1.22029
1.22029
1.22029
1.22029
1.22029
1.22029
1.22029
1.22029
1.22029
1.2203
1.2203
1.2203
1.2203
1.22031
1.22031
1.22031
1.22031
1.22031
1.22031
1.22031
1.22031
1.22031
1.2203
1.2203
1.22029
1.22029
1.22028
1.22028
1.22027
1.22026
1.22025
1.22024
1.22023
1.22021
1.2202
1.22019
1.22017
1.22016
1.22014
1.22013
1.22012
1.2201
1.22009
1.22008
1.22006
1.22005
1.22004
1.22003
1.22003
1.22002
1.22002
1.22002
1.22003
1.22003
1.22004
1.22006
1.22008
1.2201
1.22013
1.22016
1.2202
1.22025
1.2203
1.22035
1.22042
1.22049
1.22057
1.22065
1.22075
1.22085
1.22096
1.22108
1.22121
1.22134
1.22149
1.22165
1.22181
1.22199
1.22217
1.22236
1.22256
1.22278
1.223
1.22323
1.22346
1.22371
1.22397
1.22423
1.2245
1.22477
1.22506
1.22535
1.22564
1.22594
1.22624
1.22655
1.22685
1.22716
1.22747
1.22778
1.22809
1.2284
1.22871
1.22901
1.22931
1.2296
1.22989
1.23017
1.23044
1.23071
1.23097
1.23122
1.23147
1.2317
1.23193
1.23215
1.23236
1.23256
1.23275
1.23293
1.23311
1.23328
1.23344
1.23359
1.23374
1.23388
1.23401
1.23414
1.23426
1.23438
1.23449
1.2346
1.23471
1.23481
1.23491
1.23501
1.2351
1.23519
1.23527
1.23536
1.23544
1.23551
1.23559
1.23566
1.23573
1.2358
1.23587
1.23593
1.23599
1.23605
1.23611
1.23616
1.23622
1.23627
1.23632
1.23636
1.23641
1.23646
1.2365
1.23655
1.2366
1.23665
1.2367
1.23675
1.2368
1.23686
1.23692
1.23699
1.23706
1.23714
1.23722
1.23732
1.23742
1.23754
1.23766
1.23779
1.23794
1.2381
1.23828
1.23847
1.23868
1.23891
1.23915
1.23942
1.2397
1.24001
1.24033
1.24069
1.24106
1.24146
1.24189
1.24235
1.24283
1.24334
1.24389
1.24447
1.24508
1.24572
1.2464
1.24712
1.24788
1.24869
1.24954
1.25043
1.25138
1.25238
1.25345
1.25458
1.25579
1.25708
1.25846
1.25996
1.26158
1.26335
1.26531
1.26748
1.26993
1.27273
1.27597
1.27981
1.28444
1.29026
1.29779
1.30726
1.31755
1.32719
1.19517
1.19423
1.19649
1.1992
1.20217
1.20455
1.20629
1.20761
1.20863
1.20942
1.21005
1.21054
1.21094
1.21126
1.21152
1.21173
1.2119
1.21204
1.21215
1.21224
1.21231
1.21236
1.21239
1.21242
1.21243
1.21243
1.21242
1.2124
1.21237
1.21234
1.2123
1.21226
1.21221
1.21216
1.2121
1.21204
1.21198
1.21191
1.21184
1.21177
1.2117
1.21163
1.21156
1.21149
1.21141
1.21134
1.21127
1.21121
1.21114
1.21108
1.21101
1.21096
1.2109
1.21085
1.21081
1.21077
1.21073
1.2107
1.21068
1.21066
1.21065
1.21065
1.21066
1.21067
1.21069
1.21072
1.21075
1.2108
1.21085
1.21091
1.21098
1.21106
1.21115
1.21124
1.21135
1.21146
1.21158
1.21172
1.21185
1.212
1.21216
1.21232
1.21249
1.21267
1.21286
1.21305
1.21325
1.21346
1.21367
1.21389
1.21412
1.21435
1.21458
1.21482
1.21505
1.2153
1.21554
1.21579
1.21603
1.21628
1.21653
1.21677
1.21702
1.21726
1.21749
1.21773
1.21796
1.21818
1.2184
1.21861
1.21882
1.21902
1.21921
1.21939
1.21956
1.21973
1.21988
1.22002
1.22016
1.22028
1.2204
1.2205
1.22059
1.22068
1.22075
1.22082
1.22088
1.22093
1.22097
1.221
1.22102
1.22104
1.22106
1.22106
1.22107
1.22106
1.22106
1.22104
1.22103
1.22101
1.22099
1.22097
1.22094
1.22092
1.22089
1.22086
1.22083
1.2208
1.22077
1.22074
1.22071
1.22068
1.22065
1.22062
1.22059
1.22057
1.22054
1.22052
1.22049
1.22047
1.22045
1.22043
1.22041
1.22039
1.22038
1.22037
1.22035
1.22034
1.22033
1.22032
1.22031
1.22031
1.2203
1.2203
1.2203
1.2203
1.22029
1.22029
1.22029
1.22029
1.2203
1.2203
1.2203
1.2203
1.2203
1.22031
1.22031
1.22031
1.22031
1.22032
1.22032
1.22032
1.22032
1.22032
1.22031
1.22031
1.22031
1.22031
1.2203
1.2203
1.22029
1.22028
1.22027
1.22027
1.22026
1.22024
1.22023
1.22022
1.22021
1.22019
1.22018
1.22017
1.22015
1.22014
1.22012
1.22011
1.2201
1.22008
1.22007
1.22006
1.22005
1.22004
1.22004
1.22003
1.22003
1.22003
1.22004
1.22004
1.22005
1.22007
1.22009
1.22011
1.22014
1.22017
1.22021
1.22026
1.22031
1.22037
1.22043
1.2205
1.22058
1.22067
1.22076
1.22087
1.22098
1.2211
1.22123
1.22137
1.22151
1.22167
1.22183
1.22201
1.22219
1.22239
1.22259
1.2228
1.22302
1.22325
1.22349
1.22374
1.224
1.22426
1.22453
1.22481
1.22509
1.22538
1.22567
1.22597
1.22628
1.22658
1.22689
1.2272
1.22751
1.22782
1.22813
1.22844
1.22874
1.22905
1.22934
1.22964
1.22992
1.2302
1.23048
1.23074
1.231
1.23125
1.23149
1.23173
1.23195
1.23217
1.23238
1.23257
1.23276
1.23295
1.23312
1.23329
1.23345
1.2336
1.23374
1.23388
1.23402
1.23414
1.23427
1.23438
1.2345
1.23461
1.23471
1.23481
1.23491
1.235
1.2351
1.23518
1.23527
1.23535
1.23543
1.23551
1.23559
1.23566
1.23573
1.2358
1.23587
1.23593
1.23599
1.23605
1.23611
1.23616
1.23621
1.23626
1.23631
1.23636
1.23641
1.23646
1.2365
1.23655
1.23659
1.23664
1.23669
1.23674
1.2368
1.23685
1.23691
1.23698
1.23705
1.23713
1.23722
1.23731
1.23742
1.23753
1.23765
1.23779
1.23794
1.2381
1.23828
1.23847
1.23868
1.23891
1.23915
1.23942
1.2397
1.24001
1.24034
1.2407
1.24107
1.24148
1.24191
1.24236
1.24285
1.24337
1.24391
1.24449
1.2451
1.24575
1.24644
1.24716
1.24792
1.24873
1.24957
1.25047
1.25142
1.25243
1.25349
1.25462
1.25583
1.25711
1.2585
1.25998
1.26159
1.26335
1.26528
1.26742
1.26982
1.27253
1.27564
1.27925
1.28349
1.28846
1.29423
1.30063
1.30583
1.30595
1.19951
1.19905
1.19965
1.20116
1.20302
1.20469
1.20613
1.20732
1.20827
1.20905
1.20967
1.21018
1.2106
1.21094
1.21122
1.21146
1.21165
1.21181
1.21193
1.21204
1.21212
1.21218
1.21223
1.21226
1.21228
1.21229
1.21229
1.21228
1.21226
1.21223
1.2122
1.21216
1.21212
1.21207
1.21201
1.21196
1.2119
1.21184
1.21177
1.2117
1.21164
1.21157
1.2115
1.21143
1.21136
1.21129
1.21122
1.21115
1.21109
1.21103
1.21097
1.21091
1.21086
1.21081
1.21077
1.21073
1.21069
1.21067
1.21065
1.21063
1.21062
1.21062
1.21063
1.21064
1.21066
1.21069
1.21073
1.21077
1.21083
1.21089
1.21096
1.21104
1.21113
1.21123
1.21134
1.21145
1.21157
1.21171
1.21185
1.212
1.21215
1.21232
1.21249
1.21267
1.21286
1.21305
1.21326
1.21346
1.21368
1.2139
1.21412
1.21436
1.21459
1.21483
1.21507
1.21531
1.21556
1.21581
1.21605
1.2163
1.21655
1.21679
1.21704
1.21728
1.21752
1.21775
1.21798
1.21821
1.21842
1.21864
1.21884
1.21904
1.21923
1.21941
1.21958
1.21975
1.2199
1.22004
1.22018
1.2203
1.22041
1.22051
1.22061
1.22069
1.22076
1.22083
1.22088
1.22093
1.22097
1.221
1.22102
1.22104
1.22105
1.22106
1.22106
1.22106
1.22105
1.22104
1.22102
1.221
1.22098
1.22096
1.22094
1.22091
1.22088
1.22085
1.22082
1.22079
1.22076
1.22073
1.2207
1.22067
1.22065
1.22062
1.22059
1.22056
1.22054
1.22051
1.22049
1.22047
1.22045
1.22043
1.22041
1.2204
1.22038
1.22037
1.22035
1.22034
1.22033
1.22033
1.22032
1.22031
1.22031
1.22031
1.2203
1.2203
1.2203
1.2203
1.2203
1.2203
1.2203
1.22031
1.22031
1.22031
1.22031
1.22032
1.22032
1.22032
1.22032
1.22032
1.22033
1.22033
1.22033
1.22033
1.22033
1.22032
1.22032
1.22032
1.22031
1.22031
1.2203
1.22029
1.22028
1.22028
1.22027
1.22025
1.22024
1.22023
1.22022
1.2202
1.22019
1.22018
1.22016
1.22015
1.22013
1.22012
1.22011
1.22009
1.22008
1.22007
1.22006
1.22005
1.22005
1.22004
1.22004
1.22004
1.22005
1.22005
1.22006
1.22008
1.2201
1.22012
1.22015
1.22018
1.22022
1.22027
1.22032
1.22038
1.22044
1.22052
1.22059
1.22068
1.22078
1.22088
1.22099
1.22111
1.22124
1.22138
1.22153
1.22169
1.22185
1.22203
1.22221
1.22241
1.22261
1.22282
1.22305
1.22328
1.22352
1.22377
1.22402
1.22429
1.22456
1.22484
1.22512
1.22541
1.22571
1.22601
1.22631
1.22662
1.22693
1.22724
1.22755
1.22786
1.22817
1.22848
1.22879
1.22909
1.22939
1.22968
1.22996
1.23024
1.23052
1.23078
1.23104
1.23129
1.23153
1.23176
1.23198
1.2322
1.2324
1.2326
1.23279
1.23297
1.23314
1.23331
1.23346
1.23361
1.23376
1.23389
1.23403
1.23415
1.23427
1.23439
1.2345
1.23461
1.23471
1.23482
1.23491
1.23501
1.2351
1.23519
1.23527
1.23536
1.23544
1.23551
1.23559
1.23566
1.23573
1.2358
1.23587
1.23593
1.23599
1.23605
1.23611
1.23616
1.23621
1.23626
1.23631
1.23636
1.23641
1.23645
1.2365
1.23654
1.23659
1.23664
1.23668
1.23673
1.23679
1.23684
1.2369
1.23697
1.23704
1.23712
1.23721
1.2373
1.2374
1.23752
1.23764
1.23777
1.23792
1.23809
1.23826
1.23846
1.23867
1.23889
1.23914
1.2394
1.23969
1.24
1.24033
1.24068
1.24106
1.24147
1.2419
1.24235
1.24284
1.24336
1.24391
1.24449
1.2451
1.24575
1.24643
1.24715
1.24791
1.24872
1.24957
1.25046
1.25141
1.25241
1.25347
1.25459
1.25578
1.25706
1.25842
1.25989
1.26147
1.26319
1.26506
1.26712
1.26941
1.27196
1.27483
1.27806
1.2817
1.28571
1.28982
1.29351
1.29604
1.29535
1.20253
1.20202
1.20216
1.20298
1.20406
1.20522
1.20633
1.20731
1.20814
1.20885
1.20944
1.20993
1.21035
1.2107
1.21099
1.21123
1.21143
1.2116
1.21174
1.21185
1.21195
1.21202
1.21207
1.21212
1.21214
1.21216
1.21216
1.21216
1.21215
1.21213
1.2121
1.21206
1.21202
1.21198
1.21193
1.21188
1.21182
1.21176
1.2117
1.21164
1.21157
1.2115
1.21144
1.21137
1.2113
1.21123
1.21117
1.2111
1.21104
1.21098
1.21092
1.21086
1.21081
1.21077
1.21072
1.21069
1.21065
1.21063
1.21061
1.21059
1.21058
1.21058
1.21059
1.21061
1.21063
1.21066
1.2107
1.21075
1.2108
1.21087
1.21094
1.21102
1.21111
1.21121
1.21132
1.21143
1.21156
1.21169
1.21183
1.21198
1.21214
1.21231
1.21248
1.21267
1.21285
1.21305
1.21325
1.21347
1.21368
1.2139
1.21413
1.21436
1.2146
1.21484
1.21508
1.21533
1.21557
1.21582
1.21607
1.21632
1.21657
1.21682
1.21706
1.2173
1.21754
1.21778
1.21801
1.21823
1.21845
1.21867
1.21887
1.21907
1.21926
1.21944
1.21961
1.21978
1.21993
1.22007
1.2202
1.22032
1.22044
1.22054
1.22063
1.22071
1.22078
1.22084
1.2209
1.22094
1.22098
1.22101
1.22103
1.22105
1.22106
1.22106
1.22106
1.22106
1.22105
1.22104
1.22102
1.221
1.22098
1.22096
1.22093
1.2209
1.22088
1.22085
1.22082
1.22079
1.22076
1.22073
1.2207
1.22067
1.22064
1.22061
1.22059
1.22056
1.22054
1.22051
1.22049
1.22047
1.22045
1.22043
1.22041
1.2204
1.22038
1.22037
1.22036
1.22035
1.22034
1.22033
1.22033
1.22032
1.22032
1.22031
1.22031
1.22031
1.22031
1.22031
1.22031
1.22031
1.22032
1.22032
1.22032
1.22032
1.22033
1.22033
1.22033
1.22033
1.22034
1.22034
1.22034
1.22034
1.22034
1.22034
1.22034
1.22034
1.22033
1.22033
1.22033
1.22032
1.22031
1.22031
1.2203
1.22029
1.22028
1.22027
1.22026
1.22024
1.22023
1.22022
1.2202
1.22019
1.22017
1.22016
1.22014
1.22013
1.22012
1.2201
1.22009
1.22008
1.22007
1.22006
1.22006
1.22005
1.22005
1.22005
1.22006
1.22006
1.22007
1.22009
1.22011
1.22013
1.22016
1.22019
1.22023
1.22028
1.22033
1.22039
1.22045
1.22053
1.2206
1.22069
1.22079
1.22089
1.221
1.22112
1.22125
1.22139
1.22154
1.2217
1.22187
1.22204
1.22223
1.22242
1.22263
1.22284
1.22306
1.2233
1.22354
1.22379
1.22405
1.22431
1.22458
1.22486
1.22515
1.22544
1.22574
1.22604
1.22635
1.22666
1.22697
1.22728
1.22759
1.22791
1.22822
1.22853
1.22883
1.22914
1.22943
1.22973
1.23001
1.23029
1.23057
1.23083
1.23109
1.23134
1.23157
1.2318
1.23203
1.23224
1.23244
1.23264
1.23282
1.233
1.23317
1.23333
1.23349
1.23363
1.23378
1.23391
1.23404
1.23417
1.23429
1.2344
1.23451
1.23462
1.23472
1.23482
1.23492
1.23501
1.2351
1.23519
1.23528
1.23536
1.23544
1.23552
1.23559
1.23567
1.23574
1.2358
1.23587
1.23593
1.23599
1.23605
1.23611
1.23616
1.23621
1.23626
1.23631
1.23636
1.2364
1.23645
1.23649
1.23654
1.23658
1.23663
1.23667
1.23672
1.23678
1.23683
1.23689
1.23696
1.23703
1.2371
1.23719
1.23728
1.23738
1.23749
1.23761
1.23775
1.2379
1.23806
1.23823
1.23843
1.23863
1.23886
1.23911
1.23937
1.23966
1.23996
1.24029
1.24065
1.24103
1.24143
1.24186
1.24232
1.24281
1.24332
1.24387
1.24445
1.24506
1.24571
1.24639
1.24711
1.24787
1.24867
1.24951
1.2504
1.25134
1.25233
1.25338
1.25449
1.25566
1.25691
1.25825
1.25968
1.26121
1.26286
1.26466
1.26661
1.26874
1.27108
1.27365
1.27644
1.27942
1.28247
1.28535
1.28757
1.28869
1.28842
1.20461
1.20406
1.20405
1.20446
1.20511
1.20591
1.20672
1.20749
1.20818
1.2088
1.20933
1.20979
1.21018
1.21052
1.21081
1.21105
1.21126
1.21143
1.21158
1.2117
1.2118
1.21188
1.21194
1.21199
1.21202
1.21204
1.21205
1.21205
1.21204
1.21203
1.212
1.21198
1.21194
1.2119
1.21185
1.2118
1.21175
1.21169
1.21163
1.21157
1.21151
1.21144
1.21138
1.21131
1.21124
1.21118
1.21111
1.21105
1.21099
1.21093
1.21087
1.21082
1.21077
1.21072
1.21068
1.21064
1.21061
1.21059
1.21057
1.21055
1.21055
1.21055
1.21055
1.21057
1.21059
1.21063
1.21066
1.21071
1.21077
1.21084
1.21091
1.21099
1.21108
1.21119
1.21129
1.21141
1.21154
1.21167
1.21182
1.21197
1.21213
1.2123
1.21247
1.21265
1.21284
1.21304
1.21325
1.21346
1.21368
1.2139
1.21413
1.21437
1.2146
1.21485
1.21509
1.21534
1.21559
1.21584
1.21609
1.21634
1.21659
1.21684
1.21708
1.21733
1.21757
1.21781
1.21804
1.21827
1.21849
1.2187
1.21891
1.21911
1.2193
1.21948
1.21965
1.21981
1.21996
1.22011
1.22024
1.22036
1.22047
1.22057
1.22066
1.22074
1.2208
1.22086
1.22092
1.22096
1.22099
1.22102
1.22104
1.22106
1.22107
1.22107
1.22107
1.22106
1.22105
1.22104
1.22102
1.221
1.22098
1.22095
1.22093
1.2209
1.22087
1.22085
1.22082
1.22079
1.22076
1.22073
1.2207
1.22067
1.22064
1.22061
1.22059
1.22056
1.22054
1.22051
1.22049
1.22047
1.22045
1.22043
1.22042
1.2204
1.22039
1.22038
1.22037
1.22036
1.22035
1.22034
1.22034
1.22033
1.22033
1.22032
1.22032
1.22032
1.22032
1.22032
1.22032
1.22033
1.22033
1.22033
1.22033
1.22034
1.22034
1.22034
1.22035
1.22035
1.22035
1.22035
1.22036
1.22036
1.22036
1.22036
1.22036
1.22035
1.22035
1.22035
1.22034
1.22034
1.22033
1.22032
1.22032
1.22031
1.2203
1.22028
1.22027
1.22026
1.22025
1.22023
1.22022
1.2202
1.22019
1.22017
1.22016
1.22015
1.22013
1.22012
1.2201
1.22009
1.22008
1.22008
1.22007
1.22006
1.22006
1.22006
1.22007
1.22007
1.22008
1.2201
1.22012
1.22014
1.22017
1.2202
1.22024
1.22029
1.22034
1.2204
1.22046
1.22053
1.22061
1.2207
1.22079
1.2209
1.22101
1.22113
1.22126
1.2214
1.22155
1.22171
1.22187
1.22205
1.22224
1.22243
1.22264
1.22285
1.22308
1.22331
1.22355
1.22381
1.22406
1.22433
1.22461
1.22489
1.22518
1.22547
1.22577
1.22607
1.22638
1.22669
1.22701
1.22732
1.22764
1.22795
1.22826
1.22858
1.22888
1.22919
1.22949
1.22978
1.23007
1.23035
1.23062
1.23089
1.23114
1.23139
1.23163
1.23186
1.23207
1.23229
1.23249
1.23268
1.23286
1.23304
1.2332
1.23336
1.23352
1.23366
1.2338
1.23394
1.23406
1.23419
1.2343
1.23442
1.23453
1.23463
1.23473
1.23483
1.23493
1.23502
1.23511
1.2352
1.23528
1.23537
1.23545
1.23552
1.2356
1.23567
1.23574
1.23581
1.23588
1.23594
1.236
1.23606
1.23611
1.23617
1.23622
1.23627
1.23631
1.23636
1.2364
1.23645
1.23649
1.23653
1.23658
1.23662
1.23667
1.23671
1.23676
1.23682
1.23687
1.23694
1.237
1.23708
1.23716
1.23725
1.23735
1.23746
1.23758
1.23771
1.23786
1.23802
1.23819
1.23838
1.23859
1.23882
1.23906
1.23932
1.23961
1.23991
1.24024
1.24059
1.24097
1.24137
1.2418
1.24226
1.24274
1.24326
1.2438
1.24438
1.24499
1.24563
1.24631
1.24702
1.24778
1.24857
1.24941
1.25029
1.25122
1.25219
1.25322
1.25431
1.25546
1.25668
1.25798
1.25936
1.26083
1.2624
1.26409
1.26591
1.26787
1.26997
1.27221
1.27457
1.27696
1.27924
1.28122
1.28263
1.28318
1.28293
1.20605
1.20558
1.20548
1.20566
1.20607
1.2066
1.20718
1.20778
1.20834
1.20886
1.20932
1.20973
1.21009
1.21041
1.21068
1.21092
1.21112
1.21129
1.21144
1.21156
1.21167
1.21175
1.21182
1.21187
1.21191
1.21193
1.21195
1.21195
1.21195
1.21194
1.21192
1.21189
1.21186
1.21182
1.21178
1.21173
1.21168
1.21162
1.21157
1.21151
1.21145
1.21138
1.21132
1.21125
1.21119
1.21112
1.21106
1.211
1.21094
1.21088
1.21082
1.21077
1.21072
1.21067
1.21063
1.2106
1.21057
1.21054
1.21052
1.21051
1.2105
1.21051
1.21051
1.21053
1.21055
1.21059
1.21063
1.21068
1.21074
1.2108
1.21088
1.21096
1.21106
1.21116
1.21127
1.21139
1.21151
1.21165
1.21179
1.21195
1.21211
1.21228
1.21245
1.21264
1.21283
1.21303
1.21324
1.21345
1.21367
1.2139
1.21413
1.21437
1.21461
1.21485
1.2151
1.21535
1.2156
1.21585
1.21611
1.21636
1.21661
1.21686
1.21711
1.21736
1.2176
1.21784
1.21807
1.2183
1.21852
1.21874
1.21895
1.21915
1.21934
1.21952
1.21969
1.21986
1.22001
1.22015
1.22028
1.2204
1.22051
1.2206
1.22069
1.22077
1.22083
1.22089
1.22094
1.22098
1.22101
1.22104
1.22106
1.22107
1.22108
1.22108
1.22108
1.22107
1.22106
1.22104
1.22102
1.221
1.22098
1.22096
1.22093
1.2209
1.22087
1.22084
1.22081
1.22079
1.22076
1.22073
1.2207
1.22067
1.22064
1.22061
1.22059
1.22056
1.22054
1.22052
1.2205
1.22048
1.22046
1.22044
1.22042
1.22041
1.2204
1.22039
1.22037
1.22037
1.22036
1.22035
1.22035
1.22034
1.22034
1.22034
1.22034
1.22034
1.22034
1.22034
1.22034
1.22034
1.22035
1.22035
1.22035
1.22036
1.22036
1.22036
1.22037
1.22037
1.22037
1.22037
1.22038
1.22038
1.22038
1.22038
1.22038
1.22038
1.22037
1.22037
1.22036
1.22036
1.22035
1.22034
1.22034
1.22033
1.22032
1.2203
1.22029
1.22028
1.22027
1.22025
1.22024
1.22022
1.22021
1.22019
1.22018
1.22016
1.22015
1.22013
1.22012
1.22011
1.2201
1.22009
1.22008
1.22008
1.22007
1.22007
1.22008
1.22008
1.22009
1.22011
1.22013
1.22015
1.22018
1.22021
1.22025
1.22029
1.22034
1.2204
1.22047
1.22054
1.22062
1.2207
1.2208
1.2209
1.22101
1.22114
1.22127
1.22141
1.22155
1.22171
1.22188
1.22206
1.22224
1.22244
1.22265
1.22286
1.22309
1.22332
1.22357
1.22382
1.22408
1.22435
1.22463
1.22491
1.2252
1.2255
1.2258
1.2261
1.22642
1.22673
1.22704
1.22736
1.22768
1.228
1.22831
1.22863
1.22894
1.22924
1.22954
1.22984
1.23013
1.23041
1.23068
1.23095
1.2312
1.23145
1.23169
1.23191
1.23213
1.23234
1.23254
1.23273
1.23291
1.23308
1.23325
1.2334
1.23355
1.2337
1.23383
1.23396
1.23409
1.23421
1.23433
1.23444
1.23455
1.23465
1.23475
1.23485
1.23494
1.23503
1.23512
1.23521
1.23529
1.23538
1.23546
1.23553
1.23561
1.23568
1.23575
1.23582
1.23588
1.23595
1.23601
1.23606
1.23612
1.23617
1.23622
1.23627
1.23632
1.23636
1.2364
1.23645
1.23649
1.23653
1.23657
1.23661
1.23665
1.2367
1.23675
1.2368
1.23685
1.23691
1.23698
1.23705
1.23713
1.23722
1.23731
1.23742
1.23754
1.23767
1.23781
1.23797
1.23814
1.23833
1.23853
1.23876
1.239
1.23926
1.23954
1.23984
1.24017
1.24052
1.24089
1.24129
1.24172
1.24217
1.24266
1.24317
1.24371
1.24428
1.24489
1.24552
1.2462
1.24691
1.24765
1.24844
1.24926
1.25013
1.25104
1.252
1.25301
1.25407
1.25519
1.25637
1.25762
1.25894
1.26034
1.26182
1.2634
1.26507
1.26684
1.2687
1.27063
1.27258
1.27447
1.27618
1.27757
1.27848
1.27878
1.27845
1.20711
1.20672
1.20657
1.20664
1.20688
1.20724
1.20766
1.20811
1.20856
1.20899
1.20938
1.20974
1.21007
1.21035
1.21061
1.21083
1.21102
1.21119
1.21133
1.21146
1.21156
1.21164
1.21171
1.21177
1.21181
1.21184
1.21185
1.21186
1.21186
1.21185
1.21183
1.21181
1.21178
1.21175
1.21171
1.21166
1.21161
1.21156
1.2115
1.21145
1.21139
1.21133
1.21126
1.2112
1.21114
1.21107
1.21101
1.21095
1.21089
1.21083
1.21078
1.21072
1.21067
1.21063
1.21059
1.21055
1.21052
1.2105
1.21048
1.21047
1.21046
1.21046
1.21047
1.21049
1.21051
1.21055
1.21059
1.21064
1.2107
1.21077
1.21084
1.21093
1.21102
1.21113
1.21124
1.21136
1.21149
1.21162
1.21177
1.21192
1.21209
1.21226
1.21243
1.21262
1.21281
1.21302
1.21322
1.21344
1.21366
1.21389
1.21413
1.21436
1.21461
1.21485
1.2151
1.21536
1.21561
1.21587
1.21612
1.21638
1.21663
1.21689
1.21714
1.21739
1.21763
1.21787
1.21811
1.21834
1.21856
1.21878
1.21899
1.21919
1.21938
1.21957
1.21974
1.2199
1.22006
1.2202
1.22033
1.22044
1.22055
1.22065
1.22073
1.22081
1.22087
1.22093
1.22097
1.22101
1.22104
1.22106
1.22108
1.22109
1.2211
1.22109
1.22109
1.22108
1.22107
1.22105
1.22103
1.22101
1.22099
1.22096
1.22093
1.22091
1.22088
1.22085
1.22082
1.22079
1.22076
1.22073
1.2207
1.22067
1.22064
1.22062
1.22059
1.22057
1.22054
1.22052
1.2205
1.22048
1.22046
1.22045
1.22043
1.22042
1.22041
1.2204
1.22039
1.22038
1.22037
1.22037
1.22036
1.22036
1.22036
1.22035
1.22035
1.22035
1.22036
1.22036
1.22036
1.22036
1.22037
1.22037
1.22037
1.22038
1.22038
1.22039
1.22039
1.22039
1.2204
1.2204
1.2204
1.2204
1.2204
1.2204
1.2204
1.2204
1.2204
1.22039
1.22039
1.22038
1.22038
1.22037
1.22036
1.22035
1.22034
1.22033
1.22031
1.2203
1.22029
1.22027
1.22026
1.22024
1.22023
1.22021
1.2202
1.22018
1.22017
1.22015
1.22014
1.22013
1.22011
1.2201
1.2201
1.22009
1.22009
1.22009
1.22009
1.2201
1.2201
1.22012
1.22014
1.22016
1.22018
1.22022
1.22026
1.2203
1.22035
1.22041
1.22047
1.22054
1.22062
1.22071
1.2208
1.2209
1.22102
1.22114
1.22127
1.22141
1.22155
1.22171
1.22188
1.22206
1.22224
1.22244
1.22265
1.22287
1.22309
1.22333
1.22357
1.22383
1.22409
1.22436
1.22464
1.22493
1.22522
1.22552
1.22582
1.22613
1.22645
1.22676
1.22708
1.2274
1.22772
1.22804
1.22836
1.22868
1.22899
1.2293
1.22961
1.2299
1.23019
1.23048
1.23075
1.23102
1.23127
1.23152
1.23175
1.23198
1.2322
1.2324
1.2326
1.23279
1.23296
1.23313
1.2333
1.23345
1.2336
1.23374
1.23387
1.234
1.23412
1.23424
1.23435
1.23446
1.23457
1.23467
1.23477
1.23486
1.23496
1.23505
1.23514
1.23522
1.23531
1.23539
1.23547
1.23554
1.23562
1.23569
1.23576
1.23583
1.23589
1.23596
1.23602
1.23607
1.23613
1.23618
1.23623
1.23628
1.23632
1.23636
1.23641
1.23645
1.23649
1.23652
1.23656
1.2366
1.23664
1.23669
1.23673
1.23678
1.23683
1.23689
1.23695
1.23702
1.2371
1.23718
1.23727
1.23738
1.23749
1.23762
1.23776
1.23791
1.23808
1.23826
1.23847
1.23869
1.23892
1.23918
1.23946
1.23976
1.24008
1.24043
1.2408
1.24119
1.24162
1.24207
1.24254
1.24305
1.24359
1.24415
1.24475
1.24538
1.24605
1.24675
1.24748
1.24826
1.24907
1.24992
1.25081
1.25175
1.25274
1.25377
1.25485
1.25599
1.25718
1.25844
1.25976
1.26114
1.2626
1.26412
1.26571
1.26734
1.26898
1.27058
1.27208
1.27337
1.27436
1.27496
1.27511
1.27475
1.20792
1.20759
1.20743
1.20744
1.20758
1.20782
1.20812
1.20846
1.20881
1.20916
1.20949
1.2098
1.21008
1.21034
1.21057
1.21078
1.21096
1.21112
1.21125
1.21137
1.21147
1.21155
1.21162
1.21168
1.21172
1.21175
1.21177
1.21178
1.21178
1.21177
1.21176
1.21174
1.21171
1.21168
1.21164
1.2116
1.21155
1.2115
1.21144
1.21139
1.21133
1.21127
1.21121
1.21115
1.21108
1.21102
1.21096
1.2109
1.21084
1.21078
1.21073
1.21068
1.21063
1.21058
1.21054
1.21051
1.21048
1.21045
1.21043
1.21042
1.21042
1.21042
1.21043
1.21045
1.21047
1.21051
1.21055
1.2106
1.21066
1.21073
1.21081
1.21089
1.21099
1.21109
1.21121
1.21133
1.21146
1.2116
1.21174
1.2119
1.21206
1.21223
1.21241
1.2126
1.2128
1.213
1.21321
1.21343
1.21365
1.21388
1.21412
1.21436
1.21461
1.21486
1.21511
1.21536
1.21562
1.21588
1.21614
1.2164
1.21665
1.21691
1.21716
1.21742
1.21766
1.21791
1.21814
1.21838
1.2186
1.21883
1.21904
1.21924
1.21944
1.21962
1.21979
1.21996
1.22011
1.22025
1.22038
1.2205
1.2206
1.22069
1.22078
1.22085
1.22091
1.22097
1.22101
1.22104
1.22107
1.22109
1.22111
1.22111
1.22112
1.22111
1.22111
1.22109
1.22108
1.22106
1.22104
1.22102
1.22099
1.22097
1.22094
1.22091
1.22088
1.22085
1.22082
1.22079
1.22076
1.22073
1.2207
1.22068
1.22065
1.22062
1.2206
1.22057
1.22055
1.22053
1.22051
1.22049
1.22047
1.22046
1.22044
1.22043
1.22042
1.22041
1.2204
1.22039
1.22039
1.22038
1.22038
1.22038
1.22037
1.22037
1.22037
1.22037
1.22038
1.22038
1.22038
1.22039
1.22039