# vtk DataFile Version 2.0
LBE mesh
ASCII
DATASET STRUCTURED_POINTS
DIMENSIONS 400 100 1
ASPECT_RATIO 1 1 1
ORIGIN 0 0 0
POINT_DATA 40000
SCALARS rho double 1
LOOKUP_TABLE default
1.12865
1.20856
1.23163
1.23608
1.23819
1.24009
1.24149
1.2424
1.24302
1.24348
1.24383
1.24411
1.24434
1.24452
1.24467
1.2448
1.24491
1.245
1.24507
1.24514
1.2452
1.24524
1.24528
1.24531
1.24534
1.24536
1.24538
1.24539
1.2454
1.24541
1.24542
1.24542
1.24542
1.24542
1.24542
1.24542
1.24541
1.24541
1.24541
1.2454
1.2454
1.2454
1.2454
1.24541
1.24541
1.24542
1.24543
1.24545
1.24546
1.24549
1.24551
1.24554
1.24558
1.24562
1.24567
1.24573
1.24579
1.24586
1.24594
1.24602
1.24611
1.24621
1.24632
1.24644
1.24656
1.2467
1.24684
1.247
1.24716
1.24733
1.24752
1.24771
1.24791
1.24812
1.24834
1.24856
1.2488
1.24905
1.2493
1.24956
1.24983
1.25011
1.25039
1.25068
1.25098
1.25129
1.2516
1.25191
1.25223
1.25255
1.25288
1.25321
1.25355
1.25388
1.25421
1.25455
1.25488
1.25521
1.25555
1.25587
1.2562
1.25652
1.25683
1.25714
1.25744
1.25773
1.25802
1.2583
1.25857
1.25883
1.25908
1.25932
1.25954
1.25976
1.25996
1.26016
1.26034
1.26051
1.26066
1.26081
1.26094
1.26106
1.26117
1.26127
1.26136
1.26144
1.26151
1.26157
1.26162
1.26166
1.2617
1.26173
1.26175
1.26177
1.26179
1.26179
1.2618
1.2618
1.2618
1.2618
1.2618
1.26179
1.26178
1.26178
1.26177
1.26176
1.26175
1.26174
1.26174
1.26173
1.26172
1.26172
1.26171
1.26171
1.26171
1.26171
1.26171
1.26171
1.26172
1.26172
1.26173
1.26174
1.26175
1.26176
1.26178
1.26179
1.26181
1.26183
1.26185
1.26187
1.26189
1.26191
1.26193
1.26196
1.26199
1.26201
1.26204
1.26207
1.2621
1.26213
1.26216
1.26219
1.26222
1.26225
1.26228
1.26231
1.26234
1.26237
1.26241
1.26244
1.26247
1.2625
1.26254
1.26257
1.2626
1.26264
1.26267
1.2627
1.26274
1.26277
1.26281
1.26284
1.26288
1.26292
1.26296
1.263
1.26304
1.26308
1.26312
1.26317
1.26321
1.26326
1.26331
1.26337
1.26342
1.26348
1.26354
1.26361
1.26368
1.26375
1.26382
1.2639
1.26399
1.26408
1.26417
1.26427
1.26437
1.26448
1.26459
1.26472
1.26484
1.26498
1.26512
1.26526
1.26542
1.26558
1.26575
1.26593
1.26611
1.26631
1.26651
1.26672
1.26694
1.26717
1.26741
1.26765
1.26791
1.26818
1.26845
1.26874
1.26903
1.26934
1.26965
1.26997
1.27031
1.27065
1.271
1.27136
1.27173
1.27211
1.27249
1.27288
1.27328
1.27369
1.2741
1.27452
1.27495
1.27537
1.27581
1.27624
1.27668
1.27712
1.27756
1.278
1.27844
1.27887
1.2793
1.27973
1.28016
1.28058
1.28099
1.2814
1.28179
1.28218
1.28256
1.28293
1.28329
1.28364
1.28398
1.28431
1.28463
1.28493
1.28523
1.28551
1.28579
1.28605
1.2863
1.28655
1.28678
1.287
1.28722
1.28743
1.28762
1.28781
1.288
1.28817
1.28834
1.2885
1.28866
1.28881
1.28895
1.28909
1.28922
1.28935
1.28947
1.28959
1.28971
1.28982
1.28992
1.29002
1.29012
1.29021
1.2903
1.29039
1.29047
1.29055
1.29063
1.29071
1.29078
1.29086
1.29093
1.291
1.29107
1.29114
1.29122
1.29129
1.29137
1.29145
1.29153
1.29162
1.29171
1.29181
1.29191
1.29202
1.29214
1.29227
1.29241
1.29255
1.29271
1.29288
1.29306
1.29326
1.29346
1.29369
1.29393
1.29419
1.29446
1.29476
1.29507
1.2954
1.29576
1.29614
1.29654
1.29696
1.29741
1.29789
1.29839
1.29893
1.29949
1.30008
1.30071
1.30137
1.30207
1.3028
1.30358
1.30439
1.30525
1.30616
1.30712
1.30814
1.30921
1.31036
1.31158
1.31288
1.31428
1.31579
1.31743
1.31921
1.32117
1.32334
1.32578
1.32856
1.33177
1.33557
1.34019
1.34615
1.35453
1.36638
1.38271
1.41381
1.19843
1.2077
1.21989
1.2302
1.23552
1.23818
1.23983
1.24103
1.24192
1.24258
1.24308
1.24347
1.24378
1.24404
1.24425
1.24442
1.24457
1.24469
1.2448
1.24489
1.24496
1.24503
1.24508
1.24513
1.24517
1.2452
1.24523
1.24525
1.24527
1.24529
1.2453
1.24531
1.24532
1.24532
1.24533
1.24533
1.24533
1.24533
1.24533
1.24533
1.24533
1.24534
1.24534
1.24535
1.24536
1.24537
1.24538
1.2454
1.24542
1.24544
1.24547
1.24551
1.24555
1.24559
1.24564
1.2457
1.24577
1.24584
1.24592
1.246
1.2461
1.2462
1.24631
1.24643
1.24656
1.24669
1.24684
1.247
1.24716
1.24733
1.24752
1.24771
1.24791
1.24812
1.24834
1.24857
1.24881
1.24906
1.24931
1.24957
1.24985
1.25012
1.25041
1.2507
1.251
1.2513
1.25161
1.25193
1.25225
1.25257
1.2529
1.25323
1.25356
1.2539
1.25423
1.25456
1.2549
1.25523
1.25556
1.25588
1.25621
1.25652
1.25684
1.25714
1.25744
1.25774
1.25802
1.2583
1.25857
1.25882
1.25907
1.25931
1.25953
1.25975
1.25995
1.26014
1.26032
1.26049
1.26065
1.26079
1.26092
1.26104
1.26115
1.26125
1.26133
1.26141
1.26148
1.26154
1.26159
1.26164
1.26167
1.2617
1.26173
1.26175
1.26176
1.26177
1.26178
1.26178
1.26178
1.26178
1.26178
1.26177
1.26177
1.26176
1.26175
1.26174
1.26174
1.26173
1.26172
1.26172
1.26171
1.26171
1.2617
1.2617
1.2617
1.2617
1.2617
1.26171
1.26171
1.26172
1.26172
1.26173
1.26175
1.26176
1.26177
1.26179
1.2618
1.26182
1.26184
1.26186
1.26188
1.26191
1.26193
1.26196
1.26198
1.26201
1.26204
1.26206
1.26209
1.26212
1.26215
1.26218
1.26221
1.26224
1.26228
1.26231
1.26234
1.26237
1.2624
1.26244
1.26247
1.2625
1.26253
1.26257
1.2626
1.26263
1.26267
1.2627
1.26274
1.26277
1.26281
1.26284
1.26288
1.26292
1.26296
1.263
1.26304
1.26308
1.26312
1.26317
1.26322
1.26326
1.26332
1.26337
1.26343
1.26349
1.26355
1.26361
1.26368
1.26375
1.26383
1.26391
1.264
1.26408
1.26418
1.26428
1.26438
1.26449
1.26461
1.26473
1.26486
1.26499
1.26513
1.26528
1.26544
1.2656
1.26577
1.26595
1.26613
1.26633
1.26653
1.26674
1.26697
1.26719
1.26743
1.26768
1.26794
1.26821
1.26848
1.26877
1.26906
1.26937
1.26968
1.27001
1.27034
1.27068
1.27104
1.2714
1.27177
1.27214
1.27253
1.27292
1.27332
1.27373
1.27414
1.27456
1.27498
1.27541
1.27584
1.27628
1.27671
1.27715
1.27759
1.27803
1.27846
1.2789
1.27933
1.27975
1.28018
1.28059
1.281
1.28141
1.2818
1.28219
1.28257
1.28294
1.28329
1.28364
1.28398
1.28431
1.28462
1.28493
1.28522
1.2855
1.28578
1.28604
1.28629
1.28653
1.28676
1.28699
1.2872
1.28741
1.28761
1.28779
1.28798
1.28815
1.28832
1.28848
1.28864
1.28879
1.28893
1.28907
1.2892
1.28933
1.28946
1.28957
1.28969
1.2898
1.2899
1.29
1.2901
1.29019
1.29028
1.29037
1.29045
1.29054
1.29062
1.29069
1.29077
1.29084
1.29091
1.29099
1.29106
1.29113
1.29121
1.29128
1.29136
1.29144
1.29153
1.29162
1.29171
1.29181
1.29191
1.29203
1.29215
1.29228
1.29241
1.29256
1.29272
1.29289
1.29308
1.29328
1.29349
1.29372
1.29396
1.29422
1.2945
1.2948
1.29511
1.29545
1.29581
1.29619
1.29659
1.29702
1.29748
1.29796
1.29847
1.299
1.29957
1.30017
1.3008
1.30147
1.30217
1.30291
1.30369
1.30451
1.30538
1.3063
1.30727
1.3083
1.30939
1.31055
1.31178
1.31311
1.31453
1.31607
1.31774
1.31957
1.32158
1.32383
1.32636
1.32926
1.33264
1.33669
1.34169
1.348
1.35615
1.36796
1.38891
1.42262
1.21857
1.21613
1.22359
1.22985
1.23374
1.23654
1.23856
1.23998
1.24101
1.24179
1.2424
1.24288
1.24327
1.24358
1.24384
1.24406
1.24424
1.2444
1.24453
1.24464
1.24474
1.24482
1.24489
1.24495
1.245
1.24505
1.24509
1.24512
1.24515
1.24517
1.24519
1.2452
1.24521
1.24522
1.24523
1.24524
1.24525
1.24525
1.24525
1.24526
1.24526
1.24527
1.24528
1.24529
1.2453
1.24531
1.24533
1.24535
1.24537
1.2454
1.24543
1.24546
1.24551
1.24555
1.24561
1.24567
1.24573
1.24581
1.24589
1.24597
1.24607
1.24617
1.24629
1.24641
1.24654
1.24668
1.24683
1.24698
1.24715
1.24733
1.24751
1.2477
1.24791
1.24812
1.24834
1.24857
1.24881
1.24906
1.24931
1.24958
1.24985
1.25013
1.25042
1.25071
1.25101
1.25131
1.25162
1.25194
1.25226
1.25259
1.25291
1.25324
1.25358
1.25391
1.25424
1.25458
1.25491
1.25524
1.25557
1.2559
1.25622
1.25654
1.25685
1.25715
1.25745
1.25775
1.25803
1.25831
1.25857
1.25883
1.25907
1.25931
1.25954
1.25975
1.25995
1.26014
1.26032
1.26048
1.26064
1.26078
1.26091
1.26103
1.26114
1.26123
1.26132
1.2614
1.26146
1.26152
1.26157
1.26162
1.26165
1.26168
1.26171
1.26173
1.26174
1.26175
1.26176
1.26176
1.26176
1.26176
1.26176
1.26175
1.26175
1.26174
1.26174
1.26173
1.26172
1.26172
1.26171
1.2617
1.2617
1.26169
1.26169
1.26169
1.26169
1.26169
1.26169
1.2617
1.2617
1.26171
1.26172
1.26173
1.26174
1.26175
1.26177
1.26178
1.2618
1.26182
1.26184
1.26186
1.26188
1.2619
1.26193
1.26195
1.26198
1.26201
1.26203
1.26206
1.26209
1.26212
1.26215
1.26218
1.26221
1.26224
1.26227
1.26231
1.26234
1.26237
1.2624
1.26243
1.26247
1.2625
1.26253
1.26257
1.2626
1.26263
1.26267
1.2627
1.26274
1.26277
1.26281
1.26284
1.26288
1.26292
1.26296
1.263
1.26304
1.26308
1.26312
1.26317
1.26322
1.26327
1.26332
1.26337
1.26343
1.26349
1.26355
1.26362
1.26369
1.26376
1.26383
1.26391
1.264
1.26409
1.26418
1.26428
1.26439
1.2645
1.26462
1.26474
1.26487
1.265
1.26514
1.26529
1.26545
1.26561
1.26578
1.26596
1.26615
1.26634
1.26655
1.26676
1.26698
1.26721
1.26745
1.2677
1.26796
1.26823
1.26851
1.26879
1.26909
1.26939
1.26971
1.27003
1.27037
1.27071
1.27106
1.27142
1.27179
1.27217
1.27256
1.27295
1.27335
1.27376
1.27417
1.27459
1.27501
1.27544
1.27587
1.27631
1.27674
1.27718
1.27762
1.27805
1.27849
1.27892
1.27935
1.27978
1.2802
1.28062
1.28103
1.28143
1.28182
1.28221
1.28258
1.28295
1.2833
1.28365
1.28399
1.28431
1.28462
1.28493
1.28522
1.2855
1.28577
1.28603
1.28628
1.28652
1.28675
1.28698
1.28719
1.28739
1.28759
1.28778
1.28796
1.28814
1.28831
1.28847
1.28862
1.28877
1.28892
1.28905
1.28919
1.28932
1.28944
1.28956
1.28967
1.28978
1.28989
1.28999
1.29008
1.29018
1.29027
1.29036
1.29044
1.29052
1.2906
1.29068
1.29075
1.29083
1.2909
1.29097
1.29105
1.29112
1.29119
1.29127
1.29135
1.29143
1.29152
1.29161
1.2917
1.2918
1.29191
1.29202
1.29214
1.29227
1.29241
1.29256
1.29272
1.2929
1.29308
1.29328
1.2935
1.29373
1.29397
1.29423
1.29451
1.29481
1.29513
1.29547
1.29583
1.29622
1.29662
1.29706
1.29751
1.298
1.29851
1.29905
1.29962
1.30022
1.30086
1.30153
1.30223
1.30298
1.30376
1.30459
1.30546
1.30638
1.30736
1.30839
1.30949
1.31066
1.3119
1.31323
1.31467
1.31621
1.31789
1.31974
1.32177
1.32403
1.32658
1.32949
1.33288
1.33688
1.3417
1.34775
1.3556
1.3654
1.37605
1.38663
1.22653
1.2255
1.22781
1.23055
1.23363
1.23611
1.23793
1.2393
1.24036
1.2412
1.24186
1.2424
1.24283
1.24319
1.24349
1.24373
1.24395
1.24413
1.24428
1.24441
1.24453
1.24462
1.24471
1.24478
1.24485
1.2449
1.24495
1.24499
1.24502
1.24505
1.24508
1.2451
1.24511
1.24513
1.24514
1.24515
1.24516
1.24517
1.24518
1.24519
1.24519
1.2452
1.24521
1.24522
1.24524
1.24525
1.24527
1.24529
1.24532
1.24535
1.24538
1.24542
1.24546
1.24551
1.24556
1.24563
1.24569
1.24577
1.24585
1.24594
1.24604
1.24614
1.24626
1.24638
1.24651
1.24665
1.2468
1.24696
1.24713
1.24731
1.24749
1.24769
1.24789
1.24811
1.24833
1.24856
1.2488
1.24905
1.24931
1.24957
1.24985
1.25013
1.25041
1.25071
1.25101
1.25132
1.25163
1.25194
1.25227
1.25259
1.25292
1.25325
1.25359
1.25392
1.25426
1.25459
1.25492
1.25526
1.25559
1.25591
1.25623
1.25655
1.25686
1.25717
1.25747
1.25776
1.25804
1.25832
1.25858
1.25884
1.25909
1.25932
1.25954
1.25976
1.25996
1.26014
1.26032
1.26049
1.26064
1.26078
1.26091
1.26102
1.26113
1.26123
1.26131
1.26139
1.26145
1.26151
1.26156
1.2616
1.26164
1.26167
1.26169
1.26171
1.26173
1.26174
1.26174
1.26175
1.26175
1.26175
1.26174
1.26174
1.26174
1.26173
1.26172
1.26172
1.26171
1.2617
1.2617
1.26169
1.26169
1.26169
1.26168
1.26168
1.26168
1.26168
1.26169
1.26169
1.2617
1.2617
1.26171
1.26172
1.26174
1.26175
1.26176
1.26178
1.2618
1.26181
1.26184
1.26186
1.26188
1.2619
1.26193
1.26195
1.26198
1.262
1.26203
1.26206
1.26209
1.26212
1.26215
1.26218
1.26221
1.26224
1.26227
1.26231
1.26234
1.26237
1.2624
1.26243
1.26247
1.2625
1.26253
1.26257
1.2626
1.26263
1.26267
1.2627
1.26274
1.26277
1.26281
1.26284
1.26288
1.26292
1.26296
1.263
1.26304
1.26308
1.26312
1.26317
1.26322
1.26327
1.26332
1.26337
1.26343
1.26349
1.26355
1.26362
1.26369
1.26376
1.26384
1.26392
1.264
1.26409
1.26419
1.26429
1.26439
1.2645
1.26462
1.26474
1.26487
1.26501
1.26515
1.2653
1.26545
1.26562
1.26579
1.26597
1.26616
1.26635
1.26656
1.26677
1.26699
1.26722
1.26747
1.26771
1.26797
1.26824
1.26852
1.26881
1.2691
1.26941
1.26973
1.27005
1.27039
1.27073
1.27108
1.27145
1.27182
1.27219
1.27258
1.27297
1.27338
1.27378
1.2742
1.27462
1.27504
1.27547
1.2759
1.27634
1.27677
1.27721
1.27765
1.27808
1.27852
1.27895
1.27938
1.27981
1.28023
1.28064
1.28105
1.28145
1.28185
1.28223
1.2826
1.28297
1.28332
1.28367
1.284
1.28432
1.28463
1.28494
1.28523
1.2855
1.28577
1.28603
1.28628
1.28652
1.28675
1.28697
1.28718
1.28739
1.28758
1.28777
1.28795
1.28813
1.2883
1.28846
1.28861
1.28876
1.2889
1.28904
1.28918
1.2893
1.28943
1.28954
1.28966
1.28977
1.28987
1.28997
1.29007
1.29016
1.29025
1.29034
1.29043
1.29051
1.29059
1.29066
1.29074
1.29081
1.29088
1.29096
1.29103
1.2911
1.29118
1.29125
1.29133
1.29141
1.2915
1.29159
1.29168
1.29178
1.29189
1.29201
1.29213
1.29226
1.2924
1.29255
1.29271
1.29289
1.29307
1.29327
1.29349
1.29372
1.29396
1.29423
1.29451
1.29481
1.29513
1.29547
1.29584
1.29622
1.29663
1.29706
1.29752
1.29801
1.29852
1.29906
1.29964
1.30024
1.30088
1.30155
1.30226
1.303
1.30379
1.30462
1.30549
1.30642
1.30739
1.30843
1.30952
1.31069
1.31193
1.31326
1.31469
1.31623
1.3179
1.31972
1.32173
1.32396
1.32645
1.32928
1.33252
1.33629
1.34071
1.34588
1.35189
1.35859
1.36405
1.36427
1.23096
1.23051
1.23108
1.23261
1.23454
1.23627
1.23776
1.239
1.24
1.24081
1.24148
1.24202
1.24248
1.24286
1.24318
1.24345
1.24368
1.24388
1.24405
1.2442
1.24433
1.24444
1.24454
1.24462
1.24469
1.24476
1.24481
1.24486
1.2449
1.24494
1.24497
1.24499
1.24501
1.24503
1.24505
1.24506
1.24508
1.24509
1.2451
1.24511
1.24512
1.24513
1.24514
1.24516
1.24517
1.24519
1.24521
1.24523
1.24526
1.24529
1.24533
1.24537
1.24541
1.24546
1.24552
1.24558
1.24565
1.24572
1.24581
1.2459
1.246
1.2461
1.24622
1.24634
1.24648
1.24662
1.24677
1.24693
1.2471
1.24728
1.24747
1.24766
1.24787
1.24808
1.24831
1.24854
1.24878
1.24903
1.24929
1.24956
1.24983
1.25011
1.2504
1.2507
1.251
1.25131
1.25162
1.25194
1.25227
1.25259
1.25292
1.25326
1.25359
1.25393
1.25426
1.2546
1.25494
1.25527
1.2556
1.25593
1.25625
1.25657
1.25688
1.25719
1.25749
1.25778
1.25806
1.25834
1.2586
1.25886
1.2591
1.25934
1.25956
1.25977
1.25997
1.26016
1.26033
1.2605
1.26065
1.26079
1.26091
1.26103
1.26113
1.26123
1.26131
1.26139
1.26145
1.26151
1.26156
1.2616
1.26163
1.26166
1.26168
1.2617
1.26172
1.26173
1.26173
1.26174
1.26174
1.26174
1.26173
1.26173
1.26172
1.26172
1.26171
1.26171
1.2617
1.26169
1.26169
1.26168
1.26168
1.26168
1.26168
1.26167
1.26168
1.26168
1.26168
1.26169
1.26169
1.2617
1.26171
1.26172
1.26173
1.26174
1.26176
1.26178
1.26179
1.26181
1.26183
1.26185
1.26188
1.2619
1.26193
1.26195
1.26198
1.262
1.26203
1.26206
1.26209
1.26212
1.26215
1.26218
1.26221
1.26224
1.26227
1.26231
1.26234
1.26237
1.2624
1.26243
1.26247
1.2625
1.26253
1.26257
1.2626
1.26263
1.26267
1.2627
1.26273
1.26277
1.26281
1.26284
1.26288
1.26292
1.26296
1.26299
1.26304
1.26308
1.26312
1.26317
1.26322
1.26327
1.26332
1.26337
1.26343
1.26349
1.26355
1.26362
1.26369
1.26376
1.26384
1.26392
1.264
1.26409
1.26419
1.26429
1.26439
1.2645
1.26462
1.26474
1.26487
1.26501
1.26515
1.2653
1.26546
1.26562
1.26579
1.26597
1.26616
1.26636
1.26656
1.26678
1.267
1.26723
1.26747
1.26772
1.26798
1.26825
1.26853
1.26881
1.26911
1.26942
1.26974
1.27006
1.2704
1.27074
1.2711
1.27146
1.27183
1.27221
1.2726
1.27299
1.27339
1.2738
1.27422
1.27464
1.27506
1.27549
1.27593
1.27636
1.2768
1.27724
1.27768
1.27811
1.27855
1.27898
1.27941
1.27984
1.28026
1.28068
1.28108
1.28148
1.28188
1.28226
1.28263
1.283
1.28335
1.28369
1.28402
1.28434
1.28465
1.28495
1.28524
1.28552
1.28579
1.28604
1.28629
1.28653
1.28675
1.28697
1.28718
1.28739
1.28758
1.28777
1.28795
1.28812
1.28829
1.28845
1.2886
1.28875
1.2889
1.28903
1.28917
1.28929
1.28942
1.28953
1.28965
1.28976
1.28986
1.28996
1.29006
1.29015
1.29024
1.29033
1.29041
1.29049
1.29057
1.29065
1.29072
1.2908
1.29087
1.29094
1.29101
1.29109
1.29116
1.29124
1.29131
1.29139
1.29148
1.29157
1.29166
1.29176
1.29187
1.29198
1.29211
1.29224
1.29238
1.29253
1.29269
1.29286
1.29305
1.29325
1.29346
1.29369
1.29394
1.29421
1.29449
1.29479
1.29511
1.29545
1.29582
1.2962
1.29661
1.29705
1.29751
1.29799
1.29851
1.29905
1.29962
1.30023
1.30086
1.30154
1.30224
1.30299
1.30377
1.3046
1.30547
1.30639
1.30737
1.3084
1.30949
1.31064
1.31187
1.31319
1.3146
1.31611
1.31775
1.31953
1.32148
1.32363
1.32601
1.32867
1.33166
1.33503
1.33883
1.34301
1.34731
1.35118
1.35386
1.35314
1.23411
1.23356
1.23369
1.23453
1.23563
1.23683
1.23798
1.239
1.23987
1.24061
1.24124
1.24177
1.24222
1.24261
1.24293
1.24322
1.24346
1.24367
1.24385
1.24401
1.24415
1.24427
1.24438
1.24447
1.24455
1.24462
1.24468
1.24474
1.24478
1.24482
1.24486
1.24489
1.24492
1.24494
1.24496
1.24498
1.245
1.24501
1.24502
1.24504
1.24505
1.24506
1.24508
1.24509
1.24511
1.24513
1.24515
1.24517
1.2452
1.24523
1.24527
1.24531
1.24536
1.24541
1.24546
1.24553
1.2456
1.24567
1.24576
1.24585
1.24595
1.24606
1.24617
1.2463
1.24643
1.24658
1.24673
1.24689
1.24706
1.24724
1.24743
1.24763
1.24784
1.24805
1.24828
1.24851
1.24876
1.24901
1.24927
1.24954
1.24981
1.2501
1.25039
1.25068
1.25099
1.2513
1.25161
1.25193
1.25226
1.25259
1.25292
1.25326
1.25359
1.25393
1.25427
1.25461
1.25494
1.25528
1.25561
1.25594
1.25626
1.25658
1.2569
1.25721
1.25751
1.2578
1.25808
1.25836
1.25863
1.25888
1.25913
1.25936
1.25958
1.2598
1.25999
1.26018
1.26036
1.26052
1.26067
1.2608
1.26093
1.26104
1.26115
1.26124
1.26132
1.26139
1.26146
1.26151
1.26156
1.2616
1.26163
1.26166
1.26168
1.2617
1.26171
1.26172
1.26172
1.26173
1.26173
1.26173
1.26172
1.26172
1.26171
1.26171
1.2617
1.2617
1.26169
1.26169
1.26168
1.26168
1.26167
1.26167
1.26167
1.26167
1.26167
1.26167
1.26168
1.26168
1.26169
1.2617
1.26171
1.26172
1.26173
1.26174
1.26176
1.26177
1.26179
1.26181
1.26183
1.26185
1.26188
1.2619
1.26193
1.26195
1.26198
1.262
1.26203
1.26206
1.26209
1.26212
1.26215
1.26218
1.26221
1.26224
1.26227
1.26231
1.26234
1.26237
1.2624
1.26243
1.26247
1.2625
1.26253
1.26257
1.2626
1.26263
1.26267
1.2627
1.26273
1.26277
1.26281
1.26284
1.26288
1.26292
1.26295
1.26299
1.26304
1.26308
1.26312
1.26317
1.26322
1.26326
1.26332
1.26337
1.26343
1.26349
1.26355
1.26361
1.26368
1.26376
1.26383
1.26391
1.264
1.26409
1.26419
1.26428
1.26439
1.2645
1.26462
1.26474
1.26487
1.265
1.26515
1.2653
1.26545
1.26562
1.26579
1.26597
1.26616
1.26635
1.26656
1.26677
1.26699
1.26723
1.26747
1.26772
1.26798
1.26825
1.26853
1.26881
1.26911
1.26942
1.26974
1.27006
1.2704
1.27075
1.2711
1.27146
1.27184
1.27222
1.27261
1.273
1.27341
1.27382
1.27423
1.27465
1.27508
1.27551
1.27595
1.27638
1.27682
1.27726
1.2777
1.27814
1.27858
1.27902
1.27945
1.27987
1.2803
1.28071
1.28112
1.28152
1.28191
1.28229
1.28267
1.28303
1.28338
1.28372
1.28405
1.28437
1.28468
1.28498
1.28526
1.28554
1.2858
1.28606
1.2863
1.28654
1.28676
1.28698
1.28719
1.28739
1.28759
1.28777
1.28795
1.28812
1.28829
1.28845
1.2886
1.28875
1.28889
1.28903
1.28916
1.28929
1.28941
1.28953
1.28964
1.28975
1.28985
1.28995
1.29005
1.29014
1.29023
1.29032
1.2904
1.29048
1.29056
1.29063
1.29071
1.29078
1.29085
1.29092
1.29099
1.29107
1.29114
1.29121
1.29129
1.29137
1.29145
1.29154
1.29164
1.29173
1.29184
1.29195
1.29207
1.2922
1.29234
1.29249
1.29265
1.29283
1.29301
1.29321
1.29343
1.29366
1.2939
1.29417
1.29445
1.29475
1.29507
1.29541
1.29577
1.29616
1.29657
1.297
1.29746
1.29795
1.29846
1.299
1.29958
1.30018
1.30081
1.30148
1.30219
1.30293
1.30371
1.30454
1.3054
1.30632
1.30728
1.3083
1.30938
1.31052
1.31173
1.31302
1.3144
1.31587
1.31746
1.31918
1.32104
1.32307
1.3253
1.32774
1.33042
1.33333
1.33645
1.33964
1.34266
1.34498
1.34619
1.34591
1.23626
1.23567
1.23565
1.23606
1.23673
1.23755
1.23839
1.23919
1.23992
1.24056
1.24113
1.24162
1.24205
1.24242
1.24275
1.24303
1.24328
1.24349
1.24368
1.24385
1.24399
1.24412
1.24423
1.24433
1.24442
1.2445
1.24456
1.24462
1.24467
1.24472
1.24476
1.24479
1.24482
1.24485
1.24487
1.24489
1.24491
1.24493
1.24495
1.24496
1.24498
1.24499
1.24501
1.24502
1.24504
1.24506
1.24508
1.24511
1.24514
1.24517
1.24521
1.24525
1.2453
1.24535
1.24541
1.24547
1.24554
1.24562
1.2457
1.24579
1.2459
1.246
1.24612
1.24625
1.24638
1.24653
1.24668
1.24684
1.24701
1.2472
1.24739
1.24759
1.2478
1.24801
1.24824
1.24848
1.24872
1.24897
1.24924
1.24951
1.24978
1.25007
1.25036
1.25066
1.25097
1.25128
1.2516
1.25192
1.25225
1.25258
1.25291
1.25325
1.25359
1.25393
1.25427
1.25461
1.25495
1.25529
1.25562
1.25595
1.25628
1.2566
1.25692
1.25723
1.25753
1.25782
1.25811
1.25839
1.25865
1.25891
1.25916
1.25939
1.25962
1.25983
1.26003
1.26021
1.26038
1.26055
1.26069
1.26083
1.26095
1.26106
1.26117
1.26126
1.26134
1.26141
1.26147
1.26152
1.26156
1.2616
1.26163
1.26166
1.26168
1.26169
1.26171
1.26171
1.26172
1.26172
1.26172
1.26172
1.26172
1.26171
1.26171
1.2617
1.2617
1.26169
1.26168
1.26168
1.26167
1.26167
1.26167
1.26166
1.26166
1.26166
1.26167
1.26167
1.26167
1.26168
1.26168
1.26169
1.2617
1.26171
1.26173
1.26174
1.26176
1.26177
1.26179
1.26181
1.26183
1.26185
1.26188
1.2619
1.26193
1.26195
1.26198
1.26201
1.26203
1.26206
1.26209
1.26212
1.26215
1.26218
1.26221
1.26224
1.26228
1.26231
1.26234
1.26237
1.2624
1.26244
1.26247
1.2625
1.26253
1.26257
1.2626
1.26263
1.26267
1.2627
1.26274
1.26277
1.26281
1.26284
1.26288
1.26292
1.26295
1.26299
1.26303
1.26308
1.26312
1.26317
1.26321
1.26326
1.26331
1.26337
1.26342
1.26348
1.26355
1.26361
1.26368
1.26375
1.26383
1.26391
1.264
1.26409
1.26418
1.26428
1.26438
1.26449
1.26461
1.26473
1.26486
1.265
1.26514
1.26529
1.26545
1.26561
1.26578
1.26596
1.26615
1.26634
1.26655
1.26676
1.26699
1.26722
1.26746
1.26771
1.26797
1.26824
1.26852
1.26881
1.2691
1.26941
1.26973
1.27006
1.2704
1.27074
1.2711
1.27146
1.27184
1.27222
1.27261
1.273
1.27341
1.27382
1.27424
1.27466
1.27509
1.27553
1.27596
1.2764
1.27684
1.27729
1.27773
1.27817
1.27861
1.27905
1.27948
1.27991
1.28033
1.28075
1.28116
1.28156
1.28195
1.28234
1.28271
1.28307
1.28342
1.28376
1.28409
1.28441
1.28471
1.28501
1.28529
1.28557
1.28583
1.28608
1.28632
1.28656
1.28678
1.287
1.2872
1.2874
1.28759
1.28778
1.28795
1.28812
1.28829
1.28845
1.2886
1.28875
1.28889
1.28902
1.28916
1.28928
1.2894
1.28952
1.28963
1.28974
1.28985
1.28995
1.29004
1.29013
1.29022
1.29031
1.29039
1.29047
1.29055
1.29062
1.29069
1.29076
1.29083
1.2909
1.29097
1.29104
1.29112
1.29119
1.29126
1.29134
1.29142
1.29151
1.2916
1.2917
1.2918
1.29191
1.29203
1.29216
1.2923
1.29245
1.29261
1.29278
1.29296
1.29316
1.29337
1.2936
1.29385
1.29411
1.29439
1.29469
1.29501
1.29535
1.29571
1.29609
1.2965
1.29693
1.29739
1.29788
1.29839
1.29893
1.2995
1.3001
1.30073
1.3014
1.3021
1.30284
1.30361
1.30443
1.30529
1.30619
1.30714
1.30814
1.3092
1.31032
1.31151
1.31276
1.3141
1.31552
1.31705
1.31868
1.32043
1.32233
1.32437
1.32656
1.3289
1.33136
1.33386
1.33625
1.33834
1.33982
1.34041
1.34017
1.23774
1.23724
1.23713
1.23731
1.23772
1.23827
1.23888
1.23949
1.24008
1.24063
1.24112
1.24157
1.24196
1.24231
1.24262
1.24289
1.24314
1.24335
1.24354
1.24371
1.24386
1.24399
1.24411
1.24421
1.2443
1.24438
1.24445
1.24451
1.24457
1.24462
1.24466
1.2447
1.24473
1.24476
1.24479
1.24481
1.24483
1.24485
1.24487
1.24489
1.2449
1.24492
1.24494
1.24496
1.24498
1.245
1.24502
1.24505
1.24508
1.24511
1.24515
1.24519
1.24523
1.24529
1.24534
1.24541
1.24548
1.24556
1.24564
1.24574
1.24584
1.24595
1.24606
1.24619
1.24633
1.24647
1.24663
1.24679
1.24696
1.24714
1.24734
1.24754
1.24775
1.24797
1.2482
1.24843
1.24868
1.24893
1.2492
1.24947
1.24975
1.25003
1.25033
1.25063
1.25094
1.25125
1.25157
1.2519
1.25223
1.25256
1.2529
1.25324
1.25358
1.25393
1.25427
1.25461
1.25496
1.2553
1.25563
1.25597
1.2563
1.25662
1.25694
1.25725
1.25755
1.25785
1.25814
1.25842
1.25869
1.25894
1.25919
1.25943
1.25965
1.25986
1.26006
1.26025
1.26042
1.26058
1.26073
1.26086
1.26098
1.26109
1.26119
1.26128
1.26136
1.26142
1.26148
1.26153
1.26158
1.26161
1.26164
1.26166
1.26168
1.2617
1.26171
1.26171
1.26172
1.26172
1.26172
1.26172
1.26171
1.26171
1.2617
1.2617
1.26169
1.26168
1.26168
1.26167
1.26167
1.26166
1.26166
1.26166
1.26166
1.26166
1.26166
1.26166
1.26167
1.26167
1.26168
1.26169
1.2617
1.26171
1.26173
1.26174
1.26176
1.26177
1.26179
1.26181
1.26183
1.26186
1.26188
1.2619
1.26193
1.26195
1.26198
1.26201
1.26204
1.26206
1.26209
1.26212
1.26215
1.26219
1.26222
1.26225
1.26228
1.26231
1.26234
1.26237
1.26241
1.26244
1.26247
1.2625
1.26254
1.26257
1.2626
1.26263
1.26267
1.2627
1.26274
1.26277
1.26281
1.26284
1.26288
1.26292
1.26295
1.26299
1.26303
1.26308
1.26312
1.26316
1.26321
1.26326
1.26331
1.26336
1.26342
1.26348
1.26354
1.26361
1.26368
1.26375
1.26382
1.2639
1.26399
1.26408
1.26417
1.26427
1.26438
1.26449
1.2646
1.26472
1.26485
1.26499
1.26513
1.26528
1.26543
1.2656
1.26577
1.26595
1.26613
1.26633
1.26653
1.26675
1.26697
1.2672
1.26744
1.26769
1.26795
1.26822
1.2685
1.26879
1.26909
1.2694
1.26971
1.27004
1.27038
1.27073
1.27108
1.27145
1.27182
1.27221
1.2726
1.273
1.27341
1.27382
1.27424
1.27467
1.2751
1.27553
1.27597
1.27642
1.27686
1.27731
1.27775
1.2782
1.27864
1.27908
1.27952
1.27995
1.28037
1.28079
1.2812
1.2816
1.282
1.28238
1.28275
1.28312
1.28347
1.28381
1.28413
1.28445
1.28475
1.28505
1.28533
1.2856
1.28586
1.28611
1.28635
1.28658
1.2868
1.28701
1.28722
1.28742
1.28761
1.28779
1.28796
1.28813
1.28829
1.28845
1.2886
1.28875
1.28889
1.28902
1.28916
1.28928
1.2894
1.28952
1.28963
1.28974
1.28984
1.28994
1.29004
1.29013
1.29021
1.2903
1.29038
1.29046
1.29053
1.29061
1.29068
1.29075
1.29082
1.29088
1.29095
1.29102
1.29109
1.29116
1.29123
1.29131
1.29139
1.29148
1.29156
1.29166
1.29176
1.29187
1.29199
1.29211
1.29225
1.29239
1.29255
1.29272
1.2929
1.2931
1.29331
1.29353
1.29378
1.29404
1.29432
1.29461
1.29493
1.29527
1.29563
1.29601
1.29641
1.29684
1.2973
1.29778
1.29829
1.29882
1.29939
1.29999
1.30061
1.30127
1.30197
1.3027
1.30347
1.30427
1.30512
1.30601
1.30694
1.30793
1.30896
1.31005
1.3112
1.31242
1.31371
1.31507
1.31652
1.31805
1.31969
1.32143
1.32327
1.32521
1.32723
1.32927
1.33125
1.33305
1.33451
1.33547
1.3358
1.33546
1.23883
1.23841
1.23826
1.23832
1.23857
1.23894
1.23937
1.23984
1.24031
1.24076
1.24119
1.24158
1.24193
1.24225
1.24254
1.2428
1.24303
1.24324
1.24343
1.24359
1.24374
1.24387
1.24399
1.2441
1.24419
1.24427
1.24435
1.24441
1.24447
1.24452
1.24457
1.24461
1.24465
1.24468
1.24471
1.24473
1.24475
1.24478
1.2448
1.24481
1.24483
1.24485
1.24487
1.24489
1.24491
1.24493
1.24495
1.24498
1.24501
1.24504
1.24508
1.24512
1.24517
1.24522
1.24528
1.24534
1.24542
1.24549
1.24558
1.24567
1.24577
1.24588
1.246
1.24613
1.24627
1.24641
1.24657
1.24673
1.2469
1.24709
1.24728
1.24748
1.24769
1.24791
1.24814
1.24838
1.24863
1.24889
1.24915
1.24942
1.24971
1.24999
1.25029
1.25059
1.2509
1.25122
1.25154
1.25187
1.2522
1.25254
1.25288
1.25323
1.25357
1.25392
1.25427
1.25461
1.25496
1.2553
1.25564
1.25598
1.25631
1.25664
1.25696
1.25727
1.25758
1.25788
1.25817
1.25845
1.25872
1.25898
1.25923
1.25947
1.25969
1.2599
1.2601
1.26029
1.26046
1.26062
1.26077
1.2609
1.26102
1.26113
1.26122
1.26131
1.26138
1.26145
1.2615
1.26155
1.26159
1.26162
1.26165
1.26167
1.26169
1.2617
1.26171
1.26172
1.26172
1.26172
1.26172
1.26171
1.26171
1.2617
1.2617
1.26169
1.26169
1.26168
1.26167
1.26167
1.26166
1.26166
1.26166
1.26166
1.26166
1.26166
1.26166
1.26166
1.26167
1.26167
1.26168
1.26169
1.2617
1.26171
1.26173
1.26174
1.26176
1.26177
1.26179
1.26181
1.26183
1.26186
1.26188
1.2619
1.26193
1.26196
1.26198
1.26201
1.26204
1.26207
1.2621
1.26213
1.26216
1.26219
1.26222
1.26225
1.26228
1.26231
1.26235
1.26238
1.26241
1.26244
1.26247
1.26251
1.26254
1.26257
1.2626
1.26264
1.26267
1.2627
1.26274
1.26277
1.26281
1.26284
1.26288
1.26292
1.26295
1.26299
1.26303
1.26307
1.26312
1.26316
1.26321
1.26326
1.26331
1.26336
1.26342
1.26348
1.26354
1.2636
1.26367
1.26374
1.26382
1.2639
1.26398
1.26407
1.26416
1.26426
1.26436
1.26447
1.26459
1.26471
1.26484
1.26497
1.26511
1.26526
1.26542
1.26558
1.26575
1.26593
1.26611
1.26631
1.26651
1.26673
1.26695
1.26718
1.26742
1.26767
1.26793
1.2682
1.26848
1.26877
1.26906
1.26937
1.26969
1.27002
1.27036
1.27071
1.27106
1.27143
1.27181
1.27219
1.27259
1.27299
1.2734
1.27381
1.27423
1.27466
1.2751
1.27554
1.27598
1.27642
1.27687
1.27732
1.27777
1.27822
1.27867
1.27911
1.27955
1.27998
1.28041
1.28083
1.28125
1.28165
1.28205
1.28243
1.2828
1.28317
1.28352
1.28386
1.28418
1.2845
1.2848
1.28509
1.28537
1.28564
1.2859
1.28614
1.28638
1.28661
1.28683
1.28704
1.28724
1.28743
1.28762
1.2878
1.28798
1.28814
1.2883
1.28846
1.28861
1.28875
1.28889
1.28903
1.28916
1.28928
1.2894
1.28952
1.28963
1.28974
1.28984
1.28994
1.29003
1.29012
1.29021
1.29029
1.29037
1.29045
1.29052
1.29059
1.29066
1.29073
1.2908
1.29086
1.29093
1.291
1.29106
1.29113
1.2912
1.29128
1.29135
1.29144
1.29152
1.29161
1.29171
1.29182
1.29193
1.29206
1.29219
1.29233
1.29249
1.29265
1.29283
1.29302
1.29323
1.29346
1.29369
1.29395
1.29423
1.29452
1.29483
1.29517
1.29552
1.2959
1.2963
1.29673
1.29718
1.29766
1.29816
1.29869
1.29925
1.29984
1.30047
1.30112
1.30181
1.30253
1.30328
1.30408
1.30491
1.30578
1.3067
1.30766
1.30867
1.30972
1.31084
1.312
1.31323
1.31453
1.31589
1.31733
1.31884
1.32042
1.32207
1.32377
1.32549
1.32717
1.32874
1.3301
1.33114
1.33178
1.33195
1.33158
1.23966
1.23931
1.23914
1.23914
1.23928
1.23953
1.23985
1.2402
1.24057
1.24094
1.2413
1.24163
1.24195
1.24224
1.2425
1.24274
1.24296
1.24316
1.24334
1.2435
1.24365
1.24378
1.2439
1.244
1.2441
1.24418
1.24426
1.24432
1.24438
1.24444
1.24448
1.24453
1.24456
1.2446
1.24463
1.24466
1.24468
1.2447
1.24472
1.24474
1.24476
1.24478
1.2448
1.24482
1.24484
1.24486
1.24489
1.24491
1.24494
1.24498
1.24502
1.24506
1.24511
1.24516
1.24522
1.24528
1.24535
1.24543
1.24551
1.24561
1.24571
1.24582
1.24594
1.24606
1.2462
1.24635
1.2465
1.24667
1.24684
1.24702
1.24722
1.24742
1.24763
1.24786
1.24809
1.24833
1.24858
1.24883
1.2491
1.24937
1.24966
1.24995
1.25024
1.25055
1.25086
1.25118
1.25151
1.25184
1.25217
1.25252
1.25286
1.25321
1.25356
1.25391
1.25426
1.25461
1.25496
1.25531
1.25565
1.25599
1.25633
1.25666
1.25698
1.2573
1.25761
1.25791
1.2582
1.25849
1.25876
1.25902
1.25927
1.25951
1.25974
1.25995
1.26015
1.26034
1.26051
1.26067
1.26081
1.26094
1.26106
1.26116
1.26126
1.26134
1.26141
1.26147
1.26153
1.26157
1.26161
1.26164
1.26167
1.26168
1.2617
1.26171
1.26172
1.26172
1.26172
1.26172
1.26172
1.26171
1.26171
1.2617
1.2617
1.26169
1.26168
1.26168
1.26167
1.26167
1.26166
1.26166
1.26165
1.26165
1.26165
1.26165
1.26166
1.26166
1.26167
1.26167
1.26168
1.26169
1.2617
1.26171
1.26173
1.26174
1.26176
1.26178
1.2618
1.26182
1.26184
1.26186
1.26188
1.26191
1.26193
1.26196
1.26199
1.26201
1.26204
1.26207
1.2621
1.26213
1.26216
1.26219
1.26222
1.26225