# vtk DataFile Version 2.0
LBE mesh
ASCII
DATASET STRUCTURED_POINTS
DIMENSIONS 400 100 1
ASPECT_RATIO 1 1 1
ORIGIN 0 0 0
POINT_DATA 40000
SCALARS rho double 1
LOOKUP_TABLE default
1.20036
1.30023
1.32843
1.33306
1.33511
1.33718
1.33873
1.33974
1.34041
1.34091
1.3413
1.3416
1.34185
1.34205
1.34221
1.34235
1.34246
1.34255
1.34262
1.34268
1.34273
1.34276
1.34279
1.3428
1.34281
1.34281
1.3428
1.34279
1.34277
1.34274
1.34271
1.34267
1.34263
1.34259
1.34254
1.34249
1.34244
1.34238
1.34232
1.34226
1.3422
1.34214
1.34208
1.34203
1.34197
1.34191
1.34185
1.3418
1.34175
1.3417
1.34166
1.34162
1.34158
1.34155
1.34153
1.34151
1.34149
1.34149
1.34149
1.34149
1.34151
1.34153
1.34156
1.34161
1.34165
1.34171
1.34178
1.34186
1.34194
1.34204
1.34214
1.34226
1.34238
1.34252
1.34266
1.34281
1.34297
1.34314
1.34332
1.34351
1.34371
1.34391
1.34413
1.34435
1.34458
1.34482
1.34506
1.34531
1.34557
1.34583
1.3461
1.34638
1.34666
1.34694
1.34723
1.34752
1.34781
1.3481
1.3484
1.34869
1.34898
1.34928
1.34957
1.34985
1.35014
1.35042
1.3507
1.35097
1.35123
1.35149
1.35174
1.35199
1.35222
1.35245
1.35267
1.35288
1.35308
1.35326
1.35344
1.35361
1.35376
1.35391
1.35404
1.35416
1.35428
1.35438
1.35448
1.35456
1.35463
1.3547
1.35476
1.35481
1.35485
1.35489
1.35492
1.35494
1.35496
1.35498
1.35498
1.35499
1.35499
1.35499
1.35498
1.35497
1.35496
1.35494
1.35492
1.3549
1.35488
1.35486
1.35483
1.35481
1.35478
1.35475
1.35472
1.35469
1.35466
1.35463
1.35459
1.35456
1.35453
1.35449
1.35446
1.35442
1.35439
1.35435
1.35432
1.35428
1.35425
1.35421
1.35417
1.35414
1.3541
1.35407
1.35403
1.354
1.35396
1.35392
1.35389
1.35385
1.35382
1.35379
1.35375
1.35372
1.35369
1.35365
1.35362
1.35359
1.35356
1.35353
1.3535
1.35348
1.35345
1.35343
1.3534
1.35338
1.35336
1.35334
1.35332
1.35331
1.35329
1.35328
1.35327
1.35326
1.35326
1.35325
1.35325
1.35326
1.35326
1.35327
1.35328
1.35329
1.35331
1.35333
1.35336
1.35339
1.35342
1.35346
1.3535
1.35355
1.3536
1.35365
1.35371
1.35378
1.35385
1.35393
1.35401
1.3541
1.3542
1.3543
1.35441
1.35452
1.35465
1.35478
1.35491
1.35506
1.35521
1.35537
1.35553
1.35571
1.35589
1.35608
1.35628
1.35649
1.3567
1.35693
1.35716
1.3574
1.35765
1.35791
1.35817
1.35845
1.35873
1.35902
1.35932
1.35962
1.35994
1.36026
1.36059
1.36092
1.36126
1.36161
1.36196
1.36232
1.36268
1.36305
1.36342
1.36379
1.36416
1.36454
1.36491
1.36529
1.36566
1.36603
1.3664
1.36676
1.36713
1.36748
1.36783
1.36817
1.36851
1.36883
1.36915
1.36946
1.36976
1.37005
1.37033
1.3706
1.37086
1.3711
1.37134
1.37156
1.37178
1.37198
1.37218
1.37236
1.37254
1.37271
1.37287
1.37302
1.37316
1.3733
1.37343
1.37355
1.37367
1.37378
1.37388
1.37398
1.37408
1.37418
1.37427
1.37435
1.37443
1.37451
1.37459
1.37467
1.37474
1.37481
1.37488
1.37494
1.375
1.37507
1.37513
1.37519
1.37525
1.37531
1.37536
1.37542
1.37548
1.37554
1.37559
1.37565
1.37572
1.37578
1.37585
1.37591
1.37599
1.37606
1.37615
1.37623
1.37633
1.37643
1.37653
1.37665
1.37678
1.37691
1.37706
1.37722
1.37739
1.37757
1.37777
1.37799
1.37822
1.37846
1.37873
1.37901
1.37931
1.37964
1.37999
1.38035
1.38075
1.38116
1.38161
1.38207
1.38257
1.3831
1.38365
1.38424
1.38486
1.38551
1.3862
1.38692
1.38768
1.38849
1.38933
1.39022
1.39116
1.39215
1.3932
1.3943
1.39547
1.39671
1.39803
1.39945
1.40096
1.40259
1.40435
1.40627
1.40837
1.41071
1.41333
1.4163
1.41974
1.42381
1.42876
1.43515
1.44407
1.45661
1.4749
1.51184
1.29284
1.30043
1.31377
1.32594
1.33212
1.33509
1.33689
1.33821
1.33919
1.33991
1.34046
1.34089
1.34124
1.34151
1.34174
1.34193
1.34208
1.34221
1.34232
1.3424
1.34247
1.34253
1.34257
1.3426
1.34262
1.34263
1.34264
1.34263
1.34262
1.3426
1.34258
1.34255
1.34251
1.34247
1.34243
1.34239
1.34234
1.34229
1.34223
1.34218
1.34213
1.34207
1.34201
1.34196
1.3419
1.34185
1.34179
1.34174
1.3417
1.34165
1.34161
1.34157
1.34154
1.34151
1.34149
1.34147
1.34146
1.34146
1.34146
1.34147
1.34149
1.34151
1.34155
1.34159
1.34164
1.3417
1.34177
1.34185
1.34194
1.34204
1.34214
1.34226
1.34239
1.34252
1.34267
1.34282
1.34298
1.34315
1.34334
1.34352
1.34372
1.34393
1.34414
1.34437
1.3446
1.34484
1.34508
1.34533
1.34559
1.34586
1.34613
1.3464
1.34668
1.34696
1.34725
1.34754
1.34783
1.34812
1.34841
1.34871
1.349
1.34929
1.34958
1.34987
1.35015
1.35043
1.3507
1.35097
1.35124
1.3515
1.35175
1.35199
1.35222
1.35245
1.35266
1.35287
1.35306
1.35325
1.35343
1.35359
1.35374
1.35389
1.35402
1.35414
1.35425
1.35436
1.35445
1.35453
1.35461
1.35467
1.35473
1.35478
1.35482
1.35486
1.35489
1.35491
1.35493
1.35495
1.35496
1.35496
1.35496
1.35496
1.35495
1.35494
1.35493
1.35491
1.3549
1.35488
1.35486
1.35483
1.35481
1.35478
1.35476
1.35473
1.3547
1.35467
1.35464
1.35461
1.35458
1.35454
1.35451
1.35448
1.35444
1.35441
1.35437
1.35434
1.3543
1.35427
1.35423
1.3542
1.35416
1.35413
1.35409
1.35405
1.35402
1.35398
1.35395
1.35391
1.35388
1.35384
1.35381
1.35378
1.35374
1.35371
1.35368
1.35365
1.35361
1.35358
1.35355
1.35353
1.3535
1.35347
1.35345
1.35342
1.3534
1.35338
1.35336
1.35334
1.35332
1.3533
1.35329
1.35328
1.35327
1.35326
1.35326
1.35325
1.35325
1.35326
1.35326
1.35327
1.35328
1.3533
1.35332
1.35334
1.35336
1.35339
1.35343
1.35346
1.35351
1.35355
1.35361
1.35366
1.35372
1.35379
1.35386
1.35394
1.35403
1.35412
1.35421
1.35432
1.35443
1.35454
1.35466
1.35479
1.35493
1.35508
1.35523
1.35539
1.35555
1.35573
1.35591
1.3561
1.3563
1.35651
1.35673
1.35695
1.35719
1.35743
1.35768
1.35794
1.3582
1.35848
1.35876
1.35905
1.35935
1.35966
1.35997
1.3603
1.36062
1.36096
1.3613
1.36165
1.362
1.36236
1.36272
1.36308
1.36345
1.36382
1.36419
1.36457
1.36494
1.36532
1.36569
1.36606
1.36643
1.36679
1.36715
1.3675
1.36785
1.36819
1.36852
1.36885
1.36916
1.36947
1.36977
1.37006
1.37033
1.3706
1.37085
1.3711
1.37133
1.37156
1.37177
1.37198
1.37217
1.37235
1.37253
1.3727
1.37285
1.373
1.37315
1.37328
1.37341
1.37353
1.37365
1.37376
1.37387
1.37397
1.37407
1.37416
1.37425
1.37434
1.37442
1.3745
1.37458
1.37465
1.37473
1.3748
1.37486
1.37493
1.37499
1.37506
1.37512
1.37518
1.37524
1.3753
1.37535
1.37541
1.37547
1.37553
1.37559
1.37565
1.37571
1.37578
1.37584
1.37591
1.37599
1.37606
1.37615
1.37624
1.37633
1.37643
1.37654
1.37666
1.37679
1.37693
1.37707
1.37724
1.37741
1.3776
1.3778
1.37801
1.37825
1.3785
1.37876
1.37905
1.37936
1.37968
1.38003
1.38041
1.3808
1.38122
1.38167
1.38214
1.38264
1.38317
1.38373
1.38432
1.38495
1.3856
1.3863
1.38703
1.3878
1.38861
1.38946
1.39036
1.3913
1.3923
1.39336
1.39447
1.39566
1.39691
1.39825
1.39969
1.40122
1.40288
1.40468
1.40665
1.40882
1.41123
1.41395
1.41706
1.42068
1.42502
1.43036
1.43711
1.44589
1.45872
1.4812
1.51677
1.31473
1.31021
1.31861
1.32576
1.33008
1.3332
1.33546
1.33705
1.33819
1.33905
1.33972
1.34025
1.34068
1.34102
1.3413
1.34153
1.34173
1.34189
1.34202
1.34213
1.34223
1.3423
1.34236
1.3424
1.34244
1.34246
1.34247
1.34248
1.34248
1.34246
1.34245
1.34243
1.3424
1.34236
1.34233
1.34229
1.34224
1.3422
1.34215
1.3421
1.34205
1.34199
1.34194
1.34189
1.34183
1.34178
1.34173
1.34168
1.34164
1.3416
1.34156
1.34152
1.34149
1.34147
1.34145
1.34143
1.34143
1.34142
1.34143
1.34144
1.34146
1.34149
1.34153
1.34157
1.34162
1.34169
1.34176
1.34184
1.34193
1.34203
1.34214
1.34225
1.34238
1.34252
1.34267
1.34282
1.34298
1.34316
1.34334
1.34353
1.34373
1.34394
1.34416
1.34438
1.34461
1.34485
1.3451
1.34535
1.34561
1.34587
1.34614
1.34642
1.3467
1.34698
1.34727
1.34756
1.34785
1.34814
1.34843
1.34872
1.34902
1.34931
1.3496
1.34988
1.35017
1.35044
1.35072
1.35099
1.35125
1.3515
1.35175
1.35199
1.35223
1.35245
1.35266
1.35287
1.35306
1.35325
1.35342
1.35358
1.35374
1.35388
1.35401
1.35413
1.35424
1.35434
1.35443
1.35451
1.35459
1.35465
1.35471
1.35476
1.3548
1.35484
1.35487
1.35489
1.35491
1.35492
1.35493
1.35493
1.35494
1.35493
1.35493
1.35492
1.3549
1.35489
1.35487
1.35485
1.35483
1.35481
1.35479
1.35476
1.35474
1.35471
1.35468
1.35465
1.35462
1.35459
1.35456
1.35452
1.35449
1.35446
1.35443
1.35439
1.35436
1.35432
1.35429
1.35425
1.35422
1.35418
1.35415
1.35411
1.35408
1.35404
1.35401
1.35397
1.35394
1.3539
1.35387
1.35383
1.3538
1.35377
1.35373
1.3537
1.35367
1.35364
1.35361
1.35358
1.35355
1.35352
1.35349
1.35346
1.35344
1.35341
1.35339
1.35337
1.35335
1.35333
1.35331
1.3533
1.35329
1.35327
1.35326
1.35326
1.35325
1.35325
1.35325
1.35325
1.35326
1.35327
1.35328
1.3533
1.35331
1.35334
1.35336
1.35339
1.35343
1.35347
1.35351
1.35356
1.35361
1.35367
1.35373
1.3538
1.35387
1.35395
1.35403
1.35412
1.35422
1.35432
1.35443
1.35455
1.35467
1.3548
1.35494
1.35509
1.35524
1.3554
1.35557
1.35574
1.35593
1.35612
1.35632
1.35653
1.35675
1.35697
1.35721
1.35745
1.3577
1.35796
1.35823
1.3585
1.35879
1.35908
1.35938
1.35969
1.36
1.36032
1.36065
1.36099
1.36133
1.36168
1.36203
1.36239
1.36275
1.36311
1.36348
1.36385
1.36423
1.3646
1.36497
1.36535
1.36572
1.36609
1.36645
1.36682
1.36717
1.36753
1.36787
1.36821
1.36854
1.36887
1.36918
1.36949
1.36978
1.37007
1.37034
1.37061
1.37086
1.37111
1.37134
1.37156
1.37177
1.37198
1.37217
1.37235
1.37253
1.37269
1.37285
1.373
1.37314
1.37327
1.3734
1.37352
1.37364
1.37375
1.37386
1.37396
1.37406
1.37415
1.37424
1.37433
1.37441
1.37449
1.37457
1.37464
1.37472
1.37479
1.37485
1.37492
1.37499
1.37505
1.37511
1.37517
1.37523
1.37529
1.37535
1.3754
1.37546
1.37552
1.37558
1.37564
1.3757
1.37577
1.37584
1.37591
1.37598
1.37606
1.37614
1.37623
1.37633
1.37643
1.37654
1.37666
1.37679
1.37693
1.37708
1.37724
1.37742
1.3776
1.37781
1.37803
1.37826
1.37851
1.37878
1.37907
1.37938
1.37971
1.38006
1.38044
1.38084
1.38126
1.38171
1.38218
1.38269
1.38322
1.38378
1.38438
1.38501
1.38567
1.38636
1.3871
1.38787
1.38868
1.38954
1.39044
1.39139
1.3924
1.39346
1.39458
1.39577
1.39704
1.39838
1.39982
1.40137
1.40304
1.40485
1.40684
1.40902
1.41145
1.41419
1.41731
1.42094
1.42522
1.43039
1.43687
1.44526
1.4558
1.46725
1.47809
1.32246
1.32117
1.32363
1.32652
1.32995
1.33275
1.33477
1.33629
1.33747
1.3384
1.33913
1.33972
1.3402
1.34059
1.34091
1.34118
1.34141
1.34159
1.34175
1.34189
1.342
1.34209
1.34216
1.34222
1.34226
1.3423
1.34232
1.34233
1.34234
1.34234
1.34233
1.34231
1.34229
1.34226
1.34223
1.34219
1.34215
1.34211
1.34206
1.34201
1.34197
1.34192
1.34187
1.34182
1.34177
1.34172
1.34167
1.34162
1.34158
1.34154
1.3415
1.34147
1.34144
1.34142
1.3414
1.34139
1.34138
1.34138
1.34139
1.3414
1.34143
1.34146
1.3415
1.34154
1.3416
1.34166
1.34174
1.34182
1.34191
1.34201
1.34212
1.34224
1.34237
1.34251
1.34266
1.34281
1.34298
1.34315
1.34334
1.34353
1.34373
1.34394
1.34416
1.34438
1.34462
1.34486
1.3451
1.34536
1.34562
1.34588
1.34615
1.34643
1.34671
1.347
1.34728
1.34757
1.34786
1.34816
1.34845
1.34874
1.34904
1.34933
1.34961
1.3499
1.35018
1.35046
1.35074
1.351
1.35127
1.35152
1.35177
1.35201
1.35224
1.35246
1.35268
1.35288
1.35307
1.35325
1.35343
1.35359
1.35374
1.35388
1.35401
1.35412
1.35423
1.35433
1.35442
1.3545
1.35457
1.35464
1.35469
1.35474
1.35478
1.35482
1.35485
1.35487
1.35489
1.3549
1.35491
1.35491
1.35491
1.35491
1.3549
1.35489
1.35488
1.35487
1.35485
1.35483
1.35481
1.35479
1.35477
1.35474
1.35471
1.35469
1.35466
1.35463
1.3546
1.35457
1.35454
1.35451
1.35447
1.35444
1.35441
1.35437
1.35434
1.35431
1.35427
1.35424
1.3542
1.35417
1.35413
1.3541
1.35406
1.35403
1.35399
1.35396
1.35392
1.35389
1.35386
1.35382
1.35379
1.35375
1.35372
1.35369
1.35366
1.35363
1.3536
1.35357
1.35354
1.35351
1.35348
1.35346
1.35343
1.35341
1.35338
1.35336
1.35334
1.35332
1.35331
1.35329
1.35328
1.35327
1.35326
1.35325
1.35325
1.35324
1.35324
1.35325
1.35325
1.35326
1.35328
1.35329
1.35331
1.35333
1.35336
1.35339
1.35342
1.35346
1.35351
1.35355
1.35361
1.35366
1.35373
1.35379
1.35387
1.35395
1.35403
1.35412
1.35422
1.35432
1.35443
1.35455
1.35468
1.35481
1.35495
1.35509
1.35524
1.35541
1.35557
1.35575
1.35594
1.35613
1.35633
1.35654
1.35676
1.35698
1.35722
1.35746
1.35771
1.35797
1.35824
1.35852
1.3588
1.3591
1.3594
1.3597
1.36002
1.36034
1.36067
1.36101
1.36135
1.3617
1.36205
1.36241
1.36278
1.36314
1.36351
1.36388
1.36426
1.36463
1.365
1.36538
1.36575
1.36612
1.36648
1.36685
1.36721
1.36756
1.3679
1.36824
1.36857
1.3689
1.36921
1.36951
1.36981
1.37009
1.37036
1.37063
1.37088
1.37112
1.37135
1.37157
1.37178
1.37198
1.37218
1.37236
1.37253
1.37269
1.37285
1.373
1.37314
1.37327
1.3734
1.37352
1.37364
1.37375
1.37385
1.37395
1.37405
1.37414
1.37423
1.37432
1.3744
1.37448
1.37456
1.37464
1.37471
1.37478
1.37485
1.37491
1.37498
1.37504
1.3751
1.37516
1.37522
1.37528
1.37534
1.3754
1.37546
1.37551
1.37557
1.37563
1.3757
1.37576
1.37583
1.3759
1.37597
1.37605
1.37614
1.37622
1.37632
1.37642
1.37653
1.37665
1.37678
1.37692
1.37707
1.37724
1.37741
1.3776
1.37781
1.37802
1.37826
1.37851
1.37878
1.37907
1.37939
1.37972
1.38007
1.38045
1.38085
1.38127
1.38172
1.3822
1.38271
1.38324
1.38381
1.3844
1.38503
1.38569
1.38639
1.38713
1.3879
1.38872
1.38958
1.39048
1.39143
1.39244
1.3935
1.39462
1.39581
1.39708
1.39842
1.39986
1.4014
1.40306
1.40486
1.40683
1.40899
1.41138
1.41406
1.41709
1.42056
1.42459
1.42932
1.43486
1.44129
1.44843
1.45424
1.45438
1.32717
1.32674
1.32725
1.32889
1.33103
1.33294
1.33459
1.33596
1.33708
1.33797
1.33871
1.33931
1.33981
1.34023
1.34058
1.34087
1.34112
1.34133
1.34151
1.34166
1.34178
1.34189
1.34197
1.34204
1.3421
1.34214
1.34217
1.3422
1.34221
1.34221
1.34221
1.34219
1.34218
1.34215
1.34213
1.34209
1.34206
1.34202
1.34198
1.34193
1.34189
1.34184
1.34179
1.34174
1.3417
1.34165
1.3416
1.34156
1.34152
1.34148
1.34145
1.34142
1.34139
1.34137
1.34135
1.34134
1.34134
1.34134
1.34135
1.34136
1.34139
1.34142
1.34146
1.34151
1.34156
1.34163
1.3417
1.34179
1.34188
1.34199
1.3421
1.34222
1.34235
1.34249
1.34264
1.3428
1.34297
1.34314
1.34333
1.34352
1.34372
1.34393
1.34415
1.34438
1.34462
1.34486
1.34511
1.34536
1.34562
1.34589
1.34616
1.34644
1.34672
1.34701
1.3473
1.34759
1.34788
1.34817
1.34847
1.34876
1.34905
1.34935
1.34964
1.34992
1.3502
1.35048
1.35076
1.35103
1.35129
1.35154
1.35179
1.35203
1.35226
1.35248
1.35269
1.35289
1.35309
1.35327
1.35344
1.3536
1.35375
1.35388
1.35401
1.35413
1.35423
1.35433
1.35442
1.3545
1.35457
1.35463
1.35468
1.35473
1.35477
1.3548
1.35483
1.35485
1.35487
1.35488
1.35489
1.35489
1.35489
1.35489
1.35488
1.35487
1.35486
1.35484
1.35483
1.35481
1.35479
1.35477
1.35474
1.35472
1.35469
1.35466
1.35464
1.35461
1.35458
1.35455
1.35452
1.35449
1.35445
1.35442
1.35439
1.35436
1.35432
1.35429
1.35425
1.35422
1.35419
1.35415
1.35412
1.35408
1.35405
1.35401
1.35398
1.35394
1.35391
1.35388
1.35384
1.35381
1.35378
1.35374
1.35371
1.35368
1.35365
1.35362
1.35358
1.35355
1.35353
1.3535
1.35347
1.35344
1.35342
1.3534
1.35337
1.35335
1.35333
1.35331
1.3533
1.35328
1.35327
1.35326
1.35325
1.35324
1.35324
1.35323
1.35324
1.35324
1.35325
1.35325
1.35327
1.35328
1.3533
1.35332
1.35335
1.35338
1.35342
1.35345
1.3535
1.35355
1.3536
1.35366
1.35372
1.35379
1.35386
1.35394
1.35403
1.35412
1.35421
1.35432
1.35443
1.35455
1.35467
1.3548
1.35494
1.35509
1.35524
1.3554
1.35557
1.35575
1.35593
1.35613
1.35633
1.35654
1.35676
1.35698
1.35722
1.35746
1.35772
1.35798
1.35825
1.35852
1.35881
1.3591
1.35941
1.35972
1.36003
1.36036
1.36069
1.36103
1.36137
1.36172
1.36207
1.36243
1.3628
1.36317
1.36354
1.36391
1.36428
1.36466
1.36503
1.36541
1.36578
1.36615
1.36652
1.36688
1.36724
1.36759
1.36794
1.36828
1.36861
1.36893
1.36924
1.36955
1.36984
1.37012
1.37039
1.37066
1.37091
1.37115
1.37138
1.37159
1.3718
1.372
1.37219
1.37237
1.37254
1.3727
1.37286
1.373
1.37314
1.37327
1.3734
1.37352
1.37364
1.37375
1.37385
1.37395
1.37405
1.37414
1.37423
1.37432
1.3744
1.37448
1.37456
1.37463
1.3747
1.37477
1.37484
1.37491
1.37497
1.37503
1.3751
1.37516
1.37522
1.37527
1.37533
1.37539
1.37545
1.37551
1.37556
1.37562
1.37569
1.37575
1.37582
1.37589
1.37596
1.37604
1.37612
1.37621
1.37631
1.37641
1.37652
1.37664
1.37677
1.37691
1.37706
1.37722
1.3774
1.37759
1.37779
1.37801
1.37825
1.3785
1.37877
1.37906
1.37937
1.3797
1.38006
1.38043
1.38084
1.38126
1.38171
1.38219
1.3827
1.38323
1.3838
1.3844
1.38503
1.38569
1.38639
1.38712
1.3879
1.38871
1.38957
1.39047
1.39142
1.39242
1.39348
1.3946
1.39578
1.39704
1.39837
1.39979
1.40131
1.40295
1.40471
1.40663
1.40873
1.41103
1.41359
1.41644
1.41965
1.42326
1.42732
1.43179
1.43638
1.4405
1.44332
1.44256
1.33067
1.33005
1.33014
1.33105
1.33225
1.33357
1.33485
1.33597
1.33694
1.33776
1.33845
1.33904
1.33954
1.33996
1.34031
1.34062
1.34088
1.3411
1.34129
1.34145
1.34159
1.34171
1.3418
1.34188
1.34195
1.342
1.34204
1.34206
1.34208
1.34209
1.34209
1.34209
1.34207
1.34206
1.34203
1.342
1.34197
1.34193
1.34189
1.34185
1.34181
1.34176
1.34172
1.34167
1.34163
1.34158
1.34154
1.3415
1.34146
1.34142
1.34139
1.34136
1.34133
1.34131
1.3413
1.34129
1.34128
1.34129
1.3413
1.34131
1.34134
1.34137
1.34141
1.34146
1.34152
1.34159
1.34167
1.34175
1.34185
1.34195
1.34207
1.34219
1.34232
1.34246
1.34262
1.34278
1.34295
1.34312
1.34331
1.34351
1.34371
1.34392
1.34414
1.34437
1.34461
1.34485
1.3451
1.34536
1.34562
1.34589
1.34617
1.34645
1.34673
1.34702
1.34731
1.3476
1.34789
1.34819
1.34848
1.34878
1.34907
1.34937
1.34966
1.34994
1.35023
1.35051
1.35078
1.35105
1.35131
1.35157
1.35182
1.35206
1.35229
1.35251
1.35272
1.35292
1.35311
1.35329
1.35346
1.35362
1.35376
1.3539
1.35402
1.35414
1.35424
1.35434
1.35442
1.3545
1.35457
1.35462
1.35468
1.35472
1.35476
1.35479
1.35482
1.35484
1.35485
1.35486
1.35487
1.35487
1.35487
1.35487
1.35486
1.35485
1.35484
1.35482
1.35481
1.35479
1.35477
1.35474
1.35472
1.3547
1.35467
1.35464
1.35462
1.35459
1.35456
1.35453
1.3545
1.35447
1.35443
1.3544
1.35437
1.35434
1.3543
1.35427
1.35424
1.3542
1.35417
1.35414
1.3541
1.35407
1.35403
1.354
1.35396
1.35393
1.3539
1.35386
1.35383
1.3538
1.35376
1.35373
1.3537
1.35367
1.35363
1.3536
1.35357
1.35354
1.35351
1.35349
1.35346
1.35343
1.35341
1.35338
1.35336
1.35334
1.35332
1.3533
1.35329
1.35327
1.35326
1.35325
1.35324
1.35323
1.35323
1.35322
1.35322
1.35323
1.35323
1.35324
1.35325
1.35327
1.35329
1.35331
1.35334
1.35337
1.3534
1.35344
1.35348
1.35353
1.35359
1.35364
1.35371
1.35377
1.35385
1.35393
1.35401
1.3541
1.3542
1.35431
1.35442
1.35453
1.35466
1.35479
1.35493
1.35507
1.35523
1.35539
1.35556
1.35574
1.35592
1.35612
1.35632
1.35653
1.35675
1.35698
1.35721
1.35746
1.35771
1.35797
1.35824
1.35852
1.35881
1.3591
1.35941
1.35972
1.36004
1.36036
1.36069
1.36103
1.36138
1.36173
1.36209
1.36245
1.36281
1.36318
1.36356
1.36393
1.36431
1.36468
1.36506
1.36544
1.36581
1.36618
1.36655
1.36692
1.36728
1.36763
1.36798
1.36832
1.36865
1.36897
1.36928
1.36959
1.36988
1.37016
1.37043
1.37069
1.37094
1.37118
1.37141
1.37162
1.37183
1.37203
1.37221
1.37239
1.37256
1.37272
1.37287
1.37301
1.37315
1.37328
1.37341
1.37353
1.37364
1.37375
1.37385
1.37395
1.37405
1.37414
1.37423
1.37431
1.3744
1.37447
1.37455
1.37463
1.3747
1.37477
1.37484
1.3749
1.37497
1.37503
1.37509
1.37515
1.37521
1.37527
1.37532
1.37538
1.37544
1.3755
1.37556
1.37561
1.37568
1.37574
1.3758
1.37587
1.37595
1.37602
1.37611
1.37619
1.37629
1.37639
1.3765
1.37662
1.37675
1.37688
1.37703
1.3772
1.37737
1.37756
1.37776
1.37798
1.37822
1.37847
1.37874
1.37903
1.37934
1.37967
1.38003
1.3804
1.3808
1.38123
1.38168
1.38216
1.38266
1.3832
1.38376
1.38436
1.38499
1.38565
1.38635
1.38708
1.38785
1.38866
1.38952
1.39041
1.39136
1.39235
1.3934
1.39451
1.39568
1.39691
1.39822
1.39962
1.40111
1.4027
1.40441
1.40626
1.40827
1.41045
1.41283
1.41545
1.41832
1.42144
1.42477
1.42818
1.4314
1.43387
1.43513
1.43483
1.33304
1.33236
1.33232
1.33276
1.33348
1.33439
1.33531
1.33619
1.337
1.33771
1.33834
1.33888
1.33935
1.33976
1.34012
1.34042
1.34068
1.34091
1.34111
1.34128
1.34142
1.34154
1.34165
1.34173
1.34181
1.34186
1.34191
1.34194
1.34197
1.34198
1.34198
1.34198
1.34197
1.34196
1.34194
1.34191
1.34188
1.34185
1.34181
1.34177
1.34173
1.34169
1.34165
1.3416
1.34156
1.34151
1.34147
1.34143
1.34139
1.34136
1.34132
1.3413
1.34127
1.34125
1.34124
1.34123
1.34123
1.34123
1.34124
1.34126
1.34129
1.34132
1.34136
1.34142
1.34148
1.34155
1.34162
1.34171
1.34181
1.34191
1.34203
1.34216
1.34229
1.34243
1.34259
1.34275
1.34292
1.3431
1.34329
1.34348
1.34369
1.3439
1.34413
1.34436
1.3446
1.34484
1.34509
1.34535
1.34562
1.34589
1.34617
1.34645
1.34673
1.34702
1.34732
1.34761
1.34791
1.3482
1.3485
1.3488
1.34909
1.34939
1.34968
1.34997
1.35025
1.35054
1.35081
1.35108
1.35134
1.3516
1.35185
1.35209
1.35232
1.35254
1.35275
1.35295
1.35314
1.35332
1.35349
1.35364
1.35379
1.35392
1.35404
1.35415
1.35426
1.35435
1.35443
1.3545
1.35457
1.35463
1.35468
1.35472
1.35475
1.35478
1.35481
1.35483
1.35484
1.35485
1.35485
1.35486
1.35485
1.35485
1.35484
1.35483
1.35482
1.3548
1.35478
1.35476
1.35474
1.35472
1.3547
1.35467
1.35465
1.35462
1.35459
1.35456
1.35454
1.35451
1.35448
1.35444
1.35441
1.35438
1.35435
1.35432
1.35428
1.35425
1.35422
1.35418
1.35415
1.35412
1.35408
1.35405
1.35402
1.35398
1.35395
1.35391
1.35388
1.35385
1.35381
1.35378
1.35375
1.35372
1.35368
1.35365
1.35362
1.35359
1.35356
1.35353
1.3535
1.35347
1.35345
1.35342
1.35339
1.35337
1.35335
1.35333
1.35331
1.35329
1.35327
1.35326
1.35324
1.35323
1.35322
1.35322
1.35321
1.35321
1.35321
1.35321
1.35322
1.35323
1.35324
1.35325
1.35327
1.35329
1.35332
1.35335
1.35339
1.35342
1.35347
1.35351
1.35357
1.35362
1.35369
1.35376
1.35383
1.35391
1.35399
1.35408
1.35418
1.35429
1.3544
1.35451
1.35464
1.35477
1.35491
1.35506
1.35521
1.35537
1.35554
1.35572
1.35591
1.3561
1.3563
1.35651
1.35673
1.35696
1.3572
1.35744
1.3577
1.35796
1.35823
1.35851
1.3588
1.3591
1.3594
1.35971
1.36003
1.36036
1.36069
1.36104
1.36138
1.36174
1.36209
1.36246
1.36283
1.3632
1.36357
1.36395
1.36433
1.36471
1.36509
1.36547
1.36584
1.36622
1.36659
1.36696
1.36732
1.36767
1.36802
1.36836
1.3687
1.36902
1.36933
1.36963
1.36993
1.37021
1.37048
1.37074
1.37098
1.37122
1.37145
1.37166
1.37186
1.37206
1.37224
1.37242
1.37258
1.37274
1.37289
1.37303
1.37317
1.3733
1.37342
1.37354
1.37365
1.37375
1.37386
1.37396
1.37405
1.37414
1.37423
1.37431
1.3744
1.37447
1.37455
1.37462
1.3747
1.37477
1.37483
1.3749
1.37496
1.37503
1.37509
1.37515
1.3752
1.37526
1.37532
1.37538
1.37543
1.37549
1.37555
1.3756
1.37566
1.37573
1.37579
1.37586
1.37593
1.37601
1.37609
1.37617
1.37627
1.37637
1.37647
1.37659
1.37672
1.37685
1.377
1.37716
1.37734
1.37752
1.37772
1.37794
1.37817
1.37843
1.3787
1.37898
1.37929
1.37962
1.37997
1.38035
1.38075
1.38117
1.38162
1.3821
1.3826
1.38314
1.3837
1.38429
1.38492
1.38558
1.38627
1.387
1.38777
1.38857
1.38942
1.39031
1.39124
1.39223
1.39326
1.39435
1.3955
1.39671
1.398
1.39935
1.4008
1.40234
1.40398
1.40574
1.40763
1.40966
1.41185
1.4142
1.41671
1.41934
1.42201
1.42456
1.42678
1.42836
1.42897
1.42871
1.33466
1.33409
1.33395
1.33414
1.33459
1.33519
1.33586
1.33654
1.33719
1.33779
1.33834
1.33882
1.33926
1.33964
1.33998
1.34028
1.34054
1.34076
1.34096
1.34113
1.34128
1.3414
1.34151
1.3416
1.34168
1.34174
1.34179
1.34183
1.34186
1.34187
1.34188
1.34188
1.34188
1.34187
1.34185
1.34183
1.3418
1.34177
1.34173
1.3417
1.34166
1.34162
1.34157
1.34153
1.34149
1.34145
1.34141
1.34137
1.34133
1.34129
1.34126
1.34123
1.34121
1.34119
1.34118
1.34117
1.34117
1.34117
1.34119
1.34121
1.34123
1.34127
1.34131
1.34136
1.34143
1.3415
1.34158
1.34166
1.34176
1.34187
1.34199
1.34211
1.34225
1.3424
1.34255
1.34271
1.34289
1.34307
1.34326
1.34346
1.34367
1.34388
1.3441
1.34434
1.34458
1.34482
1.34508
1.34534
1.34561
1.34588
1.34616
1.34644
1.34673
1.34702
1.34732
1.34762
1.34792
1.34821
1.34852
1.34881
1.34911
1.34941
1.3497
1.34999
1.35028
1.35056
1.35084
1.35111
1.35138
1.35163
1.35188
1.35212
1.35236
1.35258
1.35279
1.35299
1.35318
1.35335
1.35352
1.35367
1.35382
1.35395
1.35407
1.35418
1.35428
1.35437
1.35445
1.35452
1.35458
1.35463
1.35468
1.35472
1.35475
1.35478
1.3548
1.35482
1.35483
1.35484
1.35484
1.35484
1.35484
1.35483
1.35482
1.35481
1.3548
1.35478
1.35476
1.35474
1.35472
1.3547
1.35468
1.35465
1.35463
1.3546
1.35457
1.35454
1.35451
1.35448
1.35445
1.35442
1.35439
1.35436
1.35433
1.3543
1.35427
1.35423
1.3542
1.35417
1.35413
1.3541
1.35407
1.35403
1.354
1.35397
1.35393
1.3539
1.35387
1.35383
1.3538
1.35377
1.35373
1.3537
1.35367
1.35364
1.35361
1.35357
1.35354
1.35352
1.35349
1.35346
1.35343
1.35341
1.35338
1.35336
1.35333
1.35331
1.35329
1.35327
1.35326
1.35324
1.35323
1.35322
1.35321
1.3532
1.35319
1.35319
1.35319
1.35319
1.3532
1.35321
1.35322
1.35323
1.35325
1.35327
1.3533
1.35333
1.35336
1.3534
1.35344
1.35349
1.35354
1.3536
1.35366
1.35373
1.3538
1.35388
1.35397
1.35406
1.35416
1.35426
1.35437
1.35449
1.35461
1.35474
1.35488
1.35503
1.35518
1.35534
1.35551
1.35569
1.35588
1.35607
1.35628
1.35649
1.35671
1.35694
1.35717
1.35742
1.35767
1.35794
1.35821
1.35849
1.35878
1.35908
1.35938
1.3597
1.36002
1.36035
1.36068
1.36103
1.36138
1.36173
1.36209
1.36246
1.36283
1.36321
1.36358
1.36396
1.36435
1.36473
1.36511
1.36549
1.36587
1.36625
1.36663
1.367
1.36736
1.36772
1.36807
1.36841
1.36875
1.36907
1.36938
1.36969
1.36998
1.37026
1.37053
1.37079
1.37103
1.37127
1.37149
1.3717
1.37191
1.3721
1.37228
1.37245
1.37261
1.37277
1.37291
1.37305
1.37319
1.37331
1.37343
1.37355
1.37366
1.37376
1.37387
1.37396
1.37406
1.37415
1.37423
1.37432
1.3744
1.37448
1.37455
1.37463
1.3747
1.37477
1.37483
1.3749
1.37496
1.37502
1.37508
1.37514
1.3752
1.37526
1.37531
1.37537
1.37542
1.37548
1.37554
1.37559
1.37565
1.37571
1.37578
1.37584
1.37591
1.37598
1.37606
1.37615
1.37624
1.37634
1.37644
1.37656
1.37668
1.37682
1.37696
1.37712
1.37729
1.37747
1.37767
1.37789
1.37812
1.37837
1.37864
1.37892
1.37923
1.37956
1.37991
1.38028
1.38068
1.3811
1.38154
1.38202
1.38252
1.38305
1.38361
1.3842
1.38482
1.38547
1.38616
1.38688
1.38764
1.38844
1.38928
1.39016
1.39108
1.39205
1.39306
1.39413
1.39526
1.39644
1.39769
1.399
1.40039
1.40186
1.40342
1.40508
1.40684
1.40871
1.41069
1.41277
1.41492
1.41711
1.41922
1.42114
1.42269
1.42372
1.42406
1.42369
1.33584
1.33538
1.3352
1.33526
1.33553
1.33593
1.33641
1.33693
1.33745
1.33794
1.33841
1.33884
1.33923
1.33958
1.3399
1.34018
1.34043
1.34065
1.34084
1.34101
1.34116
1.34128
1.34139
1.34149
1.34156
1.34163
1.34168
1.34172
1.34175
1.34177
1.34179
1.34179
1.34179
1.34178
1.34176
1.34174
1.34172
1.34169
1.34166
1.34162
1.34158
1.34154
1.3415
1.34146
1.34142
1.34138
1.34134
1.3413
1.34126
1.34123
1.3412
1.34117
1.34115
1.34113
1.34112
1.34111
1.34111
1.34111
1.34113
1.34115
1.34117
1.34121
1.34126
1.34131
1.34137
1.34144
1.34152
1.34161
1.34171
1.34182
1.34194
1.34207
1.34221
1.34236
1.34251
1.34268
1.34285
1.34303
1.34323
1.34343
1.34364
1.34385
1.34408
1.34431
1.34455
1.3448
1.34506
1.34532
1.34559
1.34587
1.34615
1.34644
1.34673
1.34702
1.34732
1.34762
1.34792
1.34823
1.34853
1.34883
1.34913
1.34943
1.34973
1.35002
1.35031
1.35059
1.35087
1.35115
1.35141
1.35167
1.35192
1.35217
1.3524
1.35262
1.35283
1.35303
1.35322
1.3534
1.35356
1.35371
1.35385
1.35398
1.3541
1.35421
1.3543
1.35439
1.35446
1.35453
1.35459
1.35464
1.35469
1.35472
1.35475
1.35478
1.3548
1.35481
1.35482
1.35483
1.35483
1.35483
1.35482
1.35481
1.3548
1.35479
1.35478
1.35476
1.35474
1.35472
1.3547
1.35468
1.35465
1.35463
1.3546
1.35458
1.35455
1.35452
1.35449
1.35446
1.35443
1.3544
1.35437
1.35434
1.35431
1.35428
1.35424
1.35421
1.35418
1.35415
1.35411
1.35408
1.35405
1.35401
1.35398
1.35395
1.35391
1.35388
1.35385
1.35381
1.35378
1.35375
1.35372
1.35368
1.35365
1.35362
1.35359
1.35356
1.35353
1.3535
1.35347
1.35344
1.35342
1.35339
1.35336
1.35334
1.35332
1.3533
1.35328
1.35326
1.35324
1.35322
1.35321
1.3532
1.35319
1.35318
1.35317
1.35317
1.35317
1.35317
1.35318
1.35319
1.3532
1.35321
1.35323
1.35325
1.35328
1.35331
1.35334
1.35338
1.35342
1.35346
1.35352
1.35357
1.35363
1.3537
1.35377
1.35385
1.35394
1.35403
1.35412
1.35423
1.35434
1.35445
1.35458
1.35471
1.35485
1.35499
1.35515
1.35531
1.35548
1.35566
1.35584
1.35604
1.35624
1.35645
1.35667
1.3569
1.35714
1.35739
1.35764
1.35791
1.35818
1.35846
1.35875
1.35905
1.35936
1.35967
1.36
1.36033
1.36067
1.36101
1.36137
1.36172
1.36209
1.36246
1.36283
1.36321
1.36359
1.36397
1.36436
1.36475
1.36513
1.36552
1.3659
1.36629
1.36666
1.36704
1.36741
1.36777
1.36812
1.36847
1.3688
1.36913
1.36944
1.36975
1.37004
1.37032
1.37059
1.37085
1.37109
1.37132
1.37154
1.37175
1.37195
1.37214
1.37232
1.37249
1.37265
1.3728
1.37294
1.37308
1.37321
1.37334
1.37345
1.37357
1.37367
1.37378
1.37388
1.37397
1.37406
1.37415
1.37424
1.37432
1.3744
1.37448
1.37455
1.37463
1.3747
1.37477
1.37483
1.3749
1.37496
1.37502
1.37508
1.37514
1.3752
1.37525
1.37531
1.37536
1.37542
1.37547
1.37553
1.37558
1.37564
1.3757
1.37576
1.37582
1.37589
1.37596
1.37604
1.37612
1.37621
1.3763
1.37641
1.37652
1.37664
1.37677
1.37691
1.37707
1.37724
1.37742
1.37762
1.37783
1.37806
1.3783
1.37857
1.37885
1.37915
1.37948
1.37982
1.38019
1.38058
1.381
1.38144
1.38191
1.38241
1.38294
1.38349
1.38407
1.38469
1.38534
1.38602
1.38673
1.38748
1.38827
1.3891
1.38996
1.39087
1.39182
1.39281
1.39386
1.39495
1.3961
1.3973
1.39857
1.3999
1.4013
1.40277
1.40431
1.40594
1.40764
1.40941
1.41123
1.41307
1.41487
1.41654
1.41799
1.41911
1.41978
1.41995
1.41956
1.33675
1.33636
1.33617
1.33617
1.33632
1.33659
1.33694
1.33733
1.33774
1.33815
1.33854
1.33891
1.33925
1.33957
1.33986
1.34012
1.34035
1.34056
1.34075
1.34091
1.34106
1.34118
1.34129
1.34139
1.34147
1.34153
1.34159
1.34163
1.34166
1.34168
1.3417
1.3417
1.3417
1.3417
1.34168
1.34166
1.34164
1.34161
1.34158
1.34155
1.34151
1.34147
1.34143
1.34139
1.34135
1.34131
1.34127
1.34123
1.3412
1.34116
1.34113
1.34111
1.34108
1.34107
1.34105
1.34105
1.34105
1.34105
1.34107
1.34109
1.34112
1.34115
1.3412
1.34125
1.34132
1.34139
1.34147
1.34156
1.34166
1.34177
1.34189
1.34202
1.34216
1.34231
1.34247
1.34263
1.34281
1.34299
1.34319
1.34339
1.3436
1.34382
1.34405
1.34428
1.34453
1.34478
1.34504
1.3453
1.34557
1.34585
1.34614
1.34643
1.34672
1.34702
1.34732
1.34762
1.34793
1.34823
1.34854
1.34884
1.34915
1.34945
1.34975
1.35005
1.35034
1.35062
1.35091
1.35118
1.35145
1.35171
1.35197
1.35221
1.35244
1.35267
1.35288
1.35308
1.35327
1.35344
1.35361
1.35376
1.35389
1.35402
1.35414
1.35424
1.35433
1.35441
1.35449
1.35455
1.35461
1.35465
1.3547
1.35473
1.35476
1.35478
1.3548
1.35481
1.35481
1.35482
1.35482
1.35481
1.35481
1.3548
1.35479
1.35477
1.35476
1.35474
1.35472
1.3547
1.35468
1.35466
1.35463
1.35461
1.35458
1.35455
1.35453
1.3545
1.35447
1.35444
1.35441
1.35438
1.35435
1.35432
1.35429
1.35426
1.35422
1.35419
1.35416
1.35413
1.35409
1.35406
1.35403
1.354
1.35396
1.35393
1.3539
1.35386