# vtk DataFile Version 2.0
LBE mesh
ASCII
DATASET STRUCTURED_POINTS
DIMENSIONS 400 100 1
ASPECT_RATIO 1 1 1
ORIGIN 0 0 0
POINT_DATA 40000
SCALARS rho double 1
LOOKUP_TABLE default
1.11391
1.18976
1.21177
1.21617
1.21828
1.22015
1.22151
1.2224
1.223
1.22344
1.22379
1.22406
1.22428
1.22446
1.22461
1.22473
1.22483
1.22492
1.22499
1.22505
1.22511
1.22515
1.22518
1.22521
1.22523
1.22525
1.22526
1.22526
1.22527
1.22526
1.22526
1.22525
1.22524
1.22522
1.22521
1.22519
1.22517
1.22514
1.22512
1.2251
1.22507
1.22505
1.22502
1.22499
1.22497
1.22494
1.22492
1.2249
1.22488
1.22486
1.22484
1.22483
1.22482
1.22482
1.22482
1.22482
1.22483
1.22484
1.22486
1.22488
1.22491
1.22495
1.22499
1.22504
1.2251
1.22517
1.22524
1.22532
1.22541
1.2255
1.22561
1.22572
1.22584
1.22597
1.22611
1.22626
1.22641
1.22657
1.22674
1.22692
1.22711
1.22731
1.22751
1.22772
1.22794
1.22817
1.2284
1.22864
1.22889
1.22914
1.2294
1.22966
1.22993
1.2302
1.23048
1.23076
1.23104
1.23133
1.23161
1.2319
1.23219
1.23248
1.23277
1.23305
1.23334
1.23362
1.2339
1.23418
1.23445
1.23472
1.23498
1.23523
1.23548
1.23573
1.23596
1.23619
1.23642
1.23663
1.23683
1.23703
1.23722
1.2374
1.23757
1.23773
1.23789
1.23804
1.23818
1.23831
1.23844
1.23856
1.23867
1.23878
1.23888
1.23897
1.23906
1.23915
1.23923
1.23931
1.23939
1.23946
1.23953
1.23959
1.23966
1.23972
1.23978
1.23983
1.23989
1.23994
1.23999
1.24004
1.24009
1.24014
1.24018
1.24023
1.24027
1.24032
1.24036
1.2404
1.24045
1.24049
1.24053
1.24057
1.24061
1.24065
1.24069
1.24073
1.24077
1.24081
1.24085
1.24089
1.24093
1.24097
1.24101
1.24104
1.24108
1.24112
1.24116
1.2412
1.24124
1.24128
1.24131
1.24135
1.24139
1.24143
1.24147
1.24151
1.24155
1.24158
1.24162
1.24166
1.2417
1.24174
1.24178
1.24182
1.24186
1.2419
1.24194
1.24198
1.24202
1.24206
1.24211
1.24215
1.2422
1.24224
1.24229
1.24233
1.24238
1.24243
1.24248
1.24253
1.24258
1.24264
1.24269
1.24275
1.24281
1.24287
1.24294
1.243
1.24307
1.24314
1.24321
1.24329
1.24337
1.24345
1.24354
1.24363
1.24372
1.24382
1.24392
1.24402
1.24413
1.24425
1.24437
1.24449
1.24462
1.24475
1.24489
1.24504
1.24519
1.24535
1.24551
1.24568
1.24586
1.24604
1.24624
1.24644
1.24664
1.24685
1.24708
1.24731
1.24754
1.24779
1.24804
1.2483
1.24857
1.24884
1.24913
1.24942
1.24972
1.25003
1.25034
1.25066
1.25099
1.25132
1.25166
1.252
1.25235
1.2527
1.25305
1.25341
1.25377
1.25413
1.2545
1.25486
1.25522
1.25558
1.25593
1.25629
1.25664
1.25698
1.25732
1.25765
1.25798
1.25829
1.2586
1.2589
1.2592
1.25948
1.25975
1.26002
1.26027
1.26052
1.26075
1.26098
1.2612
1.26141
1.26161
1.2618
1.26199
1.26216
1.26233
1.2625
1.26266
1.26281
1.26295
1.2631
1.26323
1.26337
1.26349
1.26362
1.26374
1.26386
1.26397
1.26408
1.26419
1.2643
1.2644
1.2645
1.2646
1.2647
1.26479
1.26489
1.26498
1.26507
1.26516
1.26525
1.26534
1.26542
1.26551
1.2656
1.26568
1.26577
1.26586
1.26595
1.26604
1.26613
1.26623
1.26633
1.26644
1.26655
1.26666
1.26678
1.26691
1.26705
1.26719
1.26734
1.26751
1.26768
1.26787
1.26806
1.26827
1.2685
1.26874
1.269
1.26927
1.26956
1.26987
1.2702
1.27056
1.27093
1.27132
1.27174
1.27219
1.27265
1.27315
1.27367
1.27422
1.2748
1.27541
1.27606
1.27673
1.27744
1.27819
1.27897
1.2798
1.28066
1.28157
1.28253
1.28354
1.2846
1.28572
1.28691
1.28817
1.28951
1.29094
1.29248
1.29414
1.29594
1.29791
1.30009
1.30252
1.30528
1.30847
1.31223
1.31679
1.32267
1.33092
1.34256
1.35867
1.38944
1.17904
1.18866
1.20062
1.21054
1.21568
1.21828
1.21989
1.22106
1.22193
1.22257
1.22305
1.22343
1.22374
1.22399
1.22419
1.22436
1.2245
1.22462
1.22472
1.22481
1.22488
1.22494
1.22499
1.22503
1.22507
1.22509
1.22511
1.22513
1.22514
1.22514
1.22515
1.22514
1.22514
1.22513
1.22512
1.2251
1.22508
1.22507
1.22505
1.22502
1.225
1.22498
1.22496
1.22493
1.22491
1.22489
1.22487
1.22485
1.22483
1.22482
1.2248
1.22479
1.22479
1.22478
1.22478
1.22479
1.2248
1.22481
1.22483
1.22486
1.22489
1.22493
1.22498
1.22503
1.22509
1.22516
1.22523
1.22531
1.2254
1.2255
1.22561
1.22572
1.22584
1.22598
1.22611
1.22626
1.22642
1.22658
1.22675
1.22693
1.22712
1.22732
1.22752
1.22774
1.22796
1.22818
1.22842
1.22865
1.2289
1.22915
1.22941
1.22968
1.22994
1.23022
1.23049
1.23077
1.23106
1.23134
1.23163
1.23191
1.2322
1.23249
1.23278
1.23306
1.23335
1.23363
1.23391
1.23418
1.23445
1.23472
1.23498
1.23523
1.23548
1.23572
1.23596
1.23618
1.23641
1.23662
1.23682
1.23702
1.2372
1.23738
1.23755
1.23771
1.23787
1.23802
1.23815
1.23829
1.23841
1.23853
1.23864
1.23875
1.23885
1.23895
1.23904
1.23913
1.23921
1.23929
1.23936
1.23944
1.2395
1.23957
1.23963
1.23969
1.23975
1.23981
1.23987
1.23992
1.23997
1.24002
1.24007
1.24012
1.24017
1.24021
1.24026
1.2403
1.24035
1.24039
1.24043
1.24047
1.24052
1.24056
1.2406
1.24064
1.24068
1.24072
1.24076
1.2408
1.24084
1.24088
1.24092
1.24096
1.241
1.24104
1.24107
1.24111
1.24115
1.24119
1.24123
1.24127
1.24131
1.24135
1.24139
1.24142
1.24146
1.2415
1.24154
1.24158
1.24162
1.24166
1.2417
1.24174
1.24178
1.24182
1.24186
1.2419
1.24194
1.24198
1.24202
1.24206
1.24211
1.24215
1.24219
1.24224
1.24228
1.24233
1.24238
1.24243
1.24248
1.24253
1.24258
1.24264
1.24269
1.24275
1.24281
1.24287
1.24294
1.243
1.24307
1.24314
1.24322
1.24329
1.24337
1.24346
1.24354
1.24363
1.24373
1.24382
1.24393
1.24403
1.24414
1.24426
1.24438
1.2445
1.24463
1.24476
1.24491
1.24505
1.2452
1.24536
1.24553
1.2457
1.24588
1.24606
1.24626
1.24646
1.24666
1.24688
1.2471
1.24733
1.24757
1.24781
1.24807
1.24833
1.2486
1.24887
1.24916
1.24945
1.24975
1.25006
1.25037
1.25069
1.25102
1.25135
1.25169
1.25203
1.25238
1.25273
1.25308
1.25344
1.2538
1.25416
1.25452
1.25488
1.25524
1.2556
1.25596
1.25631
1.25666
1.257
1.25734
1.25767
1.25799
1.2583
1.25861
1.25891
1.2592
1.25948
1.25975
1.26002
1.26027
1.26051
1.26075
1.26097
1.26119
1.2614
1.2616
1.26179
1.26197
1.26215
1.26232
1.26248
1.26264
1.26279
1.26294
1.26308
1.26322
1.26335
1.26348
1.2636
1.26373
1.26384
1.26396
1.26407
1.26418
1.26428
1.26439
1.26449
1.26459
1.26469
1.26478
1.26488
1.26497
1.26506
1.26515
1.26524
1.26533
1.26541
1.2655
1.26559
1.26567
1.26576
1.26585
1.26594
1.26603
1.26613
1.26623
1.26633
1.26644
1.26655
1.26666
1.26678
1.26691
1.26705
1.2672
1.26735
1.26752
1.26769
1.26788
1.26808
1.26829
1.26852
1.26877
1.26903
1.2693
1.2696
1.26991
1.27024
1.2706
1.27097
1.27137
1.2718
1.27224
1.27271
1.27321
1.27374
1.2743
1.27488
1.2755
1.27614
1.27682
1.27754
1.27829
1.27908
1.27991
1.28079
1.2817
1.28267
1.28369
1.28476
1.2859
1.2871
1.28837
1.28973
1.29119
1.29275
1.29444
1.29629
1.29831
1.30056
1.30309
1.30598
1.30933
1.31333
1.31827
1.32448
1.33251
1.34414
1.36474
1.39785
1.19882
1.19681
1.20408
1.21016
1.21396
1.21668
1.21865
1.22004
1.22105
1.22181
1.2224
1.22286
1.22324
1.22355
1.2238
1.22401
1.22419
1.22434
1.22446
1.22457
1.22466
1.22474
1.22481
1.22486
1.22491
1.22494
1.22497
1.225
1.22502
1.22503
1.22503
1.22504
1.22504
1.22503
1.22503
1.22501
1.225
1.22499
1.22497
1.22495
1.22493
1.22491
1.22489
1.22487
1.22485
1.22483
1.22482
1.2248
1.22478
1.22477
1.22476
1.22475
1.22475
1.22474
1.22475
1.22475
1.22477
1.22478
1.22481
1.22483
1.22487
1.22491
1.22496
1.22501
1.22507
1.22514
1.22522
1.2253
1.22539
1.22549
1.2256
1.22571
1.22584
1.22597
1.22611
1.22626
1.22642
1.22658
1.22676
1.22694
1.22713
1.22733
1.22753
1.22774
1.22796
1.22819
1.22843
1.22867
1.22891
1.22917
1.22943
1.22969
1.22996
1.23023
1.23051
1.23079
1.23107
1.23136
1.23164
1.23193
1.23222
1.2325
1.23279
1.23308
1.23336
1.23364
1.23392
1.23419
1.23446
1.23473
1.23498
1.23524
1.23549
1.23573
1.23596
1.23619
1.2364
1.23661
1.23682
1.23701
1.2372
1.23737
1.23754
1.2377
1.23786
1.238
1.23814
1.23827
1.2384
1.23851
1.23863
1.23873
1.23883
1.23893
1.23902
1.23911
1.23919
1.23927
1.23934
1.23941
1.23948
1.23955
1.23961
1.23967
1.23973
1.23979
1.23985
1.2399
1.23995
1.24
1.24005
1.2401
1.24015
1.24019
1.24024
1.24029
1.24033
1.24037
1.24042
1.24046
1.2405
1.24054
1.24059
1.24063
1.24067
1.24071
1.24075
1.24079
1.24083
1.24087
1.24091
1.24095
1.24099
1.24103
1.24107
1.24111
1.24114
1.24118
1.24122
1.24126
1.2413
1.24134
1.24138
1.24142
1.24146
1.2415
1.24153
1.24157
1.24161
1.24165
1.24169
1.24173
1.24177
1.24181
1.24185
1.24189
1.24193
1.24197
1.24202
1.24206
1.2421
1.24215
1.24219
1.24224
1.24228
1.24233
1.24238
1.24243
1.24248
1.24253
1.24258
1.24264
1.24269
1.24275
1.24281
1.24287
1.24294
1.243
1.24307
1.24314
1.24322
1.2433
1.24338
1.24346
1.24355
1.24364
1.24373
1.24383
1.24393
1.24403
1.24414
1.24426
1.24438
1.2445
1.24464
1.24477
1.24491
1.24506
1.24521
1.24537
1.24554
1.24571
1.24589
1.24607
1.24627
1.24647
1.24668
1.24689
1.24711
1.24735
1.24758
1.24783
1.24808
1.24835
1.24862
1.24889
1.24918
1.24947
1.24977
1.25008
1.2504
1.25072
1.25104
1.25138
1.25172
1.25206
1.25241
1.25276
1.25311
1.25347
1.25383
1.25419
1.25455
1.25491
1.25527
1.25563
1.25598
1.25633
1.25668
1.25702
1.25736
1.25769
1.25801
1.25832
1.25863
1.25893
1.25921
1.25949
1.25976
1.26002
1.26028
1.26052
1.26075
1.26098
1.26119
1.2614
1.2616
1.26179
1.26197
1.26215
1.26232
1.26248
1.26264
1.26279
1.26293
1.26307
1.26321
1.26334
1.26347
1.26359
1.26372
1.26383
1.26395
1.26406
1.26417
1.26428
1.26438
1.26448
1.26458
1.26468
1.26477
1.26487
1.26496
1.26505
1.26514
1.26523
1.26532
1.26541
1.26549
1.26558
1.26567
1.26576
1.26584
1.26594
1.26603
1.26612
1.26622
1.26632
1.26643
1.26654
1.26666
1.26678
1.26691
1.26705
1.2672
1.26735
1.26752
1.2677
1.26789
1.26809
1.2683
1.26853
1.26878
1.26904
1.26932
1.26961
1.26993
1.27027
1.27062
1.271
1.2714
1.27183
1.27228
1.27275
1.27325
1.27378
1.27434
1.27493
1.27555
1.2762
1.27688
1.2776
1.27836
1.27915
1.27999
1.28087
1.28179
1.28276
1.28378
1.28486
1.286
1.28721
1.28849
1.28986
1.29132
1.2929
1.2946
1.29646
1.2985
1.30076
1.30331
1.3062
1.30956
1.31351
1.31828
1.32424
1.33197
1.34162
1.35209
1.36247
1.20683
1.20586
1.20814
1.21086
1.21386
1.21627
1.21804
1.21938
1.22042
1.22123
1.22188
1.2224
1.22282
1.22317
1.22346
1.2237
1.2239
1.22408
1.22423
1.22435
1.22446
1.22455
1.22463
1.2247
1.22475
1.2248
1.22484
1.22487
1.2249
1.22492
1.22493
1.22494
1.22494
1.22494
1.22494
1.22493
1.22492
1.22491
1.2249
1.22488
1.22487
1.22485
1.22483
1.22481
1.2248
1.22478
1.22476
1.22475
1.22473
1.22472
1.22471
1.22471
1.2247
1.2247
1.22471
1.22472
1.22473
1.22475
1.22477
1.2248
1.22484
1.22488
1.22493
1.22498
1.22505
1.22512
1.22519
1.22528
1.22537
1.22547
1.22558
1.2257
1.22583
1.22596
1.2261
1.22625
1.22641
1.22658
1.22675
1.22694
1.22713
1.22733
1.22753
1.22775
1.22797
1.2282
1.22843
1.22867
1.22892
1.22918
1.22944
1.2297
1.22997
1.23025
1.23052
1.2308
1.23109
1.23137
1.23166
1.23195
1.23223
1.23252
1.23281
1.23309
1.23338
1.23366
1.23393
1.23421
1.23448
1.23474
1.235
1.23525
1.2355
1.23574
1.23597
1.23619
1.23641
1.23662
1.23682
1.23701
1.2372
1.23737
1.23754
1.2377
1.23785
1.238
1.23813
1.23826
1.23839
1.2385
1.23861
1.23872
1.23882
1.23891
1.239
1.23909
1.23917
1.23925
1.23933
1.2394
1.23947
1.23953
1.23959
1.23966
1.23972
1.23977
1.23983
1.23988
1.23993
1.23998
1.24003
1.24008
1.24013
1.24018
1.24022
1.24027
1.24031
1.24036
1.2404
1.24044
1.24049
1.24053
1.24057
1.24061
1.24065
1.2407
1.24074
1.24078
1.24082
1.24086
1.2409
1.24094
1.24098
1.24102
1.24106
1.2411
1.24114
1.24118
1.24122
1.24125
1.24129
1.24133
1.24137
1.24141
1.24145
1.24149
1.24153
1.24157
1.24161
1.24165
1.24169
1.24173
1.24177
1.24181
1.24185
1.24189
1.24193
1.24197
1.24201
1.24205
1.2421
1.24214
1.24219
1.24223
1.24228
1.24232
1.24237
1.24242
1.24247
1.24252
1.24258
1.24263
1.24269
1.24275
1.24281
1.24287
1.24293
1.243
1.24307
1.24314
1.24322
1.24329
1.24337
1.24346
1.24354
1.24363
1.24373
1.24382
1.24393
1.24403
1.24414
1.24426
1.24438
1.2445
1.24463
1.24477
1.24491
1.24506
1.24521
1.24537
1.24554
1.24571
1.24589
1.24608
1.24627
1.24647
1.24668
1.2469
1.24712
1.24735
1.24759
1.24784
1.24809
1.24836
1.24863
1.24891
1.24919
1.24949
1.24979
1.2501
1.25041
1.25074
1.25106
1.2514
1.25174
1.25208
1.25243
1.25278
1.25314
1.2535
1.25386
1.25422
1.25458
1.25494
1.2553
1.25566
1.25601
1.25637
1.25671
1.25705
1.25739
1.25771
1.25804
1.25835
1.25865
1.25895
1.25924
1.25951
1.25978
1.26004
1.26029
1.26053
1.26076
1.26099
1.2612
1.2614
1.2616
1.26179
1.26197
1.26215
1.26232
1.26248
1.26263
1.26278
1.26293
1.26307
1.26321
1.26334
1.26347
1.26359
1.26371
1.26383
1.26394
1.26405
1.26416
1.26427
1.26437
1.26447
1.26457
1.26467
1.26477
1.26486
1.26495
1.26505
1.26514
1.26522
1.26531
1.2654
1.26549
1.26557
1.26566
1.26575
1.26584
1.26593
1.26602
1.26612
1.26621
1.26632
1.26642
1.26653
1.26665
1.26677
1.26691
1.26704
1.26719
1.26735
1.26751
1.26769
1.26788
1.26808
1.2683
1.26853
1.26877
1.26904
1.26932
1.26961
1.26993
1.27027
1.27063
1.27101
1.27141
1.27184
1.27229
1.27276
1.27327
1.2738
1.27436
1.27495
1.27557
1.27622
1.27691
1.27763
1.27839
1.27918
1.28002
1.2809
1.28182
1.28279
1.28382
1.2849
1.28604
1.28724
1.28852
1.28989
1.29135
1.29291
1.29461
1.29645
1.29846
1.30069
1.30318
1.306
1.30921
1.31294
1.3173
1.3224
1.32832
1.33492
1.34028
1.3405
1.21121
1.21076
1.21134
1.21285
1.21474
1.21643
1.21788
1.21909
1.22007
1.22086
1.22151
1.22204
1.22248
1.22285
1.22316
1.22343
1.22365
1.22385
1.22401
1.22415
1.22427
1.22438
1.22447
1.22455
1.22461
1.22467
1.22471
1.22475
1.22478
1.22481
1.22483
1.22484
1.22485
1.22485
1.22486
1.22485
1.22485
1.22484
1.22483
1.22481
1.2248
1.22479
1.22477
1.22475
1.22474
1.22472
1.22471
1.22469
1.22468
1.22467
1.22466
1.22466
1.22466
1.22466
1.22467
1.22467
1.22469
1.22471
1.22473
1.22476
1.2248
1.22485
1.2249
1.22495
1.22502
1.22509
1.22517
1.22525
1.22535
1.22545
1.22556
1.22568
1.22581
1.22594
1.22609
1.22624
1.2264
1.22657
1.22675
1.22693
1.22712
1.22732
1.22753
1.22774
1.22797
1.2282
1.22843
1.22868
1.22893
1.22918
1.22944
1.22971
1.22998
1.23026
1.23054
1.23082
1.2311
1.23139
1.23167
1.23196
1.23225
1.23254
1.23283
1.23311
1.2334
1.23368
1.23395
1.23423
1.2345
1.23476
1.23502
1.23527
1.23552
1.23576
1.23599
1.23621
1.23643
1.23663
1.23683
1.23702
1.23721
1.23738
1.23755
1.2377
1.23785
1.238
1.23813
1.23826
1.23838
1.2385
1.23861
1.23871
1.23881
1.2389
1.23899
1.23908
1.23916
1.23924
1.23931
1.23938
1.23945
1.23952
1.23958
1.23964
1.2397
1.23976
1.23981
1.23986
1.23992
1.23997
1.24002
1.24007
1.24012
1.24016
1.24021
1.24025
1.2403
1.24034
1.24039
1.24043
1.24047
1.24052
1.24056
1.2406
1.24064
1.24068
1.24073
1.24077
1.24081
1.24085
1.24089
1.24093
1.24097
1.24101
1.24105
1.24109
1.24113
1.24117
1.24121
1.24125
1.24129
1.24133
1.24137
1.2414
1.24144
1.24148
1.24152
1.24156
1.2416
1.24164
1.24168
1.24172
1.24176
1.2418
1.24184
1.24188
1.24192
1.24197
1.24201
1.24205
1.24209
1.24214
1.24218
1.24223
1.24227
1.24232
1.24237
1.24242
1.24247
1.24252
1.24257
1.24263
1.24268
1.24274
1.2428
1.24286
1.24293
1.24299
1.24306
1.24313
1.24321
1.24329
1.24337
1.24345
1.24354
1.24363
1.24372
1.24382
1.24392
1.24403
1.24414
1.24425
1.24437
1.2445
1.24463
1.24476
1.24491
1.24505
1.24521
1.24537
1.24553
1.24571
1.24589
1.24607
1.24627
1.24647
1.24668
1.2469
1.24712
1.24735
1.24759
1.24784
1.2481
1.24836
1.24863
1.24891
1.2492
1.2495
1.2498
1.25011
1.25043
1.25075
1.25108
1.25141
1.25176
1.2521
1.25245
1.25281
1.25316
1.25352
1.25389
1.25425
1.25461
1.25497
1.25533
1.25569
1.25605
1.2564
1.25675
1.25709
1.25742
1.25775
1.25807
1.25838
1.25869
1.25898
1.25927
1.25954
1.25981
1.26007
1.26032
1.26056
1.26078
1.261
1.26122
1.26142
1.26162
1.2618
1.26198
1.26216
1.26232
1.26248
1.26264
1.26279
1.26293
1.26307
1.26321
1.26334
1.26346
1.26359
1.26371
1.26382
1.26394
1.26405
1.26416
1.26427
1.26437
1.26447
1.26457
1.26467
1.26476
1.26486
1.26495
1.26504
1.26513
1.26522
1.26531
1.26539
1.26548
1.26557
1.26565
1.26574
1.26583
1.26592
1.26601
1.26611
1.26621
1.26631
1.26641
1.26652
1.26664
1.26676
1.26689
1.26703
1.26718
1.26733
1.2675
1.26768
1.26787
1.26807
1.26828
1.26851
1.26876
1.26902
1.2693
1.2696
1.26992
1.27025
1.27061
1.27099
1.2714
1.27182
1.27227
1.27275
1.27326
1.27379
1.27435
1.27494
1.27556
1.27621
1.2769
1.27762
1.27838
1.27917
1.28001
1.28089
1.28181
1.28278
1.2838
1.28487
1.286
1.2872
1.28847
1.28982
1.29126
1.2928
1.29447
1.29626
1.29822
1.30037
1.30275
1.3054
1.30837
1.3117
1.31545
1.31958
1.32381
1.32762
1.33027
1.32957
1.21429
1.21376
1.2139
1.21472
1.21581
1.21698
1.21811
1.2191
1.21995
1.22067
1.22128
1.2218
1.22224
1.22262
1.22294
1.22321
1.22345
1.22365
1.22383
1.22398
1.22411
1.22422
1.22432
1.22441
1.22448
1.22454
1.2246
1.22464
1.22468
1.22471
1.22473
1.22475
1.22476
1.22477
1.22478
1.22478
1.22477
1.22477
1.22476
1.22475
1.22474
1.22472
1.22471
1.2247
1.22468
1.22467
1.22465
1.22464
1.22463
1.22462
1.22462
1.22461
1.22461
1.22461
1.22462
1.22463
1.22465
1.22467
1.22469
1.22473
1.22476
1.22481
1.22486
1.22492
1.22498
1.22506
1.22514
1.22522
1.22532
1.22542
1.22554
1.22566
1.22579
1.22592
1.22607
1.22622
1.22638
1.22655
1.22673
1.22691
1.22711
1.22731
1.22752
1.22774
1.22796
1.22819
1.22843
1.22868
1.22893
1.22918
1.22945
1.22972
1.22999
1.23026
1.23055
1.23083
1.23111
1.2314
1.23169
1.23198
1.23227
1.23256
1.23285
1.23313
1.23342
1.2337
1.23398
1.23425
1.23452
1.23479
1.23504
1.2353
1.23554
1.23578
1.23601
1.23623
1.23645
1.23666
1.23685
1.23704
1.23722
1.2374
1.23756
1.23772
1.23786
1.238
1.23814
1.23826
1.23838
1.2385
1.23861
1.23871
1.23881
1.2389
1.23899
1.23907
1.23915
1.23923
1.2393
1.23937
1.23944
1.2395
1.23956
1.23962
1.23968
1.23974
1.2398
1.23985
1.2399
1.23995
1.24
1.24005
1.2401
1.24015
1.24019
1.24024
1.24028
1.24033
1.24037
1.24042
1.24046
1.2405
1.24055
1.24059
1.24063
1.24067
1.24071
1.24075
1.2408
1.24084
1.24088
1.24092
1.24096
1.241
1.24104
1.24108
1.24112
1.24116
1.2412
1.24124
1.24128
1.24132
1.24136
1.2414
1.24144
1.24148
1.24152
1.24156
1.2416
1.24164
1.24168
1.24172
1.24176
1.2418
1.24184
1.24188
1.24192
1.24196
1.242
1.24204
1.24209
1.24213
1.24218
1.24222
1.24227
1.24231
1.24236
1.24241
1.24246
1.24251
1.24257
1.24262
1.24268
1.24273
1.24279
1.24286
1.24292
1.24299
1.24305
1.24312
1.2432
1.24328
1.24336
1.24344
1.24352
1.24361
1.24371
1.24381
1.24391
1.24401
1.24412
1.24424
1.24436
1.24448
1.24461
1.24475
1.24489
1.24504
1.24519
1.24535
1.24552
1.24569
1.24587
1.24606
1.24626
1.24646
1.24667
1.24689
1.24711
1.24734
1.24758
1.24783
1.24809
1.24836
1.24863
1.24891
1.2492
1.2495
1.2498
1.25011
1.25043
1.25075
1.25109
1.25142
1.25177
1.25212
1.25247
1.25282
1.25318
1.25355
1.25391
1.25427
1.25464
1.255
1.25537
1.25573
1.25608
1.25644
1.25678
1.25713
1.25746
1.25779
1.25811
1.25842
1.25873
1.25902
1.25931
1.25958
1.25985
1.2601
1.26035
1.26059
1.26081
1.26103
1.26124
1.26144
1.26164
1.26182
1.262
1.26217
1.26234
1.26249
1.26265
1.2628
1.26294
1.26308
1.26321
1.26334
1.26347
1.26359
1.26371
1.26383
1.26394
1.26405
1.26416
1.26426
1.26437
1.26447
1.26457
1.26467
1.26476
1.26486
1.26495
1.26504
1.26513
1.26522
1.2653
1.26539
1.26548
1.26556
1.26565
1.26574
1.26582
1.26591
1.266
1.2661
1.26619
1.26629
1.2664
1.26651
1.26662
1.26675
1.26687
1.26701
1.26716
1.26731
1.26748
1.26765
1.26784
1.26804
1.26826
1.26849
1.26873
1.26899
1.26927
1.26957
1.26988
1.27022
1.27058
1.27096
1.27136
1.27179
1.27224
1.27271
1.27322
1.27375
1.27431
1.2749
1.27552
1.27617
1.27686
1.27757
1.27833
1.27912
1.27995
1.28083
1.28174
1.28271
1.28372
1.28478
1.2859
1.28708
1.28833
1.28966
1.29107
1.29257
1.29418
1.29592
1.29779
1.29983
1.30205
1.30448
1.30714
1.31003
1.31311
1.31626
1.31923
1.32153
1.32272
1.32245
1.21641
1.21585
1.21583
1.21624
1.2169
1.2177
1.21852
1.2193
1.22001
1.22064
1.22119
1.22167
1.22209
1.22245
1.22277
1.22304
1.22328
1.22349
1.22367
1.22383
1.22397
1.22409
1.22419
1.22428
1.22436
1.22443
1.22449
1.22454
1.22458
1.22461
1.22464
1.22466
1.22468
1.22469
1.2247
1.2247
1.2247
1.2247
1.22469
1.22468
1.22468
1.22466
1.22465
1.22464
1.22463
1.22461
1.2246
1.22459
1.22458
1.22457
1.22457
1.22456
1.22456
1.22457
1.22457
1.22458
1.2246
1.22462
1.22465
1.22468
1.22472
1.22477
1.22482
1.22488
1.22495
1.22502
1.2251
1.22519
1.22529
1.22539
1.22551
1.22563
1.22576
1.2259
1.22604
1.2262
1.22636
1.22653
1.22671
1.2269
1.22709
1.22729
1.22751
1.22772
1.22795
1.22818
1.22842
1.22867
1.22892
1.22918
1.22945
1.22972
1.22999
1.23027
1.23055
1.23084
1.23113
1.23142
1.23171
1.232
1.23229
1.23258
1.23287
1.23316
1.23344
1.23373
1.23401
1.23428
1.23455
1.23482
1.23508
1.23533
1.23557
1.23581
1.23604
1.23627
1.23648
1.23669
1.23688
1.23707
1.23725
1.23742
1.23758
1.23774
1.23788
1.23802
1.23815
1.23827
1.23839
1.2385
1.23861
1.23871
1.2388
1.23889
1.23898
1.23906
1.23914
1.23922
1.23929
1.23936
1.23943
1.23949
1.23955
1.23961
1.23967
1.23973
1.23978
1.23983
1.23989
1.23994
1.23999
1.24004
1.24008
1.24013
1.24018
1.24022
1.24027
1.24031
1.24036
1.2404
1.24045
1.24049
1.24053
1.24057
1.24062
1.24066
1.2407
1.24074
1.24078
1.24083
1.24087
1.24091
1.24095
1.24099
1.24103
1.24107
1.24111
1.24115
1.24119
1.24123
1.24127
1.24131
1.24135
1.24139
1.24143
1.24147
1.24151
1.24155
1.24159
1.24163
1.24167
1.24171
1.24175
1.24179
1.24183
1.24187
1.24191
1.24195
1.242
1.24204
1.24208
1.24212
1.24217
1.24221
1.24226
1.24231
1.24235
1.2424
1.24245
1.2425
1.24256
1.24261
1.24267
1.24272
1.24278
1.24284
1.24291
1.24297
1.24304
1.24311
1.24319
1.24326
1.24334
1.24342
1.24351
1.2436
1.24369
1.24379
1.24389
1.244
1.24411
1.24422
1.24434
1.24447
1.2446
1.24473
1.24487
1.24502
1.24518
1.24534
1.2455
1.24568
1.24586
1.24604
1.24624
1.24644
1.24665
1.24687
1.24709
1.24733
1.24757
1.24782
1.24808
1.24834
1.24862
1.2489
1.24919
1.24949
1.24979
1.25011
1.25043
1.25075
1.25109
1.25143
1.25177
1.25212
1.25248
1.25284
1.2532
1.25357
1.25393
1.2543
1.25467
1.25504
1.2554
1.25576
1.25612
1.25648
1.25683
1.25717
1.25751
1.25784
1.25816
1.25847
1.25877
1.25907
1.25935
1.25963
1.25989
1.26015
1.26039
1.26062
1.26085
1.26107
1.26127
1.26147
1.26166
1.26185
1.26202
1.26219
1.26235
1.26251
1.26266
1.26281
1.26295
1.26309
1.26322
1.26335
1.26347
1.26359
1.26371
1.26383
1.26394
1.26405
1.26416
1.26427
1.26437
1.26447
1.26457
1.26467
1.26476
1.26486
1.26495
1.26504
1.26513
1.26522
1.2653
1.26539
1.26547
1.26556
1.26564
1.26573
1.26582
1.2659
1.26599
1.26609
1.26618
1.26628
1.26638
1.26649
1.26661
1.26673
1.26685
1.26699
1.26713
1.26728
1.26745
1.26762
1.26781
1.26801
1.26822
1.26845
1.26869
1.26895
1.26923
1.26952
1.26984
1.27017
1.27053
1.27091
1.27131
1.27173
1.27218
1.27266
1.27316
1.27369
1.27424
1.27483
1.27545
1.2761
1.27678
1.27749
1.27825
1.27903
1.27986
1.28072
1.28163
1.28258
1.28358
1.28463
1.28573
1.28689
1.28812
1.28941
1.29078
1.29223
1.29378
1.29543
1.2972
1.2991
1.30113
1.30332
1.30565
1.30809
1.31056
1.31292
1.31498
1.31645
1.31703
1.31681
1.21788
1.2174
1.21729
1.21747
1.21788
1.21842
1.21901
1.21961
1.22019
1.22072
1.2212
1.22163
1.22202
1.22236
1.22266
1.22292
1.22316
1.22336
1.22355
1.22371
1.22385
1.22397
1.22408
1.22418
1.22426
1.22433
1.22439
1.22445
1.22449
1.22453
1.22456
1.22459
1.2246
1.22462
1.22463
1.22463
1.22464
1.22463
1.22463
1.22462
1.22462
1.22461
1.2246
1.22458
1.22457
1.22456
1.22455
1.22454
1.22453
1.22452
1.22452
1.22451
1.22451
1.22452
1.22453
1.22454
1.22456
1.22458
1.22461
1.22464
1.22468
1.22472
1.22478
1.22484
1.2249
1.22498
1.22506
1.22515
1.22525
1.22536
1.22547
1.22559
1.22573
1.22586
1.22601
1.22617
1.22633
1.2265
1.22669
1.22687
1.22707
1.22727
1.22749
1.22771
1.22793
1.22817
1.22841
1.22866
1.22892
1.22918
1.22944
1.22972
1.22999
1.23027
1.23056
1.23085
1.23114
1.23143
1.23172
1.23202
1.23231
1.2326
1.23289
1.23318
1.23347
1.23375
1.23404
1.23431
1.23458
1.23485
1.23511
1.23536
1.23561
1.23585
1.23608
1.2363
1.23652
1.23672
1.23692
1.2371
1.23728
1.23745
1.23761
1.23776
1.2379
1.23804
1.23817
1.23829
1.2384
1.23851
1.23862
1.23871
1.23881
1.2389
1.23898
1.23906
1.23914
1.23921
1.23928
1.23935
1.23942
1.23948
1.23954
1.2396
1.23966
1.23971
1.23977
1.23982
1.23987
1.23992
1.23997
1.24002
1.24007
1.24012
1.24016
1.24021
1.24025
1.2403
1.24034
1.24039
1.24043
1.24048
1.24052
1.24056
1.2406
1.24065
1.24069
1.24073
1.24077
1.24081
1.24086
1.2409
1.24094
1.24098
1.24102
1.24106
1.2411
1.24114
1.24118
1.24122
1.24126
1.2413
1.24134
1.24138
1.24142
1.24146
1.2415
1.24154
1.24158
1.24162
1.24166
1.2417
1.24174
1.24178
1.24182
1.24187
1.24191
1.24195
1.24199
1.24203
1.24207
1.24212
1.24216
1.24221
1.24225
1.2423
1.24235
1.24239
1.24244
1.24249
1.24255
1.2426
1.24266
1.24271
1.24277
1.24283
1.2429
1.24296
1.24303
1.2431
1.24317
1.24325
1.24333
1.24341
1.24349
1.24358
1.24367
1.24377
1.24387
1.24398
1.24409
1.2442
1.24432
1.24444
1.24457
1.24471
1.24485
1.245
1.24515
1.24531
1.24548
1.24565
1.24583
1.24602
1.24621
1.24641
1.24662
1.24684
1.24707
1.2473
1.24754
1.2478
1.24805
1.24832
1.2486
1.24888
1.24917
1.24947
1.24978
1.25009
1.25042
1.25075
1.25108
1.25142
1.25177
1.25213
1.25249
1.25285
1.25321
1.25358
1.25395
1.25432
1.25469
1.25506
1.25543
1.2558
1.25616
1.25652
1.25687
1.25722
1.25756
1.25789
1.25821
1.25852
1.25883
1.25912
1.25941
1.25968
1.25994
1.2602
1.26044
1.26067
1.26089
1.26111
1.26131
1.26151
1.2617
1.26188
1.26205
1.26222
1.26238
1.26253
1.26268
1.26283
1.26296
1.2631
1.26323
1.26336
1.26348
1.2636
1.26372
1.26384
1.26395
1.26406
1.26417
1.26427
1.26438
1.26448
1.26458
1.26467
1.26477
1.26486
1.26495
1.26504
1.26513
1.26522
1.2653
1.26539
1.26547
1.26556
1.26564
1.26572
1.26581
1.2659
1.26599
1.26608
1.26617
1.26627
1.26637
1.26647
1.26658
1.2667
1.26683
1.26696
1.2671
1.26725
1.26741
1.26758
1.26777
1.26796
1.26818
1.2684
1.26864
1.2689
1.26917
1.26946
1.26978
1.27011
1.27046
1.27084
1.27123
1.27166
1.2721
1.27257
1.27307
1.2736
1.27415
1.27473
1.27535
1.27599
1.27667
1.27738
1.27812
1.2789
1.27972
1.28057
1.28147
1.28241
1.28339
1.28442
1.2855
1.28663
1.28782
1.28907
1.29039
1.29178
1.29326
1.29481
1.29646
1.29821
1.30006
1.30199
1.304
1.30602
1.30798
1.30977
1.31121
1.31216
1.31249
1.31217
1.21897
1.21857
1.21842
1.21848
1.21873
1.21909
1.21951
1.21997
1.22043
1.22087
1.22128
1.22166
1.22201
1.22232
1.2226
1.22285
1.22307
1.22327
1.22345
1.22361
1.22375
1.22388
1.22399
1.22408
1.22417
1.22424
1.22431
1.22436
1.22441
1.22445
1.22449
1.22451
1.22453
1.22455
1.22456
1.22457
1.22457
1.22457
1.22457
1.22457
1.22456
1.22455
1.22454
1.22453
1.22452
1.22451
1.2245
1.22449
1.22448
1.22447
1.22447
1.22446
1.22447
1.22447
1.22448
1.22449
1.22451
1.22453
1.22456
1.22459
1.22463
1.22468
1.22473
1.22479
1.22486
1.22494
1.22502
1.22511
1.22521
1.22532
1.22543
1.22556
1.22569
1.22583
1.22598
1.22614
1.2263
1.22648
1.22666
1.22685
1.22705
1.22725
1.22746
1.22769
1.22792
1.22815
1.2284
1.22865
1.22891
1.22917
1.22944
1.22971
1.22999
1.23028
1.23057
1.23086
1.23115
1.23144
1.23174
1.23203
1.23233
1.23262
1.23292
1.23321
1.2335
1.23379
1.23407
1.23435
1.23462
1.23489
1.23515
1.23541
1.23565
1.23589
1.23612
1.23635
1.23656
1.23676
1.23696
1.23714
1.23732
1.23748
1.23764
1.23779
1.23793
1.23806
1.23819
1.23831
1.23842
1.23853
1.23863
1.23872
1.23881
1.2389
1.23898
1.23906
1.23914
1.23921
1.23928
1.23934
1.23941
1.23947
1.23953
1.23959
1.23965
1.2397
1.23976
1.23981
1.23986
1.23991
1.23996
1.24001
1.24006
1.2401
1.24015
1.24019
1.24024
1.24029
1.24033
1.24037
1.24042
1.24046
1.24051
1.24055
1.24059
1.24063
1.24068
1.24072
1.24076
1.2408
1.24085
1.24089
1.24093
1.24097
1.24101
1.24105
1.24109
1.24113
1.24118
1.24122
1.24126
1.2413
1.24134
1.24138
1.24142
1.24146
1.2415
1.24154
1.24158
1.24162
1.24166
1.2417
1.24174
1.24178
1.24182
1.24186
1.2419
1.24194
1.24198
1.24202
1.24207
1.24211
1.24215
1.2422
1.24224
1.24229
1.24234
1.24238
1.24243
1.24248
1.24254
1.24259
1.24264
1.2427
1.24276
1.24282
1.24288
1.24294
1.24301
1.24308
1.24315
1.24323
1.24331
1.24339
1.24347
1.24356
1.24365
1.24375
1.24385
1.24395
1.24406
1.24417
1.24429
1.24442
1.24454
1.24468
1.24482
1.24497
1.24512
1.24528
1.24544
1.24562
1.2458
1.24598
1.24618
1.24638
1.24659
1.24681
1.24704
1.24727
1.24751
1.24776
1.24802
1.24829
1.24857
1.24885
1.24915
1.24945
1.24976
1.25007
1.2504
1.25073
1.25107
1.25142
1.25177
1.25212
1.25249
1.25285
1.25322
1.25359
1.25397
1.25434
1.25472
1.25509
1.25547
1.25584
1.2562
1.25656
1.25692
1.25727
1.25761
1.25794
1.25827
1.25858
1.25889
1.25918
1.25947
1.25974
1.26
1.26025
1.26049
1.26072
1.26094
1.26115
1.26136
1.26155
1.26174
1.26191
1.26208
1.26225
1.26241
1.26256
1.2627
1.26285
1.26298
1.26312
1.26325
1.26337
1.2635
1.26362
1.26373
1.26385
1.26396
1.26407
1.26417
1.26428
1.26438
1.26448
1.26458
1.26468
1.26477
1.26487
1.26496
1.26505
1.26513
1.26522
1.26531
1.26539
1.26547
1.26556
1.26564
1.26572
1.2658
1.26589
1.26598
1.26606
1.26616
1.26625
1.26635
1.26645
1.26656
1.26668
1.2668
1.26693
1.26707
1.26721
1.26737
1.26754
1.26772
1.26791
1.26812
1.26834
1.26858
1.26883
1.26911
1.26939
1.2697
1.27003
1.27038
1.27075
1.27115
1.27156
1.27201
1.27247
1.27297
1.27349
1.27404
1.27461
1.27522
1.27586
1.27653
1.27723
1.27797
1.27874
1.27954
1.28039
1.28127
1.28219
1.28315
1.28416
1.28521
1.28631
1.28746
1.28866
1.28993
1.29125
1.29264
1.2941
1.29562
1.29722
1.29887
1.30057
1.30228
1.30395
1.3055
1.30685
1.30789
1.30852
1.30869
1.30834
1.2198
1.21946
1.2193
1.21931
1.21945
1.21969
1.22
1.22034
1.2207
1.22106
1.22141
1.22174
1.22204
1.22232
1.22258
1.22281
1.22303
1.22322
1.22339
1.22354
1.22368
1.2238
1.22391
1.22401
1.2241
1.22417
1.22424
1.22429
1.22434
1.22438
1.22442
1.22445
1.22447
1.22449
1.2245
1.22451
1.22452
1.22452
1.22452
1.22451
1.22451
1.2245
1.22449
1.22448
1.22447
1.22446
1.22445
1.22444
1.22443
1.22442
1.22442
1.22442
1.22442
1.22442
1.22443
1.22444
1.22446
1.22448
1.22451
1.22455
1.22459
1.22463
1.22469
1.22475
1.22482
1.22489
1.22498
1.22507
1.22517
1.22528
1.22539
1.22552
1.22565
1.22579
1.22594
1.2261
1.22627
1.22644
1.22663
1.22682
1.22702
1.22722
1.22744
1.22766
1.22789
1.22813
1.22838
1.22863
1.22889
1.22916
1.22943
1.22971
1.22999
1.23028
1.23057
1.23086
1.23116
1.23145
1.23175
1.23205
1.23235
1.23265
1.23294
1.23324
1.23353
1.23382
1.2341
1.23438
1.23466
1.23493
1.23519
1.23545
1.2357
1.23594
1.23617
1.23639
1.23661
1.23681
1.237
1.23719
1.23736
1.23752
1.23768
1.23783
1.23796
1.23809
1.23822
1.23833
1.23844
1.23854
1.23864
1.23874
1.23882
1.23891
1.23899
1.23906
1.23914
1.23921
1.23928
1.23934
1.2394
1.23946
1.23952
1.23958
1.23964
1.23969
1.23974
1.2398
1.23985
1.2399
1.23995
1.23999
1.24004
1.24009
1.24014
1.24018
1.24023
1.24027
1.24032
1.24036
1.24041
1.24045
1.24049
1.24054
1.24058
1.24062
1.24067
1.24071
1.24075
1.24079
1.24084
1.24088
1.24092
1.24096
1.241
1.24104
1.24109
1.24113
1.24117