# vtk DataFile Version 2.0
LBE mesh
ASCII
DATASET STRUCTURED_POINTS
DIMENSIONS 400 100 1
ASPECT_RATIO 1 1 1
ORIGIN 0 0 0
POINT_DATA 40000
SCALARS rho double 1
LOOKUP_TABLE default
1.16875
1.25977
1.28572
1.29027
1.29235
1.29434
1.29582
1.29678
1.29743
1.2979
1.29827
1.29856
1.29879
1.29898
1.29913
1.29925
1.29935
1.29943
1.29949
1.29954
1.29958
1.29961
1.29963
1.29964
1.29964
1.29964
1.29963
1.29961
1.29959
1.29956
1.29953
1.29949
1.29945
1.29941
1.29937
1.29932
1.29927
1.29921
1.29916
1.29911
1.29905
1.29899
1.29894
1.29888
1.29882
1.29877
1.29872
1.29867
1.29862
1.29857
1.29853
1.29849
1.29845
1.29842
1.2984
1.29838
1.29836
1.29835
1.29835
1.29836
1.29837
1.29839
1.29842
1.29845
1.29849
1.29855
1.29861
1.29867
1.29875
1.29884
1.29894
1.29904
1.29915
1.29928
1.29941
1.29955
1.2997
1.29986
1.30003
1.3002
1.30039
1.30058
1.30078
1.30098
1.3012
1.30142
1.30165
1.30188
1.30212
1.30236
1.30261
1.30287
1.30312
1.30338
1.30365
1.30391
1.30418
1.30444
1.30471
1.30498
1.30524
1.3055
1.30576
1.30602
1.30627
1.30652
1.30676
1.307
1.30723
1.30745
1.30767
1.30787
1.30807
1.30826
1.30844
1.30861
1.30877
1.30891
1.30905
1.30918
1.30929
1.3094
1.30949
1.30957
1.30964
1.30971
1.30976
1.3098
1.30984
1.30987
1.30989
1.3099
1.30991
1.30991
1.3099
1.30989
1.30988
1.30986
1.30983
1.30981
1.30978
1.30974
1.30971
1.30967
1.30963
1.30959
1.30955
1.3095
1.30946
1.30941
1.30936
1.30931
1.30926
1.30921
1.30916
1.30911
1.30905
1.309
1.30895
1.30889
1.30884
1.30878
1.30872
1.30867
1.30861
1.30855
1.30849
1.30843
1.30837
1.30831
1.30825
1.30819
1.30813
1.30806
1.308
1.30794
1.30787
1.30781
1.30774
1.30768
1.30761
1.30755
1.30748
1.30742
1.30735
1.30729
1.30722
1.30716
1.3071
1.30703
1.30697
1.30691
1.30684
1.30678
1.30672
1.30666
1.30661
1.30655
1.30649
1.30644
1.30639
1.30634
1.30629
1.30624
1.3062
1.30616
1.30612
1.30608
1.30605
1.30601
1.30599
1.30596
1.30594
1.30592
1.30591
1.30589
1.30589
1.30588
1.30588
1.30589
1.3059
1.30592
1.30594
1.30596
1.30599
1.30603
1.30607
1.30612
1.30617
1.30623
1.30629
1.30637
1.30644
1.30653
1.30662
1.30672
1.30683
1.30694
1.30706
1.30719
1.30733
1.30747
1.30763
1.30779
1.30795
1.30813
1.30832
1.30851
1.30871
1.30892
1.30914
1.30936
1.3096
1.30984
1.31009
1.31034
1.31061
1.31088
1.31116
1.31145
1.31174
1.31204
1.31234
1.31265
1.31296
1.31328
1.3136
1.31392
1.31425
1.31458
1.3149
1.31523
1.31556
1.31589
1.31621
1.31653
1.31685
1.31716
1.31747
1.31777
1.31807
1.31836
1.31864
1.31891
1.31917
1.31943
1.31967
1.31991
1.32013
1.32035
1.32056
1.32075
1.32094
1.32112
1.32129
1.32145
1.3216
1.32175
1.32189
1.32202
1.32215
1.32227
1.32238
1.32249
1.32259
1.3227
1.32279
1.32288
1.32297
1.32306
1.32315
1.32323
1.32331
1.32338
1.32346
1.32353
1.3236
1.32367
1.32374
1.3238
1.32387
1.32393
1.32399
1.32405
1.32411
1.32417
1.32423
1.32428
1.32434
1.3244
1.32446
1.32451
1.32457
1.32463
1.32469
1.32476
1.32483
1.3249
1.32498
1.32506
1.32514
1.32524
1.32534
1.32544
1.32556
1.32569
1.32582
1.32597
1.32613
1.3263
1.32649
1.32669
1.3269
1.32713
1.32738
1.32765
1.32793
1.32824
1.32856
1.32891
1.32928
1.32967
1.33008
1.33053
1.33099
1.33149
1.33201
1.33257
1.33315
1.33377
1.33442
1.3351
1.33583
1.33659
1.33739
1.33824
1.33913
1.34007
1.34107
1.34212
1.34324
1.34443
1.3457
1.34705
1.3485
1.35007
1.35176
1.35361
1.35564
1.35789
1.36041
1.36329
1.36661
1.37054
1.37532
1.3815
1.39008
1.40216
1.42006
1.45682
1.2512
1.25952
1.27235
1.2837
1.28949
1.29233
1.29406
1.29532
1.29626
1.29695
1.29747
1.29788
1.2982
1.29846
1.29867
1.29884
1.29899
1.2991
1.2992
1.29927
1.29934
1.29938
1.29942
1.29945
1.29946
1.29947
1.29947
1.29946
1.29945
1.29943
1.29941
1.29938
1.29934
1.29931
1.29927
1.29922
1.29918
1.29913
1.29908
1.29903
1.29898
1.29892
1.29887
1.29882
1.29876
1.29871
1.29866
1.29861
1.29857
1.29853
1.29849
1.29845
1.29842
1.29839
1.29837
1.29835
1.29834
1.29833
1.29833
1.29834
1.29835
1.29837
1.2984
1.29844
1.29849
1.29854
1.2986
1.29867
1.29875
1.29884
1.29894
1.29905
1.29916
1.29929
1.29942
1.29956
1.29971
1.29987
1.30004
1.30022
1.3004
1.30059
1.3008
1.301
1.30122
1.30144
1.30167
1.3019
1.30214
1.30238
1.30263
1.30289
1.30314
1.3034
1.30367
1.30393
1.3042
1.30446
1.30473
1.30499
1.30526
1.30552
1.30577
1.30603
1.30628
1.30653
1.30677
1.307
1.30723
1.30745
1.30767
1.30787
1.30807
1.30825
1.30843
1.3086
1.30875
1.3089
1.30903
1.30916
1.30927
1.30937
1.30946
1.30955
1.30962
1.30968
1.30973
1.30978
1.30981
1.30984
1.30986
1.30987
1.30988
1.30988
1.30987
1.30986
1.30985
1.30983
1.30981
1.30978
1.30975
1.30972
1.30968
1.30965
1.30961
1.30957
1.30952
1.30948
1.30944
1.30939
1.30934
1.30929
1.30924
1.30919
1.30914
1.30909
1.30904
1.30899
1.30893
1.30888
1.30882
1.30877
1.30871
1.30865
1.3086
1.30854
1.30848
1.30842
1.30836
1.3083
1.30824
1.30818
1.30811
1.30805
1.30799
1.30793
1.30786
1.3078
1.30773
1.30767
1.30761
1.30754
1.30748
1.30741
1.30735
1.30728
1.30722
1.30715
1.30709
1.30702
1.30696
1.3069
1.30684
1.30678
1.30672
1.30666
1.3066
1.30654
1.30649
1.30644
1.30639
1.30633
1.30629
1.30624
1.3062
1.30616
1.30612
1.30608
1.30605
1.30601
1.30599
1.30596
1.30594
1.30592
1.30591
1.3059
1.30589
1.30589
1.30589
1.3059
1.30591
1.30592
1.30594
1.30597
1.306
1.30604
1.30608
1.30613
1.30618
1.30624
1.30631
1.30638
1.30646
1.30655
1.30664
1.30674
1.30685
1.30696
1.30708
1.30721
1.30735
1.3075
1.30765
1.30781
1.30798
1.30816
1.30834
1.30854
1.30874
1.30895
1.30917
1.30939
1.30963
1.30987
1.31012
1.31038
1.31064
1.31092
1.3112
1.31148
1.31177
1.31207
1.31237
1.31268
1.313
1.31331
1.31363
1.31396
1.31428
1.31461
1.31494
1.31526
1.31559
1.31592
1.31624
1.31656
1.31687
1.31719
1.31749
1.31779
1.31809
1.31837
1.31865
1.31892
1.31918
1.31943
1.31968
1.31991
1.32013
1.32035
1.32055
1.32075
1.32093
1.32111
1.32128
1.32144
1.32159
1.32174
1.32188
1.32201
1.32213
1.32225
1.32237
1.32248
1.32258
1.32268
1.32278
1.32287
1.32296
1.32305
1.32313
1.32321
1.32329
1.32337
1.32344
1.32352
1.32359
1.32366
1.32372
1.32379
1.32385
1.32392
1.32398
1.32404
1.3241
1.32416
1.32421
1.32427
1.32433
1.32439
1.32444
1.3245
1.32456
1.32462
1.32469
1.32475
1.32482
1.32489
1.32497
1.32505
1.32514
1.32524
1.32534
1.32545
1.32557
1.32569
1.32583
1.32598
1.32614
1.32632
1.32651
1.32671
1.32693
1.32716
1.32741
1.32768
1.32797
1.32828
1.3286
1.32895
1.32933
1.32972
1.33014
1.33059
1.33106
1.33156
1.33209
1.33265
1.33324
1.33386
1.33451
1.3352
1.33593
1.3367
1.33751
1.33836
1.33926
1.34022
1.34122
1.34229
1.34342
1.34462
1.34591
1.34728
1.34876
1.35035
1.35208
1.35398
1.35606
1.35839
1.36101
1.36401
1.36751
1.3717
1.37686
1.38337
1.39186
1.40431
1.42601
1.46015
1.2723
1.2687
1.27668
1.28344
1.28757
1.29055
1.2927
1.29421
1.2953
1.29612
1.29676
1.29726
1.29766
1.29799
1.29825
1.29847
1.29865
1.29879
1.29892
1.29902
1.2991
1.29917
1.29922
1.29926
1.29929
1.29931
1.29932
1.29932
1.29931
1.2993
1.29929
1.29926
1.29924
1.2992
1.29917
1.29913
1.29909
1.29905
1.299
1.29895
1.2989
1.29885
1.2988
1.29875
1.2987
1.29865
1.29861
1.29856
1.29852
1.29848
1.29844
1.29841
1.29838
1.29835
1.29833
1.29831
1.2983
1.2983
1.2983
1.29831
1.29833
1.29835
1.29838
1.29842
1.29847
1.29853
1.29859
1.29866
1.29875
1.29884
1.29894
1.29904
1.29916
1.29929
1.29942
1.29957
1.29972
1.29988
1.30005
1.30023
1.30041
1.30061
1.30081
1.30102
1.30123
1.30145
1.30168
1.30192
1.30216
1.3024
1.30265
1.30291
1.30316
1.30342
1.30369
1.30395
1.30422
1.30448
1.30475
1.30501
1.30527
1.30553
1.30579
1.30604
1.30629
1.30654
1.30678
1.30701
1.30724
1.30746
1.30767
1.30787
1.30807
1.30825
1.30843
1.30859
1.30875
1.30889
1.30903
1.30915
1.30926
1.30936
1.30945
1.30953
1.3096
1.30966
1.30971
1.30975
1.30979
1.30981
1.30983
1.30985
1.30985
1.30985
1.30985
1.30984
1.30982
1.3098
1.30978
1.30975
1.30973
1.30969
1.30966
1.30962
1.30958
1.30954
1.3095
1.30946
1.30941
1.30937
1.30932
1.30927
1.30923
1.30918
1.30912
1.30907
1.30902
1.30897
1.30892
1.30886
1.30881
1.30875
1.3087
1.30864
1.30858
1.30852
1.30847
1.30841
1.30835
1.30829
1.30823
1.30816
1.3081
1.30804
1.30798
1.30791
1.30785
1.30779
1.30772
1.30766
1.30759
1.30753
1.30747
1.3074
1.30734
1.30727
1.30721
1.30714
1.30708
1.30702
1.30695
1.30689
1.30683
1.30677
1.30671
1.30665
1.30659
1.30654
1.30648
1.30643
1.30638
1.30633
1.30628
1.30624
1.30619
1.30615
1.30611
1.30608
1.30604
1.30601
1.30598
1.30596
1.30594
1.30592
1.30591
1.3059
1.30589
1.30589
1.30589
1.3059
1.30591
1.30592
1.30595
1.30597
1.306
1.30604
1.30608
1.30613
1.30619
1.30625
1.30631
1.30639
1.30647
1.30655
1.30665
1.30675
1.30686
1.30697
1.3071
1.30723
1.30737
1.30751
1.30767
1.30783
1.308
1.30818
1.30836
1.30856
1.30876
1.30897
1.30919
1.30942
1.30965
1.3099
1.31015
1.31041
1.31067
1.31094
1.31122
1.31151
1.3118
1.3121
1.31241
1.31271
1.31303
1.31335
1.31367
1.31399
1.31431
1.31464
1.31497
1.3153
1.31562
1.31595
1.31627
1.31659
1.3169
1.31721
1.31752
1.31782
1.31811
1.31839
1.31867
1.31894
1.3192
1.31945
1.31969
1.31992
1.32014
1.32035
1.32056
1.32075
1.32094
1.32111
1.32128
1.32144
1.32159
1.32173
1.32187
1.322
1.32213
1.32224
1.32236
1.32247
1.32257
1.32267
1.32277
1.32286
1.32295
1.32304
1.32312
1.3232
1.32328
1.32336
1.32343
1.3235
1.32358
1.32364
1.32371
1.32378
1.32384
1.32391
1.32397
1.32403
1.32409
1.32415
1.3242
1.32426
1.32432
1.32437
1.32443
1.32449
1.32455
1.32461
1.32468
1.32474
1.32481
1.32488
1.32496
1.32505
1.32513
1.32523
1.32533
1.32544
1.32556
1.32569
1.32583
1.32598
1.32615
1.32632
1.32651
1.32672
1.32693
1.32717
1.32742
1.3277
1.32799
1.3283
1.32863
1.32898
1.32935
1.32975
1.33018
1.33062
1.3311
1.3316
1.33213
1.33269
1.33329
1.33391
1.33457
1.33527
1.336
1.33677
1.33758
1.33844
1.33935
1.3403
1.34132
1.34239
1.34353
1.34474
1.34603
1.34741
1.34889
1.3505
1.35224
1.35415
1.35625
1.3586
1.36124
1.36425
1.36775
1.37188
1.37688
1.38313
1.39123
1.40141
1.41247
1.42278
1.28013
1.27896
1.28135
1.28417
1.28745
1.29011
1.29204
1.29349
1.29462
1.2955
1.2962
1.29675
1.2972
1.29757
1.29788
1.29813
1.29834
1.29851
1.29866
1.29878
1.29888
1.29896
1.29903
1.29908
1.29912
1.29915
1.29917
1.29918
1.29919
1.29918
1.29917
1.29915
1.29913
1.29911
1.29908
1.29904
1.299
1.29896
1.29892
1.29888
1.29883
1.29878
1.29874
1.29869
1.29864
1.2986
1.29855
1.29851
1.29847
1.29843
1.29839
1.29836
1.29833
1.29831
1.29829
1.29828
1.29827
1.29827
1.29827
1.29828
1.2983
1.29832
1.29836
1.2984
1.29845
1.2985
1.29857
1.29865
1.29873
1.29882
1.29892
1.29903
1.29915
1.29928
1.29942
1.29956
1.29972
1.29988
1.30005
1.30023
1.30042
1.30061
1.30081
1.30102
1.30124
1.30146
1.30169
1.30193
1.30217
1.30242
1.30267
1.30292
1.30318
1.30344
1.3037
1.30397
1.30423
1.3045
1.30476
1.30503
1.30529
1.30555
1.30581
1.30606
1.30631
1.30656
1.3068
1.30703
1.30726
1.30747
1.30768
1.30789
1.30808
1.30826
1.30844
1.3086
1.30875
1.3089
1.30903
1.30915
1.30926
1.30936
1.30944
1.30952
1.30959
1.30965
1.3097
1.30974
1.30977
1.3098
1.30982
1.30983
1.30983
1.30983
1.30983
1.30981
1.3098
1.30978
1.30976
1.30973
1.3097
1.30967
1.30964
1.3096
1.30956
1.30952
1.30948
1.30944
1.30939
1.30935
1.3093
1.30925
1.30921
1.30916
1.30911
1.30905
1.309
1.30895
1.3089
1.30884
1.30879
1.30873
1.30868
1.30862
1.30857
1.30851
1.30845
1.30839
1.30833
1.30827
1.30821
1.30815
1.30809
1.30803
1.30797
1.3079
1.30784
1.30778
1.30771
1.30765
1.30758
1.30752
1.30745
1.30739
1.30733
1.30726
1.3072
1.30713
1.30707
1.30701
1.30694
1.30688
1.30682
1.30676
1.3067
1.30664
1.30659
1.30653
1.30647
1.30642
1.30637
1.30632
1.30627
1.30623
1.30618
1.30614
1.3061
1.30607
1.30604
1.306
1.30598
1.30595
1.30593
1.30591
1.3059
1.30589
1.30589
1.30588
1.30589
1.30589
1.30591
1.30592
1.30594
1.30597
1.306
1.30604
1.30608
1.30613
1.30619
1.30625
1.30632
1.30639
1.30647
1.30656
1.30665
1.30675
1.30686
1.30698
1.3071
1.30723
1.30737
1.30752
1.30767
1.30784
1.30801
1.30819
1.30837
1.30857
1.30877
1.30898
1.30921
1.30943
1.30967
1.30991
1.31017
1.31042
1.31069
1.31097
1.31125
1.31153
1.31183
1.31213
1.31243
1.31274
1.31306
1.31337
1.31369
1.31402
1.31434
1.31467
1.315
1.31533
1.31565
1.31598
1.3163
1.31662
1.31694
1.31725
1.31755
1.31785
1.31814
1.31842
1.3187
1.31896
1.31922
1.31947
1.31971
1.31994
1.32016
1.32037
1.32057
1.32076
1.32095
1.32112
1.32129
1.32144
1.32159
1.32174
1.32187
1.322
1.32212
1.32224
1.32235
1.32246
1.32257
1.32266
1.32276
1.32285
1.32294
1.32303
1.32311
1.32319
1.32327
1.32335
1.32342
1.32349
1.32357
1.32363
1.3237
1.32377
1.32383
1.3239
1.32396
1.32402
1.32408
1.32413
1.32419
1.32425
1.32431
1.32436
1.32442
1.32448
1.32454
1.3246
1.32466
1.32473
1.3248
1.32487
1.32495
1.32503
1.32512
1.32522
1.32532
1.32543
1.32555
1.32568
1.32582
1.32597
1.32614
1.32631
1.3265
1.32671
1.32693
1.32717
1.32742
1.32769
1.32798
1.3283
1.32863
1.32898
1.32936
1.32976
1.33018
1.33063
1.33111
1.33162
1.33215
1.33271
1.33331
1.33393
1.33459
1.33529
1.33603
1.3368
1.33761
1.33847
1.33938
1.34034
1.34135
1.34242
1.34356
1.34477
1.34606
1.34744
1.34892
1.35051
1.35225
1.35414
1.35622
1.35852
1.36111
1.36403
1.36738
1.37127
1.37583
1.38119
1.38739
1.39427
1.39986
1.39998
1.28471
1.28428
1.28481
1.28641
1.28846
1.29028
1.29186
1.29317
1.29424
1.29509
1.29579
1.29636
1.29684
1.29723
1.29756
1.29783
1.29807
1.29826
1.29843
1.29856
1.29868
1.29878
1.29885
1.29892
1.29897
1.29901
1.29904
1.29905
1.29906
1.29907
1.29906
1.29905
1.29903
1.29901
1.29899
1.29895
1.29892
1.29888
1.29884
1.2988
1.29876
1.29872
1.29867
1.29863
1.29858
1.29854
1.29849
1.29845
1.29841
1.29838
1.29834
1.29831
1.29828
1.29826
1.29824
1.29823
1.29823
1.29822
1.29823
1.29824
1.29826
1.29829
1.29832
1.29837
1.29842
1.29848
1.29854
1.29862
1.29871
1.2988
1.2989
1.29901
1.29914
1.29926
1.2994
1.29955
1.29971
1.29987
1.30004
1.30022
1.30041
1.30061
1.30081
1.30102
1.30124
1.30147
1.3017
1.30194
1.30218
1.30243
1.30268
1.30293
1.30319
1.30346
1.30372
1.30399
1.30425
1.30452
1.30478
1.30505
1.30531
1.30557
1.30583
1.30608
1.30633
1.30658
1.30682
1.30705
1.30728
1.3075
1.30771
1.30791
1.3081
1.30828
1.30846
1.30862
1.30877
1.30891
1.30904
1.30916
1.30927
1.30936
1.30945
1.30952
1.30959
1.30965
1.30969
1.30973
1.30976
1.30979
1.3098
1.30981
1.30982
1.30981
1.30981
1.3098
1.30978
1.30976
1.30974
1.30971
1.30968
1.30965
1.30961
1.30958
1.30954
1.3095
1.30946
1.30942
1.30937
1.30933
1.30928
1.30923
1.30918
1.30914
1.30909
1.30904
1.30898
1.30893
1.30888
1.30883
1.30877
1.30872
1.30866
1.30861
1.30855
1.30849
1.30843
1.30838
1.30832
1.30826
1.3082
1.30814
1.30808
1.30801
1.30795
1.30789
1.30783
1.30776
1.3077
1.30763
1.30757
1.30751
1.30744
1.30738
1.30731
1.30725
1.30718
1.30712
1.30706
1.30699
1.30693
1.30687
1.30681
1.30675
1.30669
1.30663
1.30657
1.30652
1.30646
1.30641
1.30636
1.30631
1.30626
1.30622
1.30617
1.30613
1.30609
1.30606
1.30603
1.306
1.30597
1.30594
1.30592
1.30591
1.30589
1.30588
1.30588
1.30588
1.30588
1.30589
1.3059
1.30591
1.30594
1.30596
1.30599
1.30603
1.30608
1.30613
1.30618
1.30624
1.30631
1.30638
1.30647
1.30655
1.30665
1.30675
1.30686
1.30698
1.3071
1.30723
1.30737
1.30752
1.30767
1.30784
1.30801
1.30819
1.30838
1.30857
1.30878
1.30899
1.30921
1.30944
1.30968
1.30992
1.31018
1.31044
1.3107
1.31098
1.31126
1.31155
1.31184
1.31214
1.31245
1.31276
1.31308
1.3134
1.31372
1.31405
1.31437
1.3147
1.31503
1.31536
1.31569
1.31601
1.31634
1.31666
1.31697
1.31728
1.31759
1.31788
1.31818
1.31846
1.31873
1.319
1.31926
1.3195
1.31974
1.31997
1.32019
1.3204
1.3206
1.32079
1.32097
1.32114
1.3213
1.32146
1.32161
1.32175
1.32188
1.32201
1.32213
1.32225
1.32236
1.32246
1.32257
1.32266
1.32276
1.32285
1.32294
1.32302
1.32311
1.32319
1.32327
1.32334
1.32342
1.32349
1.32356
1.32363
1.3237
1.32376
1.32382
1.32389
1.32395
1.32401
1.32407
1.32412
1.32418
1.32424
1.3243
1.32435
1.32441
1.32447
1.32452
1.32458
1.32465
1.32471
1.32478
1.32485
1.32493
1.32501
1.3251
1.3252
1.3253
1.32541
1.32553
1.32566
1.3258
1.32595
1.32611
1.32629
1.32648
1.32669
1.32691
1.32714
1.3274
1.32767
1.32796
1.32828
1.32861
1.32896
1.32934
1.32974
1.33017
1.33062
1.3311
1.3316
1.33214
1.3327
1.33329
1.33392
1.33458
1.33528
1.33601
1.33679
1.3376
1.33846
1.33936
1.34032
1.34132
1.34239
1.34352
1.34472
1.346
1.34736
1.34882
1.35039
1.35209
1.35394
1.35596
1.35818
1.36065
1.3634
1.36649
1.36997
1.37389
1.3782
1.38263
1.3866
1.38931
1.38858
1.28806
1.28748
1.28758
1.28846
1.28962
1.29089
1.29211
1.29318
1.2941
1.29489
1.29555
1.2961
1.29657
1.29697
1.29731
1.29759
1.29784
1.29805
1.29822
1.29837
1.2985
1.29861
1.29869
1.29877
1.29883
1.29887
1.29891
1.29893
1.29895
1.29896
1.29896
1.29895
1.29894
1.29892
1.2989
1.29887
1.29884
1.29881
1.29877
1.29873
1.29869
1.29865
1.29861
1.29856
1.29852
1.29848
1.29844
1.2984
1.29836
1.29832
1.29829
1.29826
1.29823
1.29821
1.2982
1.29819
1.29818
1.29818
1.29819
1.2982
1.29822
1.29825
1.29829
1.29833
1.29838
1.29844
1.29851
1.29859
1.29868
1.29877
1.29888
1.29899
1.29911
1.29924
1.29938
1.29953
1.29969
1.29985
1.30003
1.30021
1.3004
1.3006
1.30081
1.30102
1.30124
1.30146
1.3017
1.30194
1.30218
1.30243
1.30269
1.30294
1.3032
1.30347
1.30373
1.304
1.30427
1.30454
1.3048
1.30507
1.30534
1.3056
1.30586
1.30611
1.30636
1.30661
1.30685
1.30708
1.30731
1.30752
1.30773
1.30794
1.30813
1.30831
1.30848
1.30864
1.30879
1.30893
1.30906
1.30918
1.30928
1.30938
1.30946
1.30953
1.3096
1.30965
1.3097
1.30973
1.30976
1.30978
1.3098
1.3098
1.30981
1.3098
1.30979
1.30978
1.30976
1.30974
1.30972
1.30969
1.30966
1.30963
1.30959
1.30956
1.30952
1.30948
1.30944
1.30939
1.30935
1.3093
1.30926
1.30921
1.30916
1.30911
1.30907
1.30901
1.30896
1.30891
1.30886
1.30881
1.30875
1.3087
1.30864
1.30859
1.30853
1.30847
1.30842
1.30836
1.3083
1.30824
1.30818
1.30812
1.30806
1.308
1.30794
1.30787
1.30781
1.30775
1.30768
1.30762
1.30756
1.30749
1.30743
1.30736
1.3073
1.30724
1.30717
1.30711
1.30704
1.30698
1.30692
1.30686
1.3068
1.30674
1.30668
1.30662
1.30656
1.30651
1.30645
1.3064
1.30635
1.3063
1.30625
1.3062
1.30616
1.30612
1.30608
1.30605
1.30601
1.30598
1.30596
1.30593
1.30591
1.30589
1.30588
1.30587
1.30586
1.30586
1.30587
1.30587
1.30588
1.3059
1.30592
1.30595
1.30598
1.30602
1.30606
1.30611
1.30617
1.30623
1.3063
1.30637
1.30645
1.30654
1.30664
1.30674
1.30685
1.30696
1.30709
1.30722
1.30736
1.30751
1.30766
1.30783
1.308
1.30818
1.30837
1.30857
1.30877
1.30899
1.30921
1.30944
1.30968
1.30992
1.31018
1.31044
1.31071
1.31098
1.31127
1.31156
1.31185
1.31216
1.31246
1.31278
1.31309
1.31342
1.31374
1.31407
1.3144
1.31473
1.31506
1.31539
1.31572
1.31605
1.31637
1.31669
1.31701
1.31732
1.31763
1.31793
1.31822
1.3185
1.31878
1.31904
1.3193
1.31954
1.31978
1.32001
1.32023
1.32043
1.32063
1.32082
1.321
1.32117
1.32133
1.32148
1.32163
1.32176
1.3219
1.32202
1.32214
1.32225
1.32236
1.32247
1.32257
1.32267
1.32276
1.32285
1.32294
1.32302
1.3231
1.32318
1.32326
1.32334
1.32341
1.32348
1.32355
1.32362
1.32369
1.32376
1.32382
1.32388
1.32394
1.324
1.32406
1.32412
1.32417
1.32423
1.32428
1.32434
1.3244
1.32445
1.32451
1.32457
1.32463
1.32469
1.32476
1.32483
1.32491
1.32499
1.32508
1.32517
1.32527
1.32538
1.3255
1.32563
1.32577
1.32592
1.32608
1.32626
1.32645
1.32665
1.32687
1.32711
1.32736
1.32763
1.32793
1.32824
1.32857
1.32892
1.3293
1.3297
1.33013
1.33058
1.33105
1.33156
1.33209
1.33266
1.33325
1.33388
1.33453
1.33523
1.33596
1.33673
1.33754
1.33839
1.33929
1.34024
1.34124
1.34229
1.34341
1.34459
1.34585
1.34719
1.34861
1.35015
1.35179
1.35357
1.3555
1.3576
1.3599
1.36243
1.3652
1.36821
1.37142
1.3747
1.37781
1.38019
1.38141
1.38112
1.29033
1.2897
1.28967
1.2901
1.2908
1.29166
1.29255
1.29339
1.29416
1.29484
1.29544
1.29595
1.2964
1.29679
1.29712
1.29741
1.29765
1.29787
1.29805
1.29821
1.29834
1.29846
1.29855
1.29863
1.2987
1.29875
1.29879
1.29882
1.29884
1.29886
1.29886
1.29886
1.29885
1.29884
1.29882
1.29879
1.29877
1.29873
1.2987
1.29866
1.29862
1.29858
1.29854
1.2985
1.29846
1.29842
1.29838
1.29834
1.2983
1.29827
1.29824
1.29821
1.29818
1.29816
1.29815
1.29814
1.29813
1.29813
1.29814
1.29816
1.29818
1.29821
1.29824
1.29829
1.29834
1.2984
1.29847
1.29855
1.29864
1.29874
1.29884
1.29896
1.29908
1.29922
1.29936
1.29951
1.29967
1.29983
1.30001
1.30019
1.30039
1.30059
1.30079
1.30101
1.30123
1.30146
1.30169
1.30194
1.30218
1.30243
1.30269
1.30295
1.30321
1.30348
1.30375
1.30402
1.30429
1.30456
1.30483
1.30509
1.30536
1.30562
1.30588
1.30614
1.30639
1.30664
1.30688
1.30711
1.30734
1.30756
1.30777
1.30797
1.30816
1.30834
1.30852
1.30868
1.30882
1.30896
1.30909
1.3092
1.30931
1.3094
1.30948
1.30955
1.30961
1.30966
1.3097
1.30974
1.30976
1.30978
1.30979
1.3098
1.3098
1.30979
1.30978
1.30977
1.30975
1.30973
1.3097
1.30967
1.30964
1.30961
1.30957
1.30954
1.3095
1.30946
1.30941
1.30937
1.30933
1.30928
1.30924
1.30919
1.30914
1.30909
1.30904
1.30899
1.30894
1.30889
1.30884
1.30879
1.30873
1.30868
1.30863
1.30857
1.30851
1.30846
1.3084
1.30834
1.30828
1.30822
1.30816
1.3081
1.30804
1.30798
1.30792
1.30786
1.3078
1.30773
1.30767
1.30761
1.30754
1.30748
1.30741
1.30735
1.30728
1.30722
1.30716
1.30709
1.30703
1.30697
1.3069
1.30684
1.30678
1.30672
1.30666
1.3066
1.30655
1.30649
1.30644
1.30638
1.30633
1.30628
1.30624
1.30619
1.30615
1.30611
1.30607
1.30603
1.306
1.30597
1.30594
1.30592
1.3059
1.30588
1.30586
1.30585
1.30585
1.30585
1.30585
1.30586
1.30587
1.30588
1.30591
1.30593
1.30597
1.306
1.30605
1.3061
1.30615
1.30621
1.30628
1.30635
1.30644
1.30652
1.30662
1.30672
1.30683
1.30695
1.30707
1.3072
1.30734
1.30749
1.30765
1.30781
1.30799
1.30817
1.30836
1.30855
1.30876
1.30897
1.3092
1.30943
1.30967
1.30991
1.31017
1.31043
1.3107
1.31098
1.31127
1.31156
1.31186
1.31216
1.31247
1.31279
1.31311
1.31343
1.31376
1.31409
1.31442
1.31475
1.31509
1.31542
1.31575
1.31608
1.31641
1.31673
1.31705
1.31737
1.31767
1.31797
1.31827
1.31855
1.31883
1.31909
1.31935
1.31959
1.31983
1.32005
1.32027
1.32047
1.32067
1.32086
1.32103
1.3212
1.32136
1.32151
1.32165
1.32179
1.32192
1.32204
1.32216
1.32227
1.32238
1.32248
1.32258
1.32267
1.32277
1.32285
1.32294
1.32302
1.32311
1.32319
1.32326
1.32334
1.32341
1.32348
1.32355
1.32362
1.32369
1.32375
1.32382
1.32388
1.32394
1.324
1.32405
1.32411
1.32417
1.32422
1.32427
1.32433
1.32438
1.32444
1.32449
1.32455
1.32461
1.32467
1.32474
1.32481
1.32488
1.32496
1.32505
1.32514
1.32524
1.32535
1.32546
1.32559
1.32573
1.32588
1.32604
1.32621
1.3264
1.3266
1.32682
1.32706
1.32731
1.32758
1.32787
1.32818
1.32851
1.32887
1.32924
1.32964
1.33006
1.33051
1.33099
1.33149
1.33202
1.33258
1.33317
1.3338
1.33445
1.33514
1.33587
1.33663
1.33744
1.33828
1.33917
1.34011
1.34109
1.34213
1.34323
1.34439
1.34562
1.34692
1.3483
1.34978
1.35136
1.35305
1.35487
1.35683
1.35894
1.36121
1.36362
1.36616
1.36874
1.3712
1.37334
1.37486
1.37545
1.3752
1.2919
1.29136
1.29124
1.29143
1.29186
1.29244
1.29308
1.29373
1.29435
1.29492
1.29544
1.2959
1.29631
1.29668
1.29699
1.29727
1.29752
1.29773
1.29791
1.29807
1.29821
1.29833
1.29843
1.29851
1.29858
1.29864
1.29869
1.29872
1.29875
1.29876
1.29877
1.29877
1.29877
1.29876
1.29874
1.29872
1.29869
1.29866
1.29863
1.2986
1.29856
1.29852
1.29848
1.29844
1.2984
1.29836
1.29832
1.29828
1.29825
1.29821
1.29818
1.29815
1.29813
1.29811
1.2981
1.29809
1.29808
1.29808
1.29809
1.29811
1.29813
1.29816
1.2982
1.29824
1.2983
1.29836
1.29843
1.29851
1.2986
1.2987
1.29881
1.29892
1.29905
1.29918
1.29933
1.29948
1.29964
1.29981
1.29999
1.30017
1.30036
1.30057
1.30078
1.30099
1.30122
1.30145
1.30169
1.30193
1.30218
1.30243
1.30269
1.30295
1.30322
1.30349
1.30376
1.30403
1.3043
1.30457
1.30485
1.30512
1.30538
1.30565
1.30591
1.30617
1.30642
1.30667
1.30691
1.30715
1.30738
1.3076
1.30781
1.30801
1.3082
1.30838
1.30856
1.30871
1.30886
1.309
1.30912
1.30924
1.30934
1.30943
1.3095
1.30957
1.30963
1.30968
1.30972
1.30975
1.30977
1.30979
1.30979
1.3098
1.30979
1.30979
1.30977
1.30976
1.30974
1.30971
1.30969
1.30966
1.30962
1.30959
1.30955
1.30952
1.30948
1.30943
1.30939
1.30935
1.30931
1.30926
1.30921
1.30917
1.30912
1.30907
1.30902
1.30897
1.30892
1.30887
1.30882
1.30877
1.30871
1.30866
1.30861
1.30855
1.30849
1.30844
1.30838
1.30832
1.30827
1.30821
1.30815
1.30809
1.30803
1.30796
1.3079
1.30784
1.30778
1.30772
1.30765
1.30759
1.30753
1.30746
1.3074
1.30733
1.30727
1.30721
1.30714
1.30708
1.30701
1.30695
1.30689
1.30683
1.30677
1.30671
1.30665
1.30659
1.30653
1.30648
1.30642
1.30637
1.30632
1.30627
1.30622
1.30617
1.30613
1.30609
1.30605
1.30601
1.30598
1.30595
1.30592
1.3059
1.30588
1.30586
1.30584
1.30583
1.30583
1.30583
1.30583
1.30584
1.30585
1.30586
1.30588
1.30591
1.30594
1.30598
1.30602
1.30607
1.30613
1.30619
1.30626
1.30633
1.30641
1.3065
1.30659
1.3067
1.30681
1.30692
1.30705
1.30718
1.30732
1.30747
1.30762
1.30779
1.30796
1.30814
1.30833
1.30853
1.30874
1.30895
1.30918
1.30941
1.30965
1.3099
1.31015
1.31042
1.31069
1.31097
1.31126
1.31155
1.31185
1.31216
1.31247
1.31279
1.31311
1.31344
1.31377
1.3141
1.31444
1.31477
1.31511
1.31545
1.31578
1.31612
1.31645
1.31678
1.3171
1.31741
1.31772
1.31803
1.31832
1.3186
1.31888
1.31915
1.3194
1.31965
1.31988
1.32011
1.32032
1.32052
1.32072
1.3209
1.32107
1.32124
1.3214
1.32154
1.32168
1.32182
1.32194
1.32206
1.32218
1.32229
1.32239
1.32249
1.32259
1.32268
1.32278
1.32286
1.32295
1.32303
1.32311
1.32319
1.32327
1.32334
1.32341
1.32348
1.32355
1.32362
1.32369
1.32375
1.32381
1.32387
1.32393
1.32399
1.32405
1.3241
1.32416
1.32421
1.32426
1.32432
1.32437
1.32442
1.32448
1.32453
1.32459
1.32465
1.32472
1.32478
1.32485
1.32493
1.32502
1.3251
1.3252
1.32531
1.32542
1.32555
1.32568
1.32583
1.32599
1.32616
1.32634
1.32654
1.32676
1.32699
1.32724
1.32751
1.3278
1.32811
1.32844
1.32879
1.32916
1.32956
1.32998
1.33043
1.3309
1.3314
1.33193
1.33248
1.33307
1.33369
1.33434
1.33502
1.33574
1.3365
1.33729
1.33813
1.339
1.33992
1.34089
1.34191
1.34298
1.34411
1.3453
1.34656
1.3479
1.34931
1.35081
1.3524
1.3541
1.3559
1.35781
1.35981
1.36189
1.364
1.36604
1.36789
1.36939
1.37037
1.3707
1.37035
1.29305
1.29261
1.29244
1.29251
1.29277
1.29315
1.29361
1.29411
1.2946
1.29507
1.29552
1.29592
1.29629
1.29663
1.29692
1.29719
1.29742
1.29762
1.2978
1.29796
1.2981
1.29822
1.29832
1.29841
1.29848
1.29854
1.29859
1.29863
1.29866
1.29868
1.29869
1.29869
1.29869
1.29868
1.29867
1.29865
1.29862
1.2986
1.29857
1.29853
1.2985
1.29846
1.29842
1.29838
1.29834
1.2983
1.29827
1.29823
1.29819
1.29816
1.29813
1.2981
1.29808
1.29806
1.29804
1.29803
1.29803
1.29803
1.29804
1.29806
1.29808
1.29811
1.29815
1.2982
1.29825
1.29831
1.29839
1.29847
1.29856
1.29866
1.29877
1.29888
1.29901
1.29915
1.29929
1.29945
1.29961
1.29978
1.29996
1.30014
1.30034
1.30054
1.30076
1.30097
1.3012
1.30143
1.30167
1.30192
1.30217
1.30243
1.30269
1.30295
1.30322
1.30349
1.30377
1.30404
1.30432
1.30459
1.30487
1.30514
1.30541
1.30568
1.30594
1.3062
1.30646
1.3067
1.30695
1.30719
1.30742
1.30764
1.30785
1.30805
1.30825
1.30843
1.3086
1.30876
1.30891
1.30904
1.30916
1.30927
1.30937
1.30946
1.30953
1.3096
1.30965
1.3097
1.30973
1.30976
1.30978
1.30979
1.3098
1.3098
1.30979
1.30978
1.30977
1.30975
1.30973
1.3097
1.30967
1.30964
1.30961
1.30957
1.30953
1.3095
1.30946
1.30941
1.30937
1.30933
1.30928
1.30924
1.30919
1.30914
1.3091
1.30905
1.309
1.30895
1.3089
1.30885
1.3088
1.30874
1.30869
1.30864
1.30858
1.30853
1.30847
1.30842
1.30836
1.3083
1.30825
1.30819
1.30813
1.30807
1.30801
1.30795
1.30789
1.30782
1.30776
1.3077
1.30764
1.30757
1.30751
1.30744
1.30738
1.30732
1.30725
1.30719
1.30712
1.30706
1.307
1.30693
1.30687
1.30681
1.30675
1.30669
1.30663
1.30657
1.30651
1.30646
1.3064
1.30635
1.3063
1.30625
1.3062
1.30615
1.30611
1.30607
1.30603
1.30599
1.30596
1.30593
1.3059
1.30588
1.30585
1.30584
1.30582
1.30581
1.30581
1.3058
1.3058
1.30581
1.30582
1.30584
1.30586
1.30588
1.30592
1.30595
1.306
1.30604
1.3061
1.30616
1.30623
1.3063
1.30638
1.30647
1.30656
1.30666
1.30677
1.30689
1.30702
1.30715
1.30729
1.30744
1.30759
1.30776
1.30793
1.30811
1.3083
1.3085
1.30871
1.30892
1.30915
1.30938
1.30962
1.30987
1.31013
1.3104
1.31067
1.31095
1.31124
1.31154
1.31184
1.31215
1.31247
1.31279
1.31311
1.31344
1.31378
1.31411
1.31445
1.31479
1.31513
1.31548
1.31582
1.31615
1.31649
1.31682
1.31714
1.31746
1.31778
1.31808
1.31838
1.31866
1.31894
1.31921
1.31946
1.31971
1.31994
1.32017
1.32038
1.32058
1.32077
1.32095
1.32112
1.32129
1.32144
1.32158
1.32172
1.32185
1.32197
1.32209
1.3222
1.32231
1.32241
1.32251
1.32261
1.3227
1.32279
1.32287
1.32296
1.32304
1.32312
1.32319
1.32327
1.32334
1.32342
1.32349
1.32356
1.32362
1.32369
1.32375
1.32381
1.32387
1.32393
1.32399
1.32405
1.3241
1.32415
1.3242
1.32426
1.32431
1.32436
1.32441
1.32446
1.32451
1.32457
1.32463
1.32469
1.32475
1.32482
1.3249
1.32498
1.32506
1.32516
1.32526
1.32537
1.32549
1.32563
1.32577
1.32593
1.32609
1.32628
1.32648
1.32669
1.32692
1.32717
1.32743
1.32772
1.32802
1.32835
1.3287
1.32907
1.32946
1.32988
1.33032
1.33079
1.33128
1.3318
1.33236
1.33294
1.33355
1.33419
1.33487
1.33558
1.33632
1.33711
1.33793
1.33879
1.33969
1.34064
1.34163
1.34268
1.34377
1.34492
1.34613
1.34741
1.34875
1.35016
1.35165
1.35321
1.35485
1.35656
1.35832
1.36009
1.36182
1.36344
1.36484
1.36591
1.36656
1.36673
1.36635
1.29393
1.29357
1.29339
1.29339
1.29354
1.29379
1.29413
1.2945
1.29489
1.29528
1.29565
1.296
1.29632
1.29662
1.29689
1.29714
1.29736
1.29755
1.29773
1.29788
1.29802
1.29813
1.29823
1.29832
1.2984
1.29846
1.29851
1.29855
1.29858
1.2986
1.29861
1.29862
1.29862
1.29861
1.2986
1.29858
1.29856
1.29854
1.29851
1.29847
1.29844
1.2984
1.29837
1.29833
1.29829
1.29825
1.29821
1.29818
1.29814
1.29811
1.29808
1.29805
1.29803
1.29801
1.29799
1.29798
1.29798
1.29798
1.29799
1.29801
1.29803
1.29806
1.2981
1.29815
1.2982
1.29827
1.29834
1.29842
1.29851
1.29861
1.29873
1.29884
1.29897
1.29911
1.29925
1.29941
1.29957
1.29974
1.29993
1.30011
1.30031
1.30052
1.30073
1.30095
1.30118
1.30141
1.30166
1.3019
1.30216
1.30242
1.30268
1.30295
1.30322
1.3035
1.30377
1.30405
1.30433
1.30461
1.30488
1.30516
1.30543
1.3057
1.30597
1.30623
1.30649
1.30674
1.30699
1.30723
1.30746
1.30768
1.3079
1.3081
1.3083
1.30848
1.30865
1.30881
1.30895
1.30909
1.30921
1.30932
1.30941
1.3095
1.30957
1.30963
1.30968
1.30972
1.30976
1.30978
1.30979
1.3098
1.30981
1.3098
1.30979
1.30978
1.30976
1.30974
1.30972
1.30969
1.30966
1.30963
1.30959
1.30955
1.30952
1.30948
1.30944
1.30939
1.30935
1.30931
1.30926
1.30922
1.30917
1.30912
1.30907
1.30903
1.30898
1.30893
1.30888
1.30883
1.30878
1.30872
1.30867
1.30862
1.30856
1.30851
1.30845
1.3084
1.30834
1.30828
1.30823
1.30817
1.30811
1.30805
1.30799
1.30793
1.30787
1.30781
1.30774
1.30768