# vtk DataFile Version 2.0
LBE mesh
ASCII
DATASET STRUCTURED_POINTS
DIMENSIONS 400 100 1
ASPECT_RATIO 1 1 1
ORIGIN 0 0 0
POINT_DATA 40000
SCALARS rho double 1
LOOKUP_TABLE default
1.02052
1.07111
1.08641
1.09055
1.0928
1.09449
1.09567
1.09643
1.09696
1.09733
1.0976
1.09781
1.09795
1.09806
1.09813
1.09817
1.09819
1.09819
1.09818
1.09815
1.09811
1.09806
1.09801
1.09795
1.09788
1.0978
1.09772
1.09764
1.09756
1.09747
1.09737
1.09728
1.09718
1.09709
1.09699
1.09689
1.09679
1.09669
1.09658
1.09648
1.09638
1.09628
1.09617
1.09607
1.09597
1.09587
1.09577
1.09567
1.09557
1.09548
1.09539
1.0953
1.09521
1.09512
1.09504
1.09497
1.09489
1.09482
1.09476
1.0947
1.09465
1.0946
1.09456
1.09452
1.0945
1.09447
1.09446
1.09445
1.09445
1.09446
1.09447
1.09449
1.09452
1.09456
1.09461
1.09466
1.09472
1.09479
1.09487
1.09495
1.09504
1.09514
1.09524
1.09535
1.09547
1.09559
1.09572
1.09585
1.09599
1.09613
1.09628
1.09643
1.09658
1.09673
1.09689
1.09705
1.09721
1.09737
1.09752
1.09768
1.09784
1.098
1.09815
1.0983
1.09845
1.09859
1.09873
1.09886
1.09899
1.09912
1.09924
1.09935
1.09945
1.09955
1.09964
1.09973
1.0998
1.09987
1.09994
1.09999
1.10004
1.10007
1.10011
1.10013
1.10015
1.10016
1.10017
1.10018
1.10017
1.10017
1.10016
1.10015
1.10013
1.10011
1.10009
1.10007
1.10005
1.10002
1.09999
1.09997
1.09994
1.09991
1.09989
1.09986
1.09983
1.09981
1.09978
1.09976
1.09973
1.09971
1.09968
1.09966
1.09964
1.09962
1.0996
1.09958
1.09957
1.09956
1.09954
1.09953
1.09952
1.09952
1.09951
1.09951
1.09951
1.09951
1.09951
1.09952
1.09953
1.09954
1.09955
1.09956
1.09958
1.0996
1.09962
1.09964
1.09966
1.09969
1.09972
1.09974
1.09977
1.0998
1.09984
1.09987
1.0999
1.09993
1.09997
1.1
1.10003
1.10006
1.1001
1.10013
1.10016
1.10019
1.10021
1.10024
1.10026
1.10029
1.10031
1.10033
1.10035
1.10036
1.10038
1.10039
1.1004
1.10041
1.10041
1.10042
1.10042
1.10042
1.10042
1.10041
1.10041
1.1004
1.10039
1.10038
1.10037
1.10035
1.10034
1.10032
1.1003
1.10029
1.10027
1.10025
1.10023
1.10021
1.10019
1.10017
1.10015
1.10014
1.10012
1.1001
1.10009
1.10007
1.10006
1.10005
1.10004
1.10003
1.10002
1.10002
1.10002
1.10002
1.10002
1.10003
1.10004
1.10006
1.10008
1.1001
1.10013
1.10016
1.1002
1.10024
1.10029
1.10035
1.10041
1.10047
1.10054
1.10062
1.10071
1.1008
1.10089
1.10099
1.1011
1.10122
1.10134
1.10146
1.10159
1.10173
1.10187
1.10201
1.10215
1.1023
1.10245
1.1026
1.10275
1.1029
1.10305
1.10319
1.10334
1.10348
1.10362
1.10375
1.10388
1.104
1.10412
1.10423
1.10434
1.10444
1.10454
1.10463
1.10471
1.10479
1.10486
1.10493
1.105
1.10506
1.10511
1.10517
1.10522
1.10527
1.10532
1.10537
1.10541
1.10546
1.10551
1.10555
1.1056
1.10565
1.10569
1.10574
1.10579
1.10584
1.10588
1.10593
1.10598
1.10602
1.10607
1.10611
1.10615
1.10619
1.10622
1.10625
1.10627
1.10629
1.10631
1.10632
1.10632
1.10632
1.10631
1.10629
1.10627
1.10624
1.10621
1.10616
1.10612
1.10606
1.106
1.10594
1.10587
1.10579
1.10571
1.10563
1.10554
1.10545
1.10536
1.10527
1.10518
1.10509
1.105
1.10491
1.10483
1.10476
1.10469
1.10463
1.10458
1.10454
1.10452
1.10451
1.10451
1.10454
1.10458
1.10464
1.10473
1.10485
1.10499
1.10516
1.10536
1.1056
1.10587
1.10618
1.10653
1.10691
1.10735
1.10782
1.10835
1.10892
1.10955
1.11022
1.11096
1.11176
1.11262
1.11354
1.11455
1.11563
1.1168
1.11807
1.11945
1.12096
1.12262
1.12446
1.12653
1.12888
1.1316
1.13482
1.13876
1.14385
1.15087
1.16073
1.1763
1.20996
1.05639
1.06841
1.079
1.08658
1.09062
1.09284
1.09427
1.09529
1.09602
1.09656
1.09695
1.09724
1.09746
1.09762
1.09774
1.09783
1.09788
1.09791
1.09792
1.09792
1.0979
1.09787
1.09783
1.09778
1.09772
1.09766
1.09759
1.09751
1.09744
1.09735
1.09727
1.09718
1.09709
1.097
1.0969
1.09681
1.09671
1.09661
1.09651
1.09641
1.09631
1.09621
1.09611
1.09601
1.09592
1.09582
1.09572
1.09562
1.09553
1.09544
1.09535
1.09526
1.09517
1.09509
1.09501
1.09494
1.09487
1.0948
1.09474
1.09468
1.09463
1.09459
1.09455
1.09451
1.09449
1.09447
1.09445
1.09445
1.09445
1.09446
1.09447
1.0945
1.09453
1.09457
1.09462
1.09467
1.09473
1.0948
1.09488
1.09496
1.09505
1.09515
1.09526
1.09537
1.09549
1.09561
1.09574
1.09587
1.09601
1.09615
1.0963
1.09645
1.0966
1.09675
1.09691
1.09707
1.09722
1.09738
1.09754
1.0977
1.09785
1.09801
1.09816
1.09831
1.09846
1.0986
1.09874
1.09887
1.099
1.09912
1.09924
1.09935
1.09945
1.09955
1.09964
1.09972
1.09979
1.09986
1.09992
1.09997
1.10002
1.10006
1.10009
1.10011
1.10013
1.10014
1.10015
1.10015
1.10015
1.10015
1.10014
1.10012
1.10011
1.10009
1.10007
1.10005
1.10003
1.1
1.09998
1.09995
1.09992
1.0999
1.09987
1.09985
1.09982
1.09979
1.09977
1.09974
1.09972
1.0997
1.09967
1.09965
1.09963
1.09961
1.09959
1.09958
1.09956
1.09955
1.09954
1.09953
1.09952
1.09951
1.09951
1.0995
1.0995
1.0995
1.09951
1.09951
1.09952
1.09953
1.09954
1.09956
1.09958
1.09959
1.09961
1.09964
1.09966
1.09968
1.09971
1.09974
1.09977
1.0998
1.09983
1.09986
1.09989
1.09993
1.09996
1.09999
1.10002
1.10006
1.10009
1.10012
1.10015
1.10018
1.1002
1.10023
1.10026
1.10028
1.1003
1.10032
1.10034
1.10035
1.10037
1.10038
1.10039
1.1004
1.1004
1.10041
1.10041
1.10041
1.10041
1.1004
1.1004
1.10039
1.10038
1.10037
1.10036
1.10034
1.10033
1.10031
1.10029
1.10028
1.10026
1.10024
1.10022
1.1002
1.10018
1.10017
1.10015
1.10013
1.10011
1.1001
1.10008
1.10007
1.10005
1.10004
1.10003
1.10003
1.10002
1.10002
1.10002
1.10002
1.10003
1.10004
1.10005
1.10006
1.10008
1.10011
1.10014
1.10017
1.10021
1.10025
1.1003
1.10036
1.10042
1.10049
1.10056
1.10064
1.10072
1.10082
1.10091
1.10102
1.10113
1.10124
1.10136
1.10149
1.10162
1.10175
1.10189
1.10204
1.10218
1.10233
1.10248
1.10263
1.10278
1.10293
1.10307
1.10322
1.10336
1.1035
1.10364
1.10377
1.1039
1.10402
1.10414
1.10425
1.10436
1.10446
1.10455
1.10464
1.10472
1.1048
1.10487
1.10494
1.105
1.10506
1.10512
1.10518
1.10523
1.10528
1.10532
1.10537
1.10542
1.10546
1.10551
1.10556
1.1056
1.10565
1.1057
1.10574
1.10579
1.10584
1.10589
1.10593
1.10598
1.10602
1.10607
1.10611
1.10614
1.10618
1.10621
1.10624
1.10626
1.10628
1.10629
1.1063
1.10631
1.1063
1.10629
1.10628
1.10625
1.10622
1.10619
1.10615
1.1061
1.10604
1.10598
1.10592
1.10585
1.10577
1.10569
1.10561
1.10552
1.10544
1.10535
1.10526
1.10517
1.10508
1.10499
1.10491
1.10483
1.10476
1.10469
1.10464
1.10459
1.10456
1.10453
1.10453
1.10454
1.10456
1.10461
1.10468
1.10478
1.10489
1.10504
1.10522
1.10543
1.10567
1.10595
1.10626
1.10662
1.10701
1.10745
1.10793
1.10847
1.10905
1.10968
1.11037
1.11112
1.11192
1.11279
1.11374
1.11475
1.11585
1.11704
1.11833
1.11975
1.12129
1.123
1.1249
1.12705
1.12951
1.13238
1.13582
1.14006
1.14542
1.15247
1.16293
1.18094
1.20876
1.07414
1.07485
1.08097
1.08596
1.08923
1.09156
1.09322
1.0944
1.09525
1.09588
1.09636
1.09673
1.09701
1.09722
1.09739
1.0975
1.09759
1.09765
1.09768
1.0977
1.09769
1.09768
1.09765
1.09761
1.09757
1.09751
1.09745
1.09739
1.09732
1.09724
1.09716
1.09708
1.09699
1.0969
1.09681
1.09672
1.09663
1.09654
1.09644
1.09634
1.09625
1.09615
1.09605
1.09596
1.09586
1.09576
1.09567
1.09557
1.09548
1.09539
1.0953
1.09522
1.09513
1.09505
1.09498
1.0949
1.09484
1.09477
1.09471
1.09466
1.09461
1.09456
1.09453
1.09449
1.09447
1.09445
1.09444
1.09444
1.09444
1.09445
1.09447
1.09449
1.09453
1.09457
1.09462
1.09467
1.09474
1.09481
1.09488
1.09497
1.09506
1.09516
1.09527
1.09538
1.0955
1.09562
1.09575
1.09588
1.09602
1.09617
1.09631
1.09646
1.09661
1.09677
1.09693
1.09708
1.09724
1.0974
1.09756
1.09771
1.09787
1.09802
1.09817
1.09832
1.09847
1.09861
1.09874
1.09888
1.099
1.09912
1.09924
1.09935
1.09945
1.09955
1.09963
1.09971
1.09979
1.09985
1.09991
1.09996
1.10001
1.10004
1.10007
1.10009
1.10011
1.10012
1.10013
1.10013
1.10013
1.10012
1.10011
1.1001
1.10008
1.10007
1.10005
1.10002
1.1
1.09998
1.09995
1.09993
1.0999
1.09988
1.09985
1.09982
1.0998
1.09977
1.09975
1.09972
1.0997
1.09968
1.09966
1.09963
1.09961
1.0996
1.09958
1.09956
1.09955
1.09953
1.09952
1.09951
1.0995
1.0995
1.09949
1.09949
1.09949
1.09949
1.0995
1.0995
1.09951
1.09952
1.09953
1.09955
1.09956
1.09958
1.0996
1.09962
1.09965
1.09967
1.0997
1.09973
1.09976
1.09979
1.09982
1.09985
1.09988
1.09991
1.09995
1.09998
1.10001
1.10004
1.10007
1.1001
1.10013
1.10016
1.10019
1.10021
1.10024
1.10026
1.10028
1.1003
1.10032
1.10034
1.10035
1.10036
1.10037
1.10038
1.10038
1.10039
1.10039
1.10039
1.10039
1.10038
1.10038
1.10037
1.10036
1.10035
1.10034
1.10032
1.10031
1.10029
1.10028
1.10026
1.10024
1.10022
1.10021
1.10019
1.10017
1.10015
1.10013
1.10011
1.1001
1.10008
1.10007
1.10005
1.10004
1.10003
1.10002
1.10002
1.10001
1.10001
1.10001
1.10001
1.10002
1.10003
1.10004
1.10006
1.10008
1.10011
1.10014
1.10017
1.10021
1.10026
1.10031
1.10036
1.10043
1.10049
1.10057
1.10065
1.10073
1.10083
1.10093
1.10103
1.10114
1.10126
1.10138
1.10151
1.10164
1.10178
1.10192
1.10206
1.10221
1.10235
1.1025
1.10265
1.1028
1.10295
1.1031
1.10325
1.10339
1.10353
1.10367
1.1038
1.10393
1.10405
1.10416
1.10427
1.10438
1.10448
1.10457
1.10466
1.10474
1.10482
1.10489
1.10495
1.10502
1.10508
1.10513
1.10518
1.10524
1.10528
1.10533
1.10538
1.10542
1.10547
1.10552
1.10556
1.10561
1.10565
1.1057
1.10575
1.10579
1.10584
1.10589
1.10593
1.10598
1.10602
1.10606
1.1061
1.10614
1.10618
1.10621
1.10623
1.10626
1.10627
1.10629
1.10629
1.10629
1.10629
1.10628
1.10626
1.10624
1.10621
1.10617
1.10613
1.10608
1.10602
1.10596
1.1059
1.10583
1.10575
1.10567
1.10559
1.1055
1.10542
1.10533
1.10524
1.10515
1.10506
1.10498
1.10489
1.10482
1.10475
1.10468
1.10463
1.10459
1.10455
1.10453
1.10453
1.10454
1.10457
1.10462
1.1047
1.10479
1.10492
1.10507
1.10525
1.10546
1.10571
1.10599
1.10631
1.10667
1.10707
1.10752
1.10801
1.10855
1.10913
1.10977
1.11047
1.11122
1.11203
1.11291
1.11386
1.11489
1.11599
1.11719
1.1185
1.11992
1.12148
1.1232
1.12512
1.12728
1.12975
1.13262
1.13601
1.14012
1.14527
1.15195
1.1604
1.16959
1.17769
1.08249
1.08185
1.08399
1.08657
1.08913
1.09116
1.09266
1.09381
1.09469
1.09537
1.09589
1.0963
1.09662
1.09687
1.09706
1.09721
1.09732
1.0974
1.09745
1.09748
1.0975
1.0975
1.09748
1.09745
1.09742
1.09737
1.09732
1.09726
1.0972
1.09713
1.09705
1.09698
1.0969
1.09681
1.09673
1.09664
1.09655
1.09646
1.09636
1.09627
1.09618
1.09608
1.09599
1.09589
1.0958
1.0957
1.09561
1.09552
1.09543
1.09534
1.09525
1.09517
1.09509
1.09501
1.09493
1.09486
1.0948
1.09473
1.09467
1.09462
1.09457
1.09453
1.0945
1.09447
1.09444
1.09443
1.09442
1.09441
1.09442
1.09443
1.09445
1.09448
1.09451
1.09456
1.09461
1.09466
1.09473
1.0948
1.09488
1.09497
1.09506
1.09516
1.09527
1.09538
1.0955
1.09563
1.09576
1.09589
1.09603
1.09618
1.09632
1.09647
1.09663
1.09678
1.09694
1.0971
1.09725
1.09741
1.09757
1.09773
1.09788
1.09804
1.09819
1.09833
1.09848
1.09862
1.09876
1.09889
1.09901
1.09913
1.09925
1.09936
1.09946
1.09955
1.09964
1.09972
1.09979
1.09985
1.09991
1.09996
1.1
1.10003
1.10006
1.10008
1.1001
1.10011
1.10011
1.10011
1.10011
1.1001
1.10009
1.10007
1.10006
1.10004
1.10002
1.1
1.09997
1.09995
1.09993
1.0999
1.09987
1.09985
1.09982
1.0998
1.09977
1.09975
1.09972
1.0997
1.09967
1.09965
1.09963
1.09961
1.09959
1.09957
1.09955
1.09954
1.09952
1.09951
1.0995
1.09949
1.09948
1.09948
1.09947
1.09947
1.09947
1.09947
1.09948
1.09948
1.09949
1.0995
1.09951
1.09953
1.09954
1.09956
1.09958
1.0996
1.09963
1.09965
1.09968
1.09971
1.09974
1.09977
1.0998
1.09983
1.09986
1.09989
1.09992
1.09995
1.09999
1.10002
1.10005
1.10008
1.10011
1.10014
1.10016
1.10019
1.10021
1.10024
1.10026
1.10028
1.10029
1.10031
1.10032
1.10033
1.10034
1.10035
1.10036
1.10036
1.10036
1.10036
1.10036
1.10036
1.10035
1.10034
1.10033
1.10032
1.10031
1.1003
1.10028
1.10027
1.10025
1.10023
1.10022
1.1002
1.10018
1.10016
1.10014
1.10013
1.10011
1.10009
1.10007
1.10006
1.10004
1.10003
1.10002
1.10001
1.1
1.1
1.09999
1.09999
1.09999
1.09999
1.1
1.10001
1.10003
1.10004
1.10007
1.10009
1.10012
1.10016
1.1002
1.10025
1.1003
1.10036
1.10042
1.10049
1.10057
1.10065
1.10074
1.10083
1.10093
1.10104
1.10115
1.10127
1.10139
1.10152
1.10166
1.10179
1.10193
1.10208
1.10223
1.10238
1.10253
1.10268
1.10283
1.10298
1.10313
1.10327
1.10342
1.10356
1.10369
1.10383
1.10395
1.10407
1.10419
1.1043
1.1044
1.1045
1.10459
1.10468
1.10476
1.10483
1.1049
1.10497
1.10503
1.10509
1.10515
1.1052
1.10525
1.1053
1.10534
1.10539
1.10543
1.10548
1.10552
1.10557
1.10561
1.10566
1.10571
1.10575
1.1058
1.10585
1.10589
1.10594
1.10598
1.10603
1.10607
1.10611
1.10614
1.10618
1.10621
1.10623
1.10625
1.10627
1.10628
1.10629
1.10629
1.10628
1.10627
1.10625
1.10622
1.10619
1.10615
1.10611
1.10606
1.106
1.10594
1.10588
1.1058
1.10573
1.10565
1.10557
1.10548
1.10539
1.1053
1.10521
1.10512
1.10504
1.10495
1.10487
1.1048
1.10473
1.10466
1.10461
1.10457
1.10453
1.10452
1.10451
1.10453
1.10456
1.10461
1.10469
1.10479
1.10492
1.10507
1.10525
1.10547
1.10572
1.10601
1.10633
1.10669
1.1071
1.10755
1.10804
1.10858
1.10918
1.10982
1.11052
1.11127
1.11209
1.11297
1.11392
1.11495
1.11605
1.11725
1.11855
1.11996
1.12151
1.12321
1.1251
1.12722
1.12961
1.13236
1.13555
1.1393
1.14371
1.14882
1.15446
1.15904
1.15904
1.08651
1.08603
1.08672
1.08812
1.08977
1.09124
1.09249
1.09352
1.09435
1.09501
1.09554
1.09596
1.0963
1.09657
1.09678
1.09695
1.09708
1.09717
1.09724
1.09729
1.09731
1.09732
1.09732
1.0973
1.09727
1.09723
1.09719
1.09714
1.09708
1.09701
1.09695
1.09687
1.0968
1.09672
1.09664
1.09655
1.09646
1.09638
1.09629
1.0962
1.0961
1.09601
1.09592
1.09583
1.09573
1.09564
1.09555
1.09546
1.09537
1.09529
1.0952
1.09512
1.09504
1.09496
1.09489
1.09482
1.09475
1.09469
1.09463
1.09458
1.09454
1.09449
1.09446
1.09443
1.09441
1.0944
1.09439
1.09439
1.09439
1.09441
1.09443
1.09446
1.09449
1.09454
1.09459
1.09465
1.09472
1.09479
1.09487
1.09496
1.09506
1.09516
1.09527
1.09538
1.0955
1.09563
1.09576
1.0959
1.09604
1.09618
1.09633
1.09648
1.09664
1.09679
1.09695
1.09711
1.09727
1.09743
1.09759
1.09774
1.0979
1.09805
1.0982
1.09835
1.0985
1.09864
1.09877
1.0989
1.09903
1.09915
1.09926
1.09937
1.09947
1.09956
1.09964
1.09972
1.09979
1.09985
1.09991
1.09995
1.09999
1.10002
1.10005
1.10007
1.10008
1.10009
1.10009
1.10009
1.10009
1.10008
1.10006
1.10005
1.10003
1.10001
1.09999
1.09997
1.09994
1.09992
1.09989
1.09987
1.09984
1.09981
1.09979
1.09976
1.09974
1.09971
1.09969
1.09966
1.09964
1.09962
1.0996
1.09958
1.09956
1.09954
1.09952
1.09951
1.09949
1.09948
1.09947
1.09946
1.09945
1.09945
1.09944
1.09944
1.09944
1.09944
1.09945
1.09945
1.09946
1.09947
1.09949
1.0995
1.09952
1.09953
1.09955
1.09958
1.0996
1.09962
1.09965
1.09968
1.09971
1.09974
1.09977
1.0998
1.09983
1.09986
1.09989
1.09992
1.09996
1.09999
1.10002
1.10005
1.10008
1.1001
1.10013
1.10016
1.10018
1.1002
1.10022
1.10024
1.10026
1.10028
1.10029
1.1003
1.10031
1.10032
1.10032
1.10033
1.10033
1.10033
1.10032
1.10032
1.10031
1.10031
1.1003
1.10029
1.10028
1.10026
1.10025
1.10023
1.10022
1.1002
1.10018
1.10017
1.10015
1.10013
1.10011
1.10009
1.10008
1.10006
1.10004
1.10003
1.10001
1.1
1.09999
1.09998
1.09997
1.09997
1.09996
1.09996
1.09996
1.09997
1.09998
1.09999
1.1
1.10002
1.10004
1.10007
1.1001
1.10014
1.10018
1.10023
1.10028
1.10034
1.10041
1.10048
1.10056
1.10064
1.10073
1.10083
1.10093
1.10104
1.10115
1.10127
1.1014
1.10153
1.10167
1.10181
1.10195
1.1021
1.10225
1.1024
1.10255
1.1027
1.10285
1.10301
1.10316
1.1033
1.10345
1.10359
1.10373
1.10386
1.10398
1.1041
1.10422
1.10433
1.10443
1.10453
1.10462
1.1047
1.10478
1.10486
1.10493
1.10499
1.10505
1.10511
1.10516
1.10521
1.10526
1.10531
1.10535
1.1054
1.10544
1.10549
1.10553
1.10558
1.10562
1.10567
1.10571
1.10576
1.10581
1.10585
1.1059
1.10594
1.10599
1.10603
1.10607
1.10611
1.10615
1.10618
1.10621
1.10623
1.10625
1.10627
1.10628
1.10628
1.10628
1.10627
1.10626
1.10624
1.10621
1.10618
1.10614
1.10609
1.10604
1.10598
1.10592
1.10585
1.10578
1.1057
1.10562
1.10554
1.10545
1.10536
1.10527
1.10518
1.1051
1.10501
1.10492
1.10484
1.10476
1.10469
1.10463
1.10458
1.10454
1.1045
1.10449
1.10448
1.1045
1.10453
1.10459
1.10466
1.10477
1.10489
1.10505
1.10524
1.10545
1.10571
1.10599
1.10632
1.10668
1.10709
1.10754
1.10804
1.10858
1.10918
1.10982
1.11052
1.11127
1.11209
1.11297
1.11392
1.11493
1.11603
1.11722
1.1185
1.11988
1.1214
1.12305
1.12487
1.12689
1.12914
1.13168
1.13453
1.13774
1.14128
1.14491
1.14816
1.15034
1.14972
1.0891
1.08867
1.08888
1.08963
1.09062
1.09166
1.09263
1.09348
1.09421
1.09481
1.09531
1.09572
1.09606
1.09633
1.09655
1.09673
1.09687
1.09697
1.09705
1.09711
1.09714
1.09716
1.09716
1.09715
1.09713
1.0971
1.09706
1.09702
1.09696
1.09691
1.09684
1.09677
1.0967
1.09662
1.09655
1.09646
1.09638
1.0963
1.09621
1.09612
1.09603
1.09594
1.09585
1.09576
1.09567
1.09558
1.09549
1.0954
1.09531
1.09523
1.09514
1.09506
1.09498
1.09491
1.09483
1.09477
1.0947
1.09464
1.09459
1.09454
1.09449
1.09445
1.09442
1.09439
1.09437
1.09436
1.09435
1.09435
1.09436
1.09438
1.0944
1.09443
1.09447
1.09451
1.09457
1.09463
1.09469
1.09477
1.09485
1.09494
1.09504
1.09514
1.09525
1.09537
1.09549
1.09562
1.09575
1.09589
1.09603
1.09618
1.09633
1.09648
1.09664
1.0968
1.09696
1.09712
1.09728
1.09744
1.0976
1.09776
1.09791
1.09807
1.09822
1.09837
1.09851
1.09865
1.09879
1.09892
1.09904
1.09916
1.09928
1.09938
1.09948
1.09957
1.09965
1.09973
1.0998
1.09986
1.09991
1.09995
1.09999
1.10002
1.10004
1.10006
1.10007
1.10007
1.10008
1.10007
1.10006
1.10005
1.10004
1.10002
1.1
1.09998
1.09995
1.09993
1.09991
1.09988
1.09985
1.09983
1.0998
1.09977
1.09975
1.09972
1.0997
1.09967
1.09965
1.09962
1.0996
1.09958
1.09956
1.09954
1.09952
1.0995
1.09948
1.09947
1.09945
1.09944
1.09943
1.09942
1.09941
1.09941
1.09941
1.0994
1.0994
1.09941
1.09941
1.09942
1.09943
1.09944
1.09945
1.09946
1.09948
1.0995
1.09952
1.09954
1.09956
1.09959
1.09961
1.09964
1.09967
1.0997
1.09973
1.09976
1.09979
1.09982
1.09985
1.09989
1.09992
1.09995
1.09998
1.10001
1.10004
1.10006
1.10009
1.10012
1.10014
1.10016
1.10018
1.1002
1.10022
1.10023
1.10025
1.10026
1.10027
1.10027
1.10028
1.10028
1.10028
1.10028
1.10028
1.10028
1.10027
1.10026
1.10026
1.10025
1.10023
1.10022
1.10021
1.10019
1.10018
1.10016
1.10014
1.10012
1.10011
1.10009
1.10007
1.10005
1.10004
1.10002
1.1
1.09999
1.09998
1.09996
1.09995
1.09994
1.09993
1.09993
1.09993
1.09993
1.09993
1.09993
1.09994
1.09995
1.09997
1.09999
1.10001
1.10004
1.10007
1.10011
1.10016
1.10021
1.10026
1.10032
1.10039
1.10046
1.10054
1.10062
1.10072
1.10082
1.10092
1.10103
1.10115
1.10127
1.1014
1.10153
1.10167
1.10181
1.10196
1.10211
1.10226
1.10241
1.10257
1.10272
1.10288
1.10303
1.10318
1.10333
1.10348
1.10362
1.10376
1.10389
1.10402
1.10414
1.10425
1.10436
1.10446
1.10456
1.10465
1.10473
1.10481
1.10488
1.10495
1.10501
1.10507
1.10513
1.10518
1.10523
1.10528
1.10532
1.10537
1.10541
1.10545
1.1055
1.10554
1.10559
1.10563
1.10568
1.10572
1.10577
1.10581
1.10586
1.10591
1.10595
1.10599
1.10604
1.10608
1.10612
1.10615
1.10618
1.10621
1.10623
1.10625
1.10627
1.10628
1.10628
1.10628
1.10627
1.10625
1.10623
1.1062
1.10617
1.10613
1.10608
1.10602
1.10597
1.1059
1.10583
1.10576
1.10568
1.1056
1.10551
1.10542
1.10533
1.10524
1.10515
1.10506
1.10497
1.10489
1.1048
1.10473
1.10465
1.10459
1.10454
1.10449
1.10446
1.10444
1.10444
1.10445
1.10449
1.10454
1.10462
1.10472
1.10485
1.105
1.10519
1.10541
1.10566
1.10595
1.10628
1.10664
1.10705
1.1075
1.108
1.10854
1.10913
1.10977
1.11047
1.11122
1.11203
1.1129
1.11384
1.11484
1.11592
1.11708
1.11833
1.11968
1.12114
1.12272
1.12445
1.12633
1.1284
1.13066
1.13313
1.13575
1.13844
1.14097
1.14291
1.14387
1.1436
1.09089
1.09047
1.09049
1.09088
1.09149
1.0922
1.09292
1.0936
1.0942
1.09473
1.09518
1.09556
1.09588
1.09615
1.09637
1.09654
1.09668
1.09679
1.09688
1.09694
1.09698
1.09701
1.09702
1.09701
1.097
1.09697
1.09694
1.0969
1.09685
1.0968
1.09674
1.09667
1.0966
1.09653
1.09645
1.09638
1.0963
1.09621
1.09613
1.09604
1.09595
1.09587
1.09578
1.09569
1.0956
1.09551
1.09542
1.09533
1.09525
1.09516
1.09508
1.095
1.09492
1.09485
1.09478
1.09471
1.09465
1.09459
1.09453
1.09448
1.09444
1.0944
1.09437
1.09435
1.09433
1.09432
1.09431
1.09431
1.09432
1.09434
1.09436
1.09439
1.09443
1.09448
1.09454
1.0946
1.09467
1.09475
1.09483
1.09492
1.09502
1.09512
1.09524
1.09535
1.09548
1.09561
1.09574
1.09588
1.09603
1.09618
1.09633
1.09649
1.09664
1.0968
1.09696
1.09712
1.09729
1.09745
1.09761
1.09777
1.09793
1.09808
1.09823
1.09838
1.09853
1.09867
1.09881
1.09894
1.09906
1.09918
1.09929
1.0994
1.0995
1.09959
1.09967
1.09974
1.09981
1.09987
1.09991
1.09996
1.09999
1.10002
1.10004
1.10005
1.10006
1.10006
1.10006
1.10005
1.10004
1.10002
1.10001
1.09999
1.09996
1.09994
1.09992
1.09989
1.09986
1.09984
1.09981
1.09978
1.09976
1.09973
1.0997
1.09967
1.09965
1.09962
1.0996
1.09958
1.09955
1.09953
1.09951
1.09949
1.09947
1.09945
1.09944
1.09942
1.09941
1.0994
1.09939
1.09938
1.09937
1.09937
1.09936
1.09936
1.09936
1.09936
1.09937
1.09937
1.09938
1.09939
1.09941
1.09942
1.09944
1.09946
1.09948
1.0995
1.09952
1.09955
1.09957
1.0996
1.09963
1.09966
1.09969
1.09972
1.09975
1.09978
1.09981
1.09984
1.09987
1.0999
1.09993
1.09996
1.09999
1.10002
1.10004
1.10007
1.10009
1.10011
1.10013
1.10015
1.10017
1.10018
1.1002
1.10021
1.10022
1.10023
1.10023
1.10023
1.10024
1.10024
1.10023
1.10023
1.10022
1.10022
1.10021
1.1002
1.10018
1.10017
1.10016
1.10014
1.10013
1.10011
1.10009
1.10008
1.10006
1.10004
1.10002
1.10001
1.09999
1.09997
1.09996
1.09994
1.09993
1.09992
1.09991
1.0999
1.09989
1.09988
1.09988
1.09988
1.09988
1.09989
1.0999
1.09991
1.09993
1.09995
1.09997
1.1
1.10004
1.10008
1.10012
1.10017
1.10023
1.10029
1.10036
1.10043
1.10051
1.1006
1.1007
1.1008
1.1009
1.10102
1.10114
1.10126
1.10139
1.10153
1.10167
1.10182
1.10196
1.10212
1.10227
1.10243
1.10259
1.10274
1.1029
1.10306
1.10321
1.10336
1.10351
1.10365
1.10379
1.10393
1.10405
1.10418
1.10429
1.1044
1.1045
1.1046
1.10468
1.10477
1.10484
1.10491
1.10498
1.10504
1.1051
1.10515
1.1052
1.10525
1.10529
1.10534
1.10538
1.10542
1.10547
1.10551
1.10555
1.1056
1.10564
1.10568
1.10573
1.10578
1.10582
1.10587
1.10591
1.10596
1.106
1.10604
1.10608
1.10612
1.10616
1.10619
1.10622
1.10624
1.10626
1.10627
1.10628
1.10628
1.10627
1.10626
1.10625
1.10622
1.10619
1.10616
1.10611
1.10606
1.10601
1.10595
1.10588
1.10581
1.10573
1.10565
1.10557
1.10548
1.10539
1.1053
1.10521
1.10511
1.10502
1.10493
1.10484
1.10476
1.10468
1.10461
1.10454
1.10449
1.10444
1.10441
1.10439
1.10438
1.1044
1.10443
1.10448
1.10456
1.10466
1.10478
1.10494
1.10512
1.10534
1.10559
1.10588
1.10621
1.10657
1.10698
1.10742
1.10792
1.10846
1.10905
1.10968
1.11037
1.11112
1.11192
1.11278
1.1137
1.11468
1.11574
1.11687
1.11807
1.11937
1.12076
1.12225
1.12386
1.12559
1.12744
1.12942
1.13149
1.13359
1.1356
1.13733
1.13856
1.13902
1.13877
1.09215
1.09177
1.09171
1.0919
1.09228
1.09277
1.09329
1.09381
1.0943
1.09475
1.09514
1.09548
1.09577
1.09602
1.09623
1.0964
1.09654
1.09665
1.09674
1.0968
1.09685
1.09687
1.09689
1.09689
1.09688
1.09686
1.09683
1.09679
1.09674
1.09669
1.09664
1.09657
1.09651
1.09644
1.09637
1.09629
1.09621
1.09613
1.09605
1.09596
1.09588
1.09579
1.0957
1.09562
1.09553
1.09544
1.09536
1.09527
1.09518
1.0951
1.09502
1.09494
1.09486
1.09479
1.09472
1.09465
1.09459
1.09453
1.09448
1.09443
1.09439
1.09435
1.09432
1.0943
1.09428
1.09427
1.09426
1.09427
1.09428
1.09429
1.09432
1.09435
1.09439
1.09444
1.0945
1.09456
1.09463
1.09471
1.0948
1.09489
1.09499
1.0951
1.09521
1.09533
1.09546
1.09559
1.09573
1.09587
1.09602
1.09617
1.09632
1.09648
1.09664
1.0968
1.09696
1.09713
1.09729
1.09745
1.09762
1.09778
1.09794
1.09809
1.09825
1.0984
1.09854
1.09869
1.09882
1.09895
1.09908
1.0992
1.09931
1.09942
1.09951
1.0996
1.09968
1.09976
1.09982
1.09988
1.09992
1.09996
1.09999
1.10002
1.10003
1.10004
1.10005
1.10004
1.10004
1.10003
1.10001
1.09999
1.09997
1.09995
1.09993
1.0999
1.09988
1.09985
1.09982
1.09979
1.09976
1.09973
1.09971
1.09968
1.09965
1.09962
1.0996
1.09957
1.09955
1.09952
1.0995
1.09948
1.09946
1.09944
1.09942
1.0994
1.09938
1.09937
1.09936
1.09934
1.09933
1.09933
1.09932
1.09931
1.09931
1.09931
1.09931
1.09931
1.09932
1.09933
1.09933
1.09934
1.09936
1.09937
1.09939
1.09941
1.09943
1.09945
1.09947
1.0995
1.09952
1.09955
1.09958
1.09961
1.09964
1.09967
1.0997
1.09973
1.09976
1.09979
1.09982
1.09985
1.09988
1.09991
1.09994
1.09996
1.09999
1.10001
1.10004
1.10006
1.10008
1.1001
1.10011
1.10013
1.10014
1.10015
1.10016
1.10017
1.10017
1.10018
1.10018
1.10018
1.10018
1.10017
1.10017
1.10016
1.10015
1.10014
1.10013
1.10012
1.1001
1.10009
1.10007
1.10006
1.10004
1.10002
1.1
1.09999
1.09997
1.09995
1.09994
1.09992
1.0999
1.09989
1.09988
1.09986
1.09985
1.09984
1.09984
1.09983
1.09983
1.09983
1.09983
1.09984
1.09985
1.09986
1.09988
1.0999
1.09993
1.09996
1.09999
1.10003
1.10008
1.10013
1.10019
1.10025
1.10032
1.1004
1.10048
1.10057
1.10067
1.10077
1.10088
1.101
1.10112
1.10125
1.10138
1.10152
1.10166
1.10181
1.10197
1.10212
1.10228
1.10244
1.1026
1.10276
1.10292
1.10308
1.10324
1.10339
1.10354
1.10369
1.10383
1.10396
1.10409
1.10421
1.10433
1.10444
1.10454
1.10463
1.10472
1.1048
1.10488
1.10495
1.10501
1.10507
1.10512
1.10518
1.10522
1.10527
1.10531
1.10536
1.1054
1.10544
1.10548
1.10552
1.10556
1.10561
1.10565
1.10569
1.10574
1.10578
1.10583
1.10588
1.10592
1.10597
1.10601
1.10605
1.10609
1.10613
1.10617
1.1062
1.10622
1.10625
1.10626
1.10627
1.10628
1.10628
1.10627
1.10626
1.10624
1.10622
1.10618
1.10615
1.1061
1.10605
1.10599
1.10593
1.10586
1.10579
1.10571
1.10563
1.10554
1.10545
1.10536
1.10526
1.10517
1.10507
1.10498
1.10489
1.1048
1.10471
1.10463
1.10455
1.10449
1.10443
1.10438
1.10434
1.10432
1.10432
1.10433
1.10436
1.10441
1.10448
1.10458
1.1047
1.10485
1.10504
1.10525
1.1055
1.10578
1.10611
1.10647
1.10687
1.10731
1.1078
1.10834
1.10892
1.10955
1.11023
1.11096
1.11175
1.11259
1.11349
1.11445
1.11547
1.11656
1.11772
1.11895
1.12027
1.12166
1.12314
1.1247
1.12635
1.12805
1.12976
1.13142
1.13293
1.13413
1.13492
1.13516
1.13484
1.09307
1.09275
1.09265
1.09273
1.09296
1.09329
1.09367
1.09407
1.09446
1.09482
1.09515
1.09545
1.09571
1.09594
1.09613
1.09629
1.09642
1.09653
1.09661
1.09668
1.09672
1.09675
1.09677
1.09677
1.09676
1.09674
1.09672
1.09668
1.09664
1.09659
1.09654
1.09648
1.09642
1.09635
1.09628
1.0962
1.09613
1.09605
1.09597
1.09588
1.0958
1.09572
1.09563
1.09554
1.09546
1.09537
1.09529
1.0952
1.09512
1.09504
1.09496
1.09488
1.0948
1.09473
1.09466
1.09459
1.09453
1.09447
1.09442
1.09438
1.09433
1.0943
1.09427
1.09424
1.09423
1.09422
1.09421
1.09422
1.09423
1.09425
1.09428
1.09431
1.09435
1.0944
1.09446
1.09453
1.0946
1.09468
1.09477
1.09486
1.09496
1.09507
1.09519
1.09531
1.09544
1.09557
1.09571
1.09585
1.096
1.09616
1.09631
1.09647
1.09664
1.0968
1.09696
1.09713
1.0973
1.09746
1.09762
1.09779
1.09795
1.0981
1.09826
1.09841
1.09856
1.0987
1.09884
1.09897
1.0991
1.09922
1.09933
1.09943
1.09953
1.09962
1.0997
1.09977
1.09983
1.09988
1.09993
1.09996
1.09999
1.10001
1.10002
1.10003
1.10003
1.10003
1.10002
1.1
1.09998
1.09996
1.09994
1.09991
1.09989
1.09986
1.09983
1.0998
1.09977
1.09974
1.09971
1.09968
1.09965
1.09962
1.09959
1.09957
1.09954
1.09951
1.09949
1.09947
1.09944
1.09942
1.0994
1.09938
1.09936
1.09934
1.09933
1.09931
1.0993
1.09929
1.09928
1.09927
1.09926
1.09926
1.09926
1.09925
1.09926
1.09926
1.09926
1.09927
1.09928
1.09929
1.0993
1.09932
1.09933
1.09935
1.09937
1.09939
1.09942
1.09944
1.09947
1.09949
1.09952
1.09955
1.09958
1.09961
1.09964
1.09967
1.0997
1.09973
1.09976
1.09979
1.09982
1.09985
1.09988
1.0999
1.09993
1.09995
1.09998
1.1
1.10002
1.10004
1.10005
1.10007
1.10008
1.10009
1.1001
1.10011
1.10011
1.10012
1.10012
1.10012
1.10012
1.10011
1.10011
1.1001
1.10009
1.10008
1.10007
1.10006
1.10004
1.10003
1.10001
1.1
1.09998
1.09996
1.09994
1.09993
1.09991
1.09989
1.09988
1.09986
1.09984
1.09983
1.09982
1.0998
1.09979
1.09979
1.09978
1.09977
1.09977
1.09977
1.09978
1.09978
1.09979
1.09981
1.09983
1.09985
1.09987
1.09991
1.09994
1.09998
1.10003
1.10008
1.10014
1.10021
1.10028
1.10036
1.10044
1.10053
1.10063
1.10074
1.10085
1.10097
1.10109
1.10123
1.10136
1.10151
1.10165
1.10181
1.10196
1.10212
1.10228
1.10245
1.10261
1.10278
1.10294
1.10311
1.10327
1.10342
1.10358
1.10372
1.10387
1.104
1.10413
1.10426
1.10437
1.10448
1.10458
1.10467
1.10476
1.10484
1.10491
1.10498
1.10504
1.1051
1.10515
1.1052
1.10525
1.10529
1.10533
1.10537
1.10541
1.10545
1.10549
1.10553
1.10557
1.10562
1.10566
1.1057
1.10575
1.10579
1.10584
1.10588
1.10593
1.10598
1.10602
1.10606
1.1061
1.10614
1.10617
1.10621
1.10623
1.10625
1.10627
1.10628
1.10628
1.10628
1.10628
1.10626
1.10624
1.10621
1.10618
1.10614
1.10609
1.10604
1.10598
1.10591
1.10584
1.10576
1.10568
1.1056
1.10551
1.10542
1.10532
1.10523
1.10513
1.10503
1.10493
1.10484
1.10475
1.10466
1.10457
1.10449
1.10442
1.10436
1.10431
1.10427
1.10425
1.10424
1.10425
1.10427
1.10432
1.10439
1.10448
1.1046
1.10475
1.10493
1.10514
1.10539
1.10567
1.10599
1.10634
1.10674
1.10718
1.10766
1.10819
1.10876
1.10938
1.11005
1.11077
1.11153
1.11236
1.11323
1.11416
1.11515
1.11619
1.1173
1.11846
1.11969
1.12098
1.12233
1.12373
1.12517
1.12662
1.12803
1.12934
1.13048
1.13134
1.13185
1.13196
1.13162
1.09377
1.0935
1.09339
1.09341
1.09355
1.09377
1.09404
1.09434
1.09464
1.09494
1.09522
1.09547
1.0957
1.09589
1.09607
1.09621
1.09633
1.09643
1.09651
1.09657
1.09662
1.09665
1.09666
1.09667
1.09666
1.09664
1.09662
1.09659
1.09655
1.0965
1.09645
1.09639
1.09633
1.09626
1.09619
1.09612
1.09605
1.09597
1.09589
1.09581
1.09573
1.09564
1.09556
1.09548
1.09539
1.09531
1.09522
1.09514
1.09505
1.09497
1.09489
1.09482
1.09474
1.09467
1.0946
1.09453
1.09447
1.09442
1.09437
1.09432
1.09428
1.09424
1.09421
1.09419
1.09417
1.09416
1.09416
1.09417
1.09418
1.0942
1.09423
1.09426
1.09431
1.09436
1.09442
1.09448
1.09456
1.09464
1.09473
1.09482
1.09493
1.09504
1.09515
1.09528
1.09541
1.09554
1.09568
1.09583
1.09598
1.09614
1.0963
1.09646
1.09662
1.09679
1.09696
1.09713
1.09729
1.09746
1.09763
1.09779
1.09795
1.09811
1.09827
1.09842
1.09857
1.09871
1.09885
1.09899
1.09911
1.09923
1.09935
1.09945
1.09955
1.09964
1.09971
1.09978
1.09984
1.09989
1.09994
1.09997
1.09999
1.10001
1.10002
1.10002
1.10002
1.10001
1.09999
1.09998
1.09995
1.09993
1.0999
1.09987
1.09985
1.09981
1.09978
1.09975
1.09972
1.09969
1.09966
1.09962
1.09959
1.09956
1.09954
1.09951
1.09948
1.09945
1.09943
1.0994
1.09938
1.09936
1.09934
1.09932
1.0993
1.09928
1.09926
1.09925
1.09924
1.09923
1.09922
1.09921
1.0992
1.0992
1.09919
1.09919
1.09919
1.0992
1.0992
1.09921
1.09922
1.09923
1.09924
1.09926
1.09927
1.09929
1.09931
1.09933
1.09935
1.09938
1.0994
1.09943