# vtk DataFile Version 2.0
LBE mesh
ASCII
DATASET STRUCTURED_POINTS
DIMENSIONS 400 100 1
ASPECT_RATIO 1 1 1
ORIGIN 0 0 0
POINT_DATA 40000
SCALARS rho double 1
LOOKUP_TABLE default
1.09966
1.1716
1.19258
1.19692
1.19905
1.20087
1.2022
1.20305
1.20363
1.20406
1.20438
1.20463
1.20482
1.20497
1.20509
1.20518
1.20525
1.2053
1.20533
1.20536
1.20537
1.20537
1.20536
1.20534
1.20532
1.20529
1.20526
1.20522
1.20518
1.20513
1.20508
1.20502
1.20496
1.2049
1.20484
1.20477
1.20471
1.20464
1.20457
1.2045
1.20443
1.20436
1.20429
1.20422
1.20415
1.20409
1.20402
1.20396
1.2039
1.20384
1.20379
1.20374
1.20369
1.20365
1.20361
1.20358
1.20355
1.20353
1.20352
1.20351
1.2035
1.20351
1.20352
1.20354
1.20357
1.2036
1.20364
1.20369
1.20375
1.20381
1.20389
1.20397
1.20406
1.20415
1.20426
1.20437
1.20449
1.20462
1.20475
1.20489
1.20504
1.20519
1.20535
1.20551
1.20568
1.20586
1.20603
1.20622
1.2064
1.20659
1.20678
1.20698
1.20718
1.20737
1.20757
1.20777
1.20796
1.20816
1.20835
1.20855
1.20873
1.20892
1.2091
1.20928
1.20945
1.20962
1.20978
1.20993
1.21008
1.21021
1.21035
1.21047
1.21058
1.21069
1.21078
1.21087
1.21094
1.21101
1.21106
1.21111
1.21114
1.21117
1.21118
1.21119
1.21118
1.21117
1.21115
1.21112
1.21108
1.21104
1.21099
1.21094
1.21088
1.21082
1.21075
1.21068
1.21061
1.21053
1.21045
1.21038
1.2103
1.21022
1.21014
1.21006
1.20998
1.2099
1.20983
1.20975
1.20968
1.20961
1.20954
1.20947
1.20941
1.20935
1.20929
1.20923
1.20918
1.20913
1.20908
1.20904
1.20899
1.20895
1.20891
1.20888
1.20885
1.20882
1.20879
1.20876
1.20874
1.20872
1.2087
1.20868
1.20866
1.20865
1.20864
1.20862
1.20861
1.20861
1.2086
1.20859
1.20858
1.20858
1.20857
1.20857
1.20856
1.20856
1.20856
1.20855
1.20855
1.20855
1.20854
1.20854
1.20853
1.20853
1.20853
1.20852
1.20852
1.20851
1.20851
1.2085
1.20849
1.20849
1.20848
1.20847
1.20847
1.20846
1.20845
1.20844
1.20843
1.20843
1.20842
1.20841
1.2084
1.2084
1.20839
1.20839
1.20838
1.20838
1.20838
1.20838
1.20838
1.20838
1.20838
1.20839
1.2084
1.20841
1.20843
1.20845
1.20847
1.20849
1.20852
1.20856
1.2086
1.20864
1.20869
1.20874
1.2088
1.20887
1.20894
1.20902
1.20911
1.2092
1.2093
1.20941
1.20952
1.20965
1.20978
1.20992
1.21007
1.21022
1.21039
1.21056
1.21075
1.21094
1.21114
1.21135
1.21157
1.21179
1.21203
1.21227
1.21252
1.21278
1.21304
1.21331
1.21359
1.21387
1.21416
1.21445
1.21475
1.21504
1.21534
1.21565
1.21595
1.21625
1.21655
1.21684
1.21714
1.21743
1.21771
1.21799
1.21827
1.21853
1.21879
1.21904
1.21928
1.21951
1.21973
1.21994
1.22014
1.22033
1.22051
1.22068
1.22083
1.22098
1.22112
1.22125
1.22137
1.22147
1.22158
1.22167
1.22175
1.22183
1.2219
1.22196
1.22202
1.22207
1.22212
1.22216
1.2222
1.22223
1.22226
1.22228
1.2223
1.22232
1.22233
1.22235
1.22235
1.22236
1.22236
1.22237
1.22236
1.22236
1.22235
1.22235
1.22234
1.22233
1.22231
1.2223
1.22228
1.22227
1.22225
1.22223
1.22221
1.2222
1.22218
1.22216
1.22215
1.22214
1.22214
1.22213
1.22213
1.22214
1.22216
1.22218
1.22221
1.22224
1.22229
1.22235
1.22242
1.2225
1.2226
1.22271
1.22283
1.22297
1.22313
1.22331
1.22351
1.22372
1.22396
1.22422
1.22451
1.22482
1.22515
1.22551
1.2259
1.22631
1.22676
1.22723
1.22774
1.22828
1.22885
1.22946
1.23011
1.2308
1.23152
1.23229
1.23311
1.23397
1.23488
1.23585
1.23688
1.23798
1.23914
1.24039
1.24173
1.24317
1.24474
1.24644
1.24831
1.25038
1.2527
1.25534
1.2584
1.262
1.2664
1.27209
1.27997
1.29104
1.30782
1.34289
1.1603
1.17027
1.182
1.19154
1.1965
1.19903
1.20061
1.20174
1.20258
1.20319
1.20365
1.204
1.20428
1.2045
1.20467
1.20481
1.20491
1.205
1.20506
1.20511
1.20514
1.20516
1.20517
1.20517
1.20515
1.20514
1.20511
1.20508
1.20505
1.20501
1.20496
1.20491
1.20486
1.20481
1.20475
1.20469
1.20462
1.20456
1.2045
1.20443
1.20436
1.2043
1.20423
1.20416
1.2041
1.20404
1.20397
1.20391
1.20386
1.2038
1.20375
1.2037
1.20366
1.20362
1.20358
1.20355
1.20353
1.20351
1.20349
1.20349
1.20349
1.20349
1.20351
1.20353
1.20356
1.20359
1.20364
1.20369
1.20375
1.20381
1.20389
1.20397
1.20406
1.20416
1.20426
1.20438
1.2045
1.20463
1.20476
1.2049
1.20505
1.2052
1.20536
1.20553
1.20569
1.20587
1.20605
1.20623
1.20642
1.20661
1.2068
1.20699
1.20719
1.20739
1.20758
1.20778
1.20798
1.20817
1.20836
1.20856
1.20874
1.20893
1.20911
1.20928
1.20945
1.20962
1.20978
1.20993
1.21007
1.21021
1.21034
1.21046
1.21057
1.21068
1.21077
1.21086
1.21093
1.21099
1.21105
1.21109
1.21112
1.21115
1.21116
1.21116
1.21116
1.21115
1.21113
1.2111
1.21106
1.21102
1.21097
1.21092
1.21086
1.21079
1.21073
1.21066
1.21059
1.21051
1.21043
1.21036
1.21028
1.2102
1.21012
1.21004
1.20997
1.20989
1.20982
1.20974
1.20967
1.2096
1.20953
1.20947
1.2094
1.20934
1.20928
1.20923
1.20918
1.20913
1.20908
1.20903
1.20899
1.20895
1.20891
1.20888
1.20885
1.20882
1.20879
1.20876
1.20874
1.20872
1.2087
1.20868
1.20867
1.20865
1.20864
1.20863
1.20862
1.20861
1.2086
1.20859
1.20858
1.20858
1.20857
1.20857
1.20857
1.20856
1.20856
1.20855
1.20855
1.20855
1.20854
1.20854
1.20854
1.20853
1.20853
1.20852
1.20852
1.20851
1.20851
1.2085
1.2085
1.20849
1.20848
1.20848
1.20847
1.20846
1.20845
1.20845
1.20844
1.20843
1.20842
1.20842
1.20841
1.2084
1.2084
1.20839
1.20839
1.20838
1.20838
1.20838
1.20838
1.20839
1.20839
1.2084
1.20841
1.20842
1.20844
1.20846
1.20848
1.20851
1.20854
1.20857
1.20861
1.20866
1.20871
1.20876
1.20882
1.20889
1.20896
1.20904
1.20913
1.20922
1.20932
1.20943
1.20955
1.20967
1.2098
1.20995
1.21009
1.21025
1.21042
1.21059
1.21078
1.21097
1.21117
1.21138
1.2116
1.21183
1.21206
1.21231
1.21256
1.21282
1.21308
1.21335
1.21363
1.21391
1.2142
1.21449
1.21478
1.21508
1.21538
1.21568
1.21598
1.21628
1.21658
1.21687
1.21716
1.21745
1.21773
1.21801
1.21828
1.21855
1.2188
1.21905
1.21929
1.21951
1.21973
1.21994
1.22014
1.22033
1.2205
1.22067
1.22083
1.22097
1.22111
1.22123
1.22135
1.22146
1.22156
1.22165
1.22174
1.22181
1.22188
1.22195
1.222
1.22205
1.2221
1.22214
1.22218
1.22221
1.22224
1.22227
1.22229
1.2223
1.22232
1.22233
1.22234
1.22235
1.22235
1.22235
1.22235
1.22235
1.22234
1.22234
1.22233
1.22231
1.2223
1.22229
1.22227
1.22226
1.22224
1.22222
1.2222
1.22219
1.22217
1.22216
1.22215
1.22214
1.22213
1.22213
1.22213
1.22214
1.22216
1.22218
1.22221
1.22225
1.2223
1.22236
1.22243
1.22252
1.22262
1.22273
1.22286
1.223
1.22316
1.22334
1.22354
1.22376
1.22401
1.22427
1.22456
1.22487
1.22521
1.22557
1.22596
1.22638
1.22683
1.22731
1.22783
1.22837
1.22895
1.22957
1.23022
1.23091
1.23164
1.23242
1.23324
1.23411
1.23504
1.23602
1.23706
1.23816
1.23935
1.24061
1.24198
1.24344
1.24504
1.24678
1.24871
1.25085
1.25326
1.25602
1.25923
1.26308
1.26783
1.27382
1.28165
1.29318
1.31319
1.34447
1.17974
1.17814
1.18522
1.19112
1.19483
1.19749
1.1994
1.20074
1.20171
1.20244
1.203
1.20344
1.20379
1.20406
1.20428
1.20446
1.2046
1.20471
1.2048
1.20487
1.20492
1.20496
1.20498
1.20499
1.20499
1.20499
1.20497
1.20495
1.20492
1.20489
1.20485
1.20481
1.20476
1.20471
1.20466
1.2046
1.20454
1.20448
1.20442
1.20436
1.2043
1.20423
1.20417
1.20411
1.20404
1.20398
1.20392
1.20387
1.20381
1.20376
1.20371
1.20366
1.20362
1.20358
1.20355
1.20352
1.2035
1.20348
1.20347
1.20346
1.20346
1.20347
1.20349
1.20351
1.20354
1.20358
1.20362
1.20368
1.20374
1.20381
1.20388
1.20397
1.20406
1.20416
1.20426
1.20438
1.2045
1.20463
1.20476
1.20491
1.20505
1.20521
1.20537
1.20553
1.2057
1.20588
1.20606
1.20624
1.20643
1.20662
1.20681
1.20701
1.2072
1.2074
1.2076
1.20779
1.20799
1.20819
1.20838
1.20857
1.20876
1.20894
1.20912
1.20929
1.20946
1.20963
1.20979
1.20994
1.21008
1.21022
1.21035
1.21047
1.21058
1.21068
1.21077
1.21086
1.21093
1.21099
1.21104
1.21108
1.21112
1.21114
1.21115
1.21116
1.21115
1.21114
1.21111
1.21108
1.21105
1.21101
1.21096
1.2109
1.21084
1.21078
1.21071
1.21064
1.21057
1.2105
1.21042
1.21035
1.21027
1.21019
1.21011
1.21003
1.20996
1.20988
1.20981
1.20974
1.20966
1.2096
1.20953
1.20946
1.2094
1.20934
1.20928
1.20923
1.20918
1.20913
1.20908
1.20903
1.20899
1.20895
1.20892
1.20888
1.20885
1.20882
1.20879
1.20877
1.20874
1.20872
1.2087
1.20869
1.20867
1.20866
1.20864
1.20863
1.20862
1.20861
1.2086
1.2086
1.20859
1.20858
1.20858
1.20858
1.20857
1.20857
1.20856
1.20856
1.20856
1.20855
1.20855
1.20855
1.20854
1.20854
1.20853
1.20853
1.20852
1.20852
1.20851
1.20851
1.2085
1.2085
1.20849
1.20848
1.20847
1.20847
1.20846
1.20845
1.20844
1.20844
1.20843
1.20842
1.20841
1.20841
1.2084
1.2084
1.20839
1.20839
1.20839
1.20839
1.20839
1.2084
1.2084
1.20841
1.20842
1.20843
1.20845
1.20847
1.20849
1.20852
1.20855
1.20858
1.20862
1.20867
1.20872
1.20878
1.20884
1.2089
1.20898
1.20906
1.20915
1.20924
1.20934
1.20945
1.20957
1.20969
1.20983
1.20997
1.21012
1.21028
1.21045
1.21062
1.21081
1.211
1.2112
1.21141
1.21163
1.21186
1.2121
1.21234
1.21259
1.21285
1.21311
1.21338
1.21366
1.21394
1.21423
1.21452
1.21482
1.21511
1.21541
1.21571
1.21601
1.21631
1.21661
1.2169
1.21719
1.21748
1.21776
1.21804
1.21831
1.21857
1.21882
1.21907
1.2193
1.21953
1.21975
1.21995
1.22015
1.22033
1.22051
1.22067
1.22083
1.22097
1.22111
1.22123
1.22135
1.22146
1.22155
1.22164
1.22173
1.2218
1.22187
1.22194
1.22199
1.22204
1.22209
1.22213
1.22217
1.2222
1.22223
1.22225
1.22228
1.22229
1.22231
1.22232
1.22233
1.22234
1.22234
1.22234
1.22234
1.22234
1.22233
1.22233
1.22232
1.22231
1.22229
1.22228
1.22226
1.22225
1.22223
1.22221
1.2222
1.22218
1.22216
1.22215
1.22214
1.22213
1.22213
1.22213
1.22213
1.22214
1.22215
1.22218
1.22221
1.22225
1.2223
1.22236
1.22244
1.22252
1.22262
1.22274
1.22287
1.22301
1.22318
1.22336
1.22356
1.22379
1.22403
1.2243
1.22459
1.2249
1.22524
1.22561
1.22601
1.22643
1.22688
1.22737
1.22788
1.22843
1.22901
1.22963
1.23029
1.23099
1.23172
1.2325
1.23333
1.23421
1.23513
1.23612
1.23717
1.23828
1.23947
1.24074
1.24211
1.24359
1.2452
1.24696
1.24889
1.25105
1.25348
1.25625
1.25947
1.26327
1.26786
1.27362
1.28107
1.29046
1.30066
1.30999
1.18779
1.18687
1.18911
1.1918
1.19473
1.19707
1.19879
1.20009
1.20109
1.20188
1.20249
1.20298
1.20337
1.20368
1.20394
1.20415
1.20432
1.20445
1.20456
1.20465
1.20472
1.20477
1.20481
1.20483
1.20484
1.20485
1.20484
1.20483
1.20481
1.20478
1.20475
1.20471
1.20467
1.20462
1.20457
1.20452
1.20447
1.20441
1.20435
1.20429
1.20423
1.20417
1.20411
1.20405
1.20399
1.20393
1.20387
1.20382
1.20376
1.20371
1.20367
1.20362
1.20358
1.20355
1.20351
1.20349
1.20346
1.20345
1.20344
1.20344
1.20344
1.20345
1.20347
1.20349
1.20352
1.20356
1.20361
1.20366
1.20372
1.20379
1.20387
1.20396
1.20405
1.20415
1.20426
1.20438
1.2045
1.20463
1.20476
1.20491
1.20506
1.20521
1.20537
1.20554
1.20571
1.20589
1.20607
1.20625
1.20644
1.20663
1.20682
1.20702
1.20722
1.20741
1.20761
1.20781
1.20801
1.2082
1.20839
1.20858
1.20877
1.20896
1.20914
1.20931
1.20948
1.20965
1.2098
1.20995
1.2101
1.21023
1.21036
1.21048
1.21059
1.21069
1.21078
1.21087
1.21094
1.211
1.21105
1.21109
1.21112
1.21114
1.21115
1.21116
1.21115
1.21114
1.21111
1.21108
1.21104
1.211
1.21095
1.2109
1.21084
1.21077
1.21071
1.21064
1.21057
1.21049
1.21042
1.21034
1.21026
1.21018
1.21011
1.21003
1.20995
1.20988
1.2098
1.20973
1.20966
1.20959
1.20953
1.20946
1.2094
1.20934
1.20928
1.20923
1.20918
1.20913
1.20908
1.20904
1.209
1.20896
1.20892
1.20889
1.20885
1.20883
1.2088
1.20877
1.20875
1.20873
1.20871
1.20869
1.20868
1.20866
1.20865
1.20864
1.20863
1.20862
1.20861
1.20861
1.2086
1.20859
1.20859
1.20858
1.20858
1.20858
1.20857
1.20857
1.20857
1.20856
1.20856
1.20856
1.20855
1.20855
1.20854
1.20854
1.20853
1.20853
1.20852
1.20852
1.20851
1.20851
1.2085
1.20849
1.20848
1.20848
1.20847
1.20846
1.20845
1.20845
1.20844
1.20843
1.20842
1.20842
1.20841
1.20841
1.2084
1.2084
1.2084
1.2084
1.2084
1.20841
1.20841
1.20842
1.20843
1.20844
1.20846
1.20848
1.2085
1.20853
1.20856
1.2086
1.20864
1.20868
1.20873
1.20879
1.20885
1.20892
1.20899
1.20907
1.20916
1.20926
1.20936
1.20947
1.20959
1.20971
1.20985
1.20999
1.21014
1.2103
1.21047
1.21064
1.21083
1.21102
1.21123
1.21144
1.21166
1.21189
1.21212
1.21237
1.21262
1.21288
1.21314
1.21342
1.21369
1.21398
1.21426
1.21456
1.21485
1.21515
1.21545
1.21575
1.21605
1.21635
1.21664
1.21694
1.21723
1.21751
1.2178
1.21807
1.21834
1.2186
1.21885
1.2191
1.21933
1.21955
1.21977
1.21997
1.22017
1.22035
1.22052
1.22069
1.22084
1.22098
1.22112
1.22124
1.22135
1.22146
1.22156
1.22165
1.22173
1.2218
1.22187
1.22193
1.22199
1.22204
1.22208
1.22213
1.22216
1.22219
1.22222
1.22225
1.22227
1.22229
1.2223
1.22232
1.22233
1.22233
1.22234
1.22234
1.22234
1.22233
1.22233
1.22232
1.22231
1.2223
1.22229
1.22227
1.22226
1.22224
1.22222
1.22221
1.22219
1.22217
1.22216
1.22214
1.22213
1.22212
1.22212
1.22212
1.22212
1.22213
1.22215
1.22217
1.2222
1.22224
1.22229
1.22236
1.22243
1.22252
1.22262
1.22273
1.22286
1.22301
1.22318
1.22336
1.22357
1.22379
1.22404
1.2243
1.2246
1.22491
1.22526
1.22563
1.22602
1.22645
1.2269
1.22739
1.22791
1.22846
1.22904
1.22966
1.23032
1.23102
1.23176
1.23254
1.23337
1.23425
1.23518
1.23616
1.23721
1.23832
1.23951
1.24078
1.24215
1.24362
1.24522
1.24696
1.24887
1.251
1.25337
1.25606
1.25914
1.26272
1.26691
1.27183
1.27755
1.28386
1.28899
1.28907
1.19212
1.19165
1.19225
1.19374
1.19558
1.19722
1.19863
1.1998
1.20075
1.20151
1.20212
1.20262
1.20304
1.20337
1.20365
1.20388
1.20407
1.20422
1.20435
1.20445
1.20453
1.2046
1.20465
1.20468
1.2047
1.20471
1.20472
1.20471
1.2047
1.20468
1.20465
1.20462
1.20458
1.20454
1.20449
1.20445
1.20439
1.20434
1.20429
1.20423
1.20417
1.20411
1.20405
1.204
1.20394
1.20388
1.20383
1.20377
1.20372
1.20367
1.20362
1.20358
1.20354
1.20351
1.20348
1.20345
1.20343
1.20342
1.20341
1.20341
1.20341
1.20342
1.20344
1.20346
1.2035
1.20354
1.20359
1.20364
1.2037
1.20378
1.20385
1.20394
1.20404
1.20414
1.20425
1.20437
1.20449
1.20462
1.20476
1.2049
1.20505
1.20521
1.20537
1.20554
1.20571
1.20589
1.20607
1.20626
1.20645
1.20664
1.20683
1.20703
1.20723
1.20743
1.20763
1.20782
1.20802
1.20822
1.20841
1.2086
1.20879
1.20898
1.20916
1.20933
1.2095
1.20967
1.20982
1.20998
1.21012
1.21026
1.21039
1.21051
1.21061
1.21072
1.21081
1.21089
1.21096
1.21102
1.21107
1.21111
1.21114
1.21116
1.21117
1.21117
1.21116
1.21115
1.21112
1.21109
1.21105
1.21101
1.21095
1.2109
1.21084
1.21078
1.21071
1.21064
1.21056
1.21049
1.21041
1.21034
1.21026
1.21018
1.21011
1.21003
1.20995
1.20988
1.20981
1.20973
1.20966
1.2096
1.20953
1.20947
1.2094
1.20935
1.20929
1.20923
1.20918
1.20913
1.20909
1.20904
1.209
1.20897
1.20893
1.2089
1.20886
1.20884
1.20881
1.20878
1.20876
1.20874
1.20872
1.20871
1.20869
1.20868
1.20866
1.20865
1.20864
1.20863
1.20863
1.20862
1.20861
1.20861
1.2086
1.2086
1.20859
1.20859
1.20859
1.20858
1.20858
1.20858
1.20857
1.20857
1.20856
1.20856
1.20856
1.20855
1.20855
1.20854
1.20854
1.20853
1.20852
1.20852
1.20851
1.2085
1.2085
1.20849
1.20848
1.20847
1.20847
1.20846
1.20845
1.20844
1.20844
1.20843
1.20842
1.20842
1.20842
1.20841
1.20841
1.20841
1.20841
1.20842
1.20842
1.20843
1.20844
1.20845
1.20847
1.20849
1.20851
1.20854
1.20857
1.20861
1.20865
1.20869
1.20874
1.2088
1.20886
1.20893
1.209
1.20909
1.20917
1.20927
1.20937
1.20948
1.2096
1.20973
1.20986
1.21
1.21015
1.21031
1.21048
1.21066
1.21085
1.21104
1.21124
1.21146
1.21168
1.21191
1.21215
1.21239
1.21264
1.2129
1.21317
1.21344
1.21372
1.21401
1.2143
1.21459
1.21488
1.21518
1.21548
1.21578
1.21608
1.21638
1.21668
1.21698
1.21727
1.21756
1.21784
1.21811
1.21838
1.21864
1.21889
1.21913
1.21937
1.21959
1.2198
1.22001
1.2202
1.22038
1.22055
1.22071
1.22086
1.221
1.22113
1.22125
1.22137
1.22147
1.22157
1.22165
1.22173
1.22181
1.22187
1.22194
1.22199
1.22204
1.22209
1.22213
1.22216
1.22219
1.22222
1.22225
1.22227
1.22229
1.2223
1.22231
1.22232
1.22233
1.22233
1.22234
1.22234
1.22233
1.22233
1.22232
1.22231
1.2223
1.22229
1.22227
1.22225
1.22224
1.22222
1.2222
1.22218
1.22217
1.22215
1.22214
1.22212
1.22211
1.22211
1.22211
1.22211
1.22212
1.22213
1.22216
1.22219
1.22223
1.22228
1.22234
1.22241
1.2225
1.2226
1.22272
1.22285
1.223
1.22316
1.22335
1.22355
1.22377
1.22402
1.22429
1.22458
1.2249
1.22524
1.22561
1.22601
1.22644
1.22689
1.22738
1.2279
1.22845
1.22904
1.22966
1.23032
1.23102
1.23176
1.23254
1.23336
1.23424
1.23517
1.23615
1.23719
1.23829
1.23947
1.24073
1.24208
1.24353
1.24509
1.24679
1.24865
1.2507
1.25296
1.25549
1.25833
1.26153
1.26513
1.26909
1.27316
1.2768
1.27928
1.27861
1.19512
1.1946
1.19474
1.19555
1.19661
1.19775
1.19885
1.1998
1.20062
1.20132
1.2019
1.20239
1.20279
1.20313
1.20342
1.20366
1.20386
1.20403
1.20416
1.20428
1.20437
1.20444
1.2045
1.20454
1.20457
1.20459
1.2046
1.2046
1.20459
1.20458
1.20455
1.20453
1.20449
1.20446
1.20442
1.20437
1.20432
1.20427
1.20422
1.20417
1.20411
1.20406
1.204
1.20394
1.20389
1.20383
1.20378
1.20373
1.20367
1.20363
1.20358
1.20354
1.2035
1.20347
1.20344
1.20341
1.20339
1.20338
1.20337
1.20337
1.20338
1.20339
1.20341
1.20344
1.20347
1.20351
1.20356
1.20362
1.20368
1.20376
1.20383
1.20392
1.20402
1.20412
1.20423
1.20435
1.20448
1.20461
1.20475
1.2049
1.20505
1.20521
1.20537
1.20554
1.20571
1.20589
1.20607
1.20626
1.20645
1.20665
1.20684
1.20704
1.20724
1.20744
1.20764
1.20784
1.20804
1.20824
1.20843
1.20863
1.20881
1.209
1.20918
1.20936
1.20953
1.2097
1.20985
1.21001
1.21015
1.21029
1.21042
1.21054
1.21065
1.21075
1.21084
1.21092
1.21099
1.21105
1.2111
1.21114
1.21117
1.21118
1.21119
1.21119
1.21118
1.21116
1.21114
1.21111
1.21106
1.21102
1.21097
1.21091
1.21085
1.21078
1.21071
1.21064
1.21057
1.2105
1.21042
1.21034
1.21026
1.21019
1.21011
1.21003
1.20996
1.20988
1.20981
1.20974
1.20967
1.2096
1.20954
1.20947
1.20941
1.20935
1.2093
1.20924
1.20919
1.20914
1.2091
1.20906
1.20901
1.20898
1.20894
1.20891
1.20888
1.20885
1.20882
1.2088
1.20877
1.20875
1.20874
1.20872
1.2087
1.20869
1.20868
1.20867
1.20866
1.20865
1.20864
1.20863
1.20863
1.20862
1.20862
1.20861
1.20861
1.20861
1.2086
1.2086
1.2086
1.20859
1.20859
1.20859
1.20858
1.20858
1.20857
1.20857
1.20856
1.20856
1.20855
1.20855
1.20854
1.20854
1.20853
1.20852
1.20851
1.20851
1.2085
1.20849
1.20848
1.20847
1.20847
1.20846
1.20845
1.20844
1.20844
1.20843
1.20843
1.20843
1.20842
1.20842
1.20843
1.20843
1.20843
1.20844
1.20845
1.20847
1.20848
1.2085
1.20852
1.20855
1.20858
1.20862
1.20866
1.2087
1.20875
1.20881
1.20887
1.20894
1.20901
1.20909
1.20918
1.20928
1.20938
1.20949
1.20961
1.20973
1.20987
1.21001
1.21016
1.21032
1.21049
1.21067
1.21086
1.21105
1.21126
1.21147
1.21169
1.21192
1.21216
1.21241
1.21266
1.21293
1.21319
1.21347
1.21375
1.21404
1.21433
1.21462
1.21492
1.21522
1.21552
1.21582
1.21612
1.21643
1.21673
1.21702
1.21731
1.2176
1.21788
1.21816
1.21843
1.21869
1.21894
1.21918
1.21941
1.21963
1.21985
1.22005
1.22024
1.22042
1.22059
1.22075
1.22089
1.22103
1.22116
1.22128
1.22139
1.22149
1.22158
1.22167
1.22175
1.22182
1.22188
1.22194
1.222
1.22205
1.22209
1.22213
1.22216
1.2222
1.22222
1.22225
1.22227
1.22229
1.2223
1.22231
1.22232
1.22233
1.22234
1.22234
1.22234
1.22233
1.22233
1.22232
1.22231
1.2223
1.22229
1.22227
1.22225
1.22224
1.22222
1.2222
1.22218
1.22216
1.22214
1.22213
1.22211
1.2221
1.2221
1.22209
1.22209
1.2221
1.22212
1.22214
1.22217
1.22221
1.22226
1.22232
1.22239
1.22247
1.22257
1.22269
1.22282
1.22297
1.22313
1.22331
1.22352
1.22374
1.22399
1.22426
1.22455
1.22487
1.22521
1.22558
1.22598
1.2264
1.22686
1.22735
1.22786
1.22842
1.229
1.22962
1.23028
1.23097
1.23171
1.23249
1.23331
1.23418
1.2351
1.23607
1.2371
1.23819
1.23935
1.24059
1.2419
1.24332
1.24483
1.24647
1.24825
1.25018
1.2523
1.25462
1.25716
1.25992
1.26287
1.26588
1.26873
1.27091
1.27201
1.27174
1.19718
1.19664
1.19662
1.19702
1.19766
1.19844
1.19924
1.19999
1.20067
1.20128
1.2018
1.20225
1.20264
1.20297
1.20325
1.20349
1.20369
1.20386
1.20401
1.20413
1.20423
1.20431
1.20437
1.20442
1.20445
1.20448
1.20449
1.2045
1.2045
1.20449
1.20447
1.20444
1.20442
1.20438
1.20434
1.2043
1.20426
1.20421
1.20416
1.20411
1.20406
1.204
1.20395
1.20389
1.20384
1.20379
1.20373
1.20368
1.20363
1.20359
1.20354
1.2035
1.20346
1.20343
1.2034
1.20338
1.20336
1.20335
1.20334
1.20334
1.20334
1.20336
1.20338
1.2034
1.20344
1.20348
1.20353
1.20359
1.20366
1.20373
1.20381
1.2039
1.204
1.2041
1.20421
1.20433
1.20446
1.2046
1.20474
1.20488
1.20504
1.2052
1.20536
1.20553
1.20571
1.20589
1.20607
1.20626
1.20646
1.20665
1.20685
1.20705
1.20725
1.20745
1.20766
1.20786
1.20806
1.20826
1.20845
1.20865
1.20884
1.20903
1.20921
1.20939
1.20956
1.20973
1.20989
1.21004
1.21019
1.21033
1.21045
1.21058
1.21069
1.21079
1.21088
1.21096
1.21103
1.21109
1.21114
1.21118
1.2112
1.21122
1.21123
1.21122
1.21121
1.21119
1.21116
1.21113
1.21109
1.21104
1.21099
1.21093
1.21086
1.2108
1.21073
1.21066
1.21058
1.21051
1.21043
1.21035
1.21027
1.2102
1.21012
1.21004
1.20997
1.20989
1.20982
1.20975
1.20968
1.20961
1.20954
1.20948
1.20942
1.20936
1.20931
1.20925
1.2092
1.20916
1.20911
1.20907
1.20903
1.20899
1.20895
1.20892
1.20889
1.20886
1.20884
1.20881
1.20879
1.20877
1.20875
1.20874
1.20872
1.20871
1.2087
1.20869
1.20868
1.20867
1.20866
1.20865
1.20865
1.20864
1.20864
1.20863
1.20863
1.20863
1.20862
1.20862
1.20862
1.20861
1.20861
1.20861
1.2086
1.2086
1.20859
1.20859
1.20858
1.20858
1.20857
1.20857
1.20856
1.20855
1.20855
1.20854
1.20853
1.20852
1.20852
1.20851
1.2085
1.20849
1.20848
1.20848
1.20847
1.20846
1.20845
1.20845
1.20844
1.20844
1.20844
1.20844
1.20844
1.20844
1.20845
1.20845
1.20846
1.20848
1.20849
1.20851
1.20853
1.20856
1.20859
1.20863
1.20867
1.20871
1.20876
1.20882
1.20888
1.20894
1.20902
1.2091
1.20919
1.20928
1.20938
1.20949
1.20961
1.20974
1.20987
1.21002
1.21017
1.21033
1.2105
1.21068
1.21086
1.21106
1.21127
1.21148
1.2117
1.21193
1.21217
1.21242
1.21268
1.21294
1.21321
1.21349
1.21377
1.21406
1.21435
1.21465
1.21495
1.21525
1.21555
1.21586
1.21616
1.21647
1.21677
1.21707
1.21736
1.21765
1.21793
1.21821
1.21848
1.21874
1.21899
1.21923
1.21947
1.21969
1.2199
1.2201
1.22029
1.22046
1.22063
1.22079
1.22093
1.22107
1.22119
1.22131
1.22142
1.22152
1.22161
1.22169
1.22177
1.22184
1.2219
1.22196
1.22201
1.22206
1.2221
1.22214
1.22217
1.2222
1.22223
1.22225
1.22227
1.22229
1.22231
1.22232
1.22233
1.22234
1.22234
1.22234
1.22234
1.22234
1.22233
1.22232
1.22231
1.2223
1.22229
1.22227
1.22226
1.22224
1.22222
1.2222
1.22218
1.22216
1.22214
1.22212
1.2221
1.22209
1.22208
1.22208
1.22208
1.22208
1.22209
1.22211
1.22214
1.22218
1.22223
1.22229
1.22236
1.22244
1.22254
1.22265
1.22278
1.22292
1.22309
1.22327
1.22347
1.22369
1.22394
1.22421
1.2245
1.22481
1.22516
1.22552
1.22592
1.22634
1.2268
1.22728
1.2278
1.22835
1.22893
1.22955
1.2302
1.23089
1.23162
1.23239
1.23321
1.23407
1.23497
1.23593
1.23694
1.23802
1.23915
1.24035
1.24163
1.24299
1.24445
1.24601
1.24768
1.24948
1.25142
1.25351
1.25572
1.25805
1.26041
1.26267
1.26462
1.26601
1.26655
1.26631
1.19862
1.19815
1.19805
1.19822
1.19862
1.19914
1.19971
1.20029
1.20084
1.20134
1.2018
1.2022
1.20256
1.20287
1.20314
1.20337
1.20357
1.20374
1.20388
1.204
1.2041
1.20419
1.20426
1.20431
1.20435
1.20438
1.2044
1.20441
1.20441
1.2044
1.20439
1.20437
1.20434
1.20431
1.20428
1.20424
1.2042
1.20415
1.2041
1.20405
1.204
1.20395
1.2039
1.20385
1.20379
1.20374
1.20369
1.20364
1.20359
1.20354
1.2035
1.20346
1.20342
1.20339
1.20336
1.20334
1.20332
1.20331
1.2033
1.2033
1.20331
1.20332
1.20334
1.20337
1.20341
1.20345
1.2035
1.20356
1.20363
1.2037
1.20379
1.20388
1.20397
1.20408
1.20419
1.20432
1.20444
1.20458
1.20472
1.20487
1.20502
1.20519
1.20535
1.20552
1.2057
1.20589
1.20607
1.20626
1.20646
1.20666
1.20686
1.20706
1.20726
1.20747
1.20767
1.20788
1.20808
1.20828
1.20848
1.20868
1.20887
1.20906
1.20924
1.20942
1.2096
1.20977
1.20993
1.21008
1.21023
1.21037
1.2105
1.21062
1.21073
1.21084
1.21093
1.21101
1.21108
1.21114
1.21118
1.21122
1.21125
1.21126
1.21127
1.21126
1.21125
1.21123
1.2112
1.21116
1.21112
1.21107
1.21101
1.21095
1.21089
1.21082
1.21075
1.21067
1.2106
1.21052
1.21044
1.21037
1.21029
1.21021
1.21013
1.21005
1.20998
1.2099
1.20983
1.20976
1.20969
1.20962
1.20956
1.2095
1.20943
1.20938
1.20932
1.20927
1.20922
1.20917
1.20913
1.20908
1.20904
1.20901
1.20897
1.20894
1.20891
1.20888
1.20886
1.20883
1.20881
1.20879
1.20877
1.20876
1.20874
1.20873
1.20872
1.20871
1.2087
1.20869
1.20868
1.20868
1.20867
1.20867
1.20866
1.20866
1.20865
1.20865
1.20865
1.20864
1.20864
1.20864
1.20863
1.20863
1.20863
1.20862
1.20862
1.20861
1.20861
1.2086
1.2086
1.20859
1.20858
1.20858
1.20857
1.20856
1.20855
1.20855
1.20854
1.20853
1.20852
1.20851
1.2085
1.2085
1.20849
1.20848
1.20847
1.20847
1.20846
1.20846
1.20846
1.20845
1.20845
1.20846
1.20846
1.20847
1.20848
1.20849
1.2085
1.20852
1.20854
1.20857
1.2086
1.20863
1.20867
1.20872
1.20877
1.20882
1.20888
1.20895
1.20902
1.2091
1.20919
1.20928
1.20939
1.2095
1.20961
1.20974
1.20987
1.21002
1.21017
1.21033
1.2105
1.21068
1.21087
1.21106
1.21127
1.21148
1.21171
1.21194
1.21218
1.21243
1.21269
1.21295
1.21323
1.2135
1.21379
1.21408
1.21438
1.21467
1.21498
1.21528
1.21559
1.2159
1.21621
1.21651
1.21682
1.21712
1.21741
1.21771
1.21799
1.21827
1.21854
1.2188
1.21905
1.2193
1.21953
1.21975
1.21996
1.22016
1.22034
1.22052
1.22068
1.22084
1.22098
1.22111
1.22124
1.22135
1.22146
1.22155
1.22164
1.22172
1.22179
1.22186
1.22192
1.22198
1.22203
1.22207
1.22212
1.22215
1.22219
1.22221
1.22224
1.22226
1.22228
1.2223
1.22232
1.22233
1.22234
1.22234
1.22235
1.22235
1.22235
1.22235
1.22234
1.22233
1.22232
1.22231
1.22229
1.22228
1.22226
1.22224
1.22222
1.2222
1.22217
1.22215
1.22213
1.22211
1.22209
1.22208
1.22207
1.22206
1.22206
1.22206
1.22207
1.22209
1.22211
1.22215
1.22219
1.22225
1.22231
1.2224
1.22249
1.2226
1.22273
1.22287
1.22303
1.22321
1.22341
1.22363
1.22387
1.22414
1.22443
1.22474
1.22508
1.22545
1.22584
1.22626
1.22671
1.22719
1.22771
1.22825
1.22883
1.22944
1.23009
1.23077
1.23149
1.23226
1.23306
1.23391
1.2348
1.23574
1.23673
1.23777
1.23888
1.24004
1.24127
1.24258
1.24396
1.24543
1.24699
1.24864
1.25039
1.25223
1.25414
1.25607
1.25794
1.25963
1.26099
1.26189
1.26218
1.26186
1.19968
1.19929
1.19914
1.1992
1.19944
1.19978
1.20019
1.20063
1.20107
1.20148
1.20187
1.20222
1.20254
1.20282
1.20307
1.20329
1.20348
1.20364
1.20378
1.20391
1.20401
1.20409
1.20416
1.20422
1.20426
1.20429
1.20431
1.20433
1.20433
1.20433
1.20432
1.2043
1.20428
1.20425
1.20422
1.20418
1.20414
1.2041
1.20405
1.204
1.20395
1.2039
1.20385
1.2038
1.20375
1.2037
1.20365
1.2036
1.20355
1.2035
1.20346
1.20342
1.20339
1.20335
1.20333
1.2033
1.20329
1.20327
1.20327
1.20327
1.20327
1.20329
1.20331
1.20334
1.20337
1.20342
1.20347
1.20353
1.2036
1.20367
1.20376
1.20385
1.20395
1.20406
1.20417
1.20429
1.20442
1.20456
1.2047
1.20485
1.20501
1.20517
1.20534
1.20551
1.20569
1.20588
1.20607
1.20626
1.20646
1.20666
1.20686
1.20707
1.20727
1.20748
1.20769
1.20789
1.2081
1.2083
1.2085
1.2087
1.2089
1.20909
1.20927
1.20946
1.20963
1.2098
1.20997
1.21013
1.21028
1.21042
1.21055
1.21067
1.21079
1.21089
1.21098
1.21106
1.21113
1.21119
1.21124
1.21127
1.2113
1.21131
1.21132
1.21131
1.21129
1.21127
1.21124
1.2112
1.21115
1.2111
1.21104
1.21098
1.21091
1.21084
1.21077
1.2107
1.21062
1.21054
1.21046
1.21038
1.21031
1.21023
1.21015
1.21007
1.20999
1.20992
1.20985
1.20978
1.20971
1.20964
1.20957
1.20951
1.20945
1.20939
1.20934
1.20929
1.20924
1.20919
1.20915
1.2091
1.20906
1.20903
1.20899
1.20896
1.20893
1.2089
1.20888
1.20886
1.20883
1.20882
1.2088
1.20878
1.20877
1.20875
1.20874
1.20873
1.20872
1.20872
1.20871
1.2087
1.2087
1.20869
1.20869
1.20868
1.20868
1.20868
1.20867
1.20867
1.20867
1.20866
1.20866
1.20866
1.20865
1.20865
1.20865
1.20864
1.20864
1.20863
1.20862
1.20862
1.20861
1.2086
1.2086
1.20859
1.20858
1.20857
1.20856
1.20855
1.20855
1.20854
1.20853
1.20852
1.20851
1.2085
1.20849
1.20849
1.20848
1.20848
1.20847
1.20847
1.20847
1.20847
1.20848
1.20848
1.20849
1.2085
1.20852
1.20853
1.20855
1.20858
1.20861
1.20864
1.20868
1.20872
1.20877
1.20882
1.20888
1.20895
1.20902
1.2091
1.20919
1.20928
1.20938
1.20949
1.20961
1.20974
1.20987
1.21001
1.21016
1.21033
1.2105
1.21067
1.21086
1.21106
1.21127
1.21148
1.21171
1.21194
1.21218
1.21243
1.21269
1.21296
1.21323
1.21352
1.2138
1.2141
1.21439
1.2147
1.215
1.21531
1.21562
1.21593
1.21625
1.21656
1.21686
1.21717
1.21747
1.21776
1.21805
1.21833
1.2186
1.21887
1.21912
1.21936
1.2196
1.21982
1.22003
1.22022
1.22041
1.22058
1.22075
1.2209
1.22104
1.22117
1.22129
1.2214
1.2215
1.22159
1.22168
1.22176
1.22183
1.22189
1.22195
1.222
1.22205
1.2221
1.22213
1.22217
1.2222
1.22223
1.22225
1.22228
1.2223
1.22231
1.22233
1.22234
1.22235
1.22235
1.22236
1.22236
1.22236
1.22236
1.22235
1.22234
1.22233
1.22232
1.2223
1.22228
1.22226
1.22224
1.22222
1.2222
1.22217
1.22215
1.22213
1.2221
1.22208
1.22207
1.22205
1.22204
1.22203
1.22203
1.22204
1.22205
1.22208
1.22211
1.22215
1.2222
1.22227
1.22234
1.22244
1.22254
1.22266
1.2228
1.22296
1.22314
1.22333
1.22355
1.22379
1.22405
1.22434
1.22465
1.22498
1.22535
1.22574
1.22615
1.2266
1.22708
1.22758
1.22812
1.22869
1.2293
1.22994
1.23062
1.23133
1.23208
1.23287
1.2337
1.23457
1.23549
1.23645
1.23747
1.23853
1.23965
1.24083
1.24207
1.24337
1.24475
1.24619
1.24769
1.24926
1.25087
1.25249
1.25407
1.25555
1.25683
1.2578
1.25839
1.25854
1.25819
1.20049
1.20016
1.2
1.2
1.20014
1.20036
1.20066
1.20099
1.20133
1.20167
1.20199
1.20229
1.20257
1.20282
1.20305
1.20325
1.20342
1.20358
1.20371
1.20383
1.20393
1.20401
1.20408
1.20414
1.20418
1.20422
1.20424
1.20425
1.20426
1.20426
1.20425
1.20424
1.20422
1.20419
1.20416
1.20413
1.20409
1.20405
1.204
1.20396
1.20391
1.20386
1.20381
1.20376
1.20371
1.20366
1.20361
1.20356
1.20351
1.20347
1.20342
1.20339
1.20335
1.20332
1.20329
1.20327
1.20325
1.20324
1.20323
1.20323
1.20324
1.20325
1.20328
1.2033
1.20334
1.20339
1.20344
1.2035
1.20357
1.20364
1.20373
1.20382
1.20392
1.20403
1.20415
1.20427
1.2044
1.20454
1.20468
1.20483
1.20499
1.20516
1.20533
1.2055
1.20568
1.20587
1.20606
1.20626
1.20646
1.20666
1.20686
1.20707
1.20728
1.20749
1.2077
1.20791
1.20812
1.20833
1.20853
1.20873
1.20893
1.20912
1.20931
1.2095
1.20967
1.20985
1.21001
1.21017
1.21033
1.21047
1.2106
1.21073
1.21084
1.21095
1.21104
1.21112
1.21119
1.21125
1.2113
1.21133
1.21136
1.21137
1.21137
1.21136
1.21134
1.21132
1.21128
1.21124
1.21119
1.21114
1.21108
1.21101
1.21094
1.21087
1.2108
1.21072
1.21065
1.21057
1.21049
1.21041
1.21033
1.21025
1.21017
1.21009
1.21001
1.20994
1.20987
1.20979
1.20973
1.20966
1.20959
1.20953
1.20947
1.20941
1.20936
1.20931
1.20926
1.20921
1.20917
1.20913
1.20909
1.20905
1.20902
1.20899
1.20896
1.20893
1.2089
1.20888
1.20886
1.20884
1.20882
1.20881
1.20879
1.20878
1.20877
1.20876
1.20875
1.20874