# vtk DataFile Version 2.0
LBE mesh
ASCII
DATASET STRUCTURED_POINTS
DIMENSIONS 400 100 1
ASPECT_RATIO 1 1 1
ORIGIN 0 0 0
POINT_DATA 40000
SCALARS rho double 1
LOOKUP_TABLE default
1.21002
1.3126
1.34149
1.34614
1.34818
1.35026
1.35184
1.35285
1.35353
1.35403
1.35443
1.35474
1.35499
1.35519
1.35536
1.3555
1.35562
1.35572
1.3558
1.35587
1.35592
1.35596
1.356
1.35602
1.35604
1.35605
1.35605
1.35605
1.35604
1.35602
1.356
1.35598
1.35595
1.35592
1.35589
1.35586
1.35582
1.35578
1.35574
1.3557
1.35566
1.35562
1.35558
1.35554
1.3555
1.35547
1.35543
1.3554
1.35537
1.35535
1.35533
1.35532
1.35531
1.35531
1.35531
1.35532
1.35533
1.35536
1.35539
1.35542
1.35547
1.35553
1.35559
1.35566
1.35575
1.35584
1.35594
1.35605
1.35617
1.3563
1.35644
1.35659
1.35675
1.35692
1.3571
1.35728
1.35748
1.35769
1.3579
1.35813
1.35836
1.3586
1.35885
1.3591
1.35937
1.35964
1.35991
1.3602
1.36049
1.36078
1.36108
1.36139
1.36169
1.362
1.36232
1.36263
1.36295
1.36326
1.36358
1.3639
1.36421
1.36452
1.36483
1.36514
1.36544
1.36573
1.36603
1.36631
1.36659
1.36686
1.36712
1.36737
1.36762
1.36785
1.36808
1.36829
1.3685
1.36869
1.36887
1.36904
1.3692
1.36935
1.36948
1.36961
1.36973
1.36983
1.36993
1.37001
1.37009
1.37016
1.37022
1.37027
1.37031
1.37035
1.37038
1.37041
1.37043
1.37045
1.37046
1.37047
1.37047
1.37047
1.37047
1.37047
1.37046
1.37045
1.37044
1.37043
1.37041
1.3704
1.37038
1.37036
1.37034
1.37032
1.37031
1.37028
1.37026
1.37024
1.37022
1.3702
1.37018
1.37016
1.37014
1.37012
1.3701
1.37008
1.37006
1.37004
1.37002
1.37
1.36998
1.36997
1.36995
1.36993
1.36992
1.3699
1.36989
1.36987
1.36986
1.36984
1.36983
1.36982
1.36981
1.3698
1.36979
1.36978
1.36977
1.36976
1.36976
1.36975
1.36975
1.36975
1.36975
1.36975
1.36975
1.36975
1.36976
1.36976
1.36977
1.36978
1.36979
1.36981
1.36982
1.36984
1.36986
1.36989
1.36991
1.36994
1.36998
1.37001
1.37005
1.37009
1.37014
1.37019
1.37024
1.3703
1.37036
1.37043
1.3705
1.37057
1.37066
1.37074
1.37083
1.37093
1.37103
1.37114
1.37126
1.37138
1.37151
1.37164
1.37179
1.37193
1.37209
1.37226
1.37243
1.37261
1.3728
1.37299
1.3732
1.37341
1.37363
1.37386
1.3741
1.37435
1.37461
1.37487
1.37515
1.37543
1.37572
1.37603
1.37634
1.37666
1.37699
1.37733
1.37767
1.37803
1.37839
1.37876
1.37914
1.37953
1.37992
1.38032
1.38072
1.38113
1.38155
1.38196
1.38239
1.38281
1.38324
1.38367
1.3841
1.38453
1.38495
1.38538
1.3858
1.38622
1.38663
1.38704
1.38745
1.38784
1.38823
1.3886
1.38897
1.38933
1.38968
1.39002
1.39034
1.39066
1.39096
1.39125
1.39153
1.3918
1.39205
1.3923
1.39253
1.39275
1.39296
1.39316
1.39335
1.39353
1.39371
1.39387
1.39403
1.39418
1.39432
1.39445
1.39458
1.3947
1.39482
1.39493
1.39504
1.39514
1.39524
1.39534
1.39543
1.39552
1.3956
1.39568
1.39576
1.39584
1.39591
1.39598
1.39605
1.39612
1.39619
1.39625
1.39632
1.39638
1.39645
1.39651
1.39658
1.39664
1.39671
1.39678
1.39686
1.39693
1.39701
1.3971
1.39719
1.39728
1.39739
1.3975
1.39762
1.39774
1.39788
1.39803
1.39818
1.39835
1.39854
1.39873
1.39895
1.39917
1.39942
1.39968
1.39996
1.40025
1.40057
1.40091
1.40127
1.40166
1.40206
1.40249
1.40295
1.40344
1.40395
1.40449
1.40506
1.40566
1.4063
1.40697
1.40767
1.40841
1.40919
1.41001
1.41087
1.41178
1.41273
1.41374
1.4148
1.41593
1.41711
1.41838
1.41972
1.42115
1.42269
1.42434
1.42613
1.42808
1.43022
1.43259
1.43525
1.43827
1.44177
1.4459
1.45092
1.45741
1.46648
1.47926
1.49749
1.53352
1.30557
1.31293
1.32644
1.33886
1.34515
1.34815
1.34997
1.3513
1.3523
1.35303
1.35359
1.35402
1.35437
1.35466
1.35489
1.35508
1.35524
1.35538
1.35549
1.35558
1.35566
1.35573
1.35578
1.35582
1.35585
1.35587
1.35588
1.35589
1.35589
1.35588
1.35587
1.35586
1.35584
1.35581
1.35578
1.35575
1.35572
1.35569
1.35565
1.35562
1.35558
1.35554
1.35551
1.35547
1.35544
1.3554
1.35537
1.35535
1.35532
1.3553
1.35529
1.35528
1.35527
1.35527
1.35527
1.35529
1.3553
1.35533
1.35536
1.3554
1.35545
1.35551
1.35558
1.35565
1.35574
1.35583
1.35593
1.35605
1.35617
1.3563
1.35644
1.35659
1.35675
1.35692
1.35711
1.35729
1.35749
1.3577
1.35792
1.35814
1.35837
1.35861
1.35886
1.35912
1.35939
1.35966
1.35993
1.36022
1.36051
1.3608
1.3611
1.3614
1.36171
1.36202
1.36233
1.36265
1.36296
1.36328
1.3636
1.36391
1.36422
1.36453
1.36484
1.36515
1.36545
1.36574
1.36603
1.36631
1.36659
1.36686
1.36712
1.36737
1.36761
1.36785
1.36807
1.36828
1.36848
1.36867
1.36885
1.36902
1.36918
1.36933
1.36946
1.36959
1.3697
1.3698
1.3699
1.36998
1.37006
1.37013
1.37019
1.37024
1.37029
1.37032
1.37036
1.37038
1.3704
1.37042
1.37043
1.37044
1.37045
1.37045
1.37045
1.37044
1.37044
1.37043
1.37042
1.3704
1.37039
1.37038
1.37036
1.37034
1.37032
1.37031
1.37029
1.37027
1.37025
1.37023
1.37021
1.37019
1.37017
1.37015
1.37013
1.37011
1.37009
1.37007
1.37005
1.37003
1.37001
1.36999
1.36997
1.36996
1.36994
1.36992
1.36991
1.36989
1.36988
1.36986
1.36985
1.36983
1.36982
1.36981
1.3698
1.36979
1.36978
1.36977
1.36977
1.36976
1.36975
1.36975
1.36975
1.36974
1.36974
1.36974
1.36975
1.36975
1.36975
1.36976
1.36977
1.36978
1.36979
1.36981
1.36982
1.36984
1.36987
1.36989
1.36992
1.36995
1.36998
1.37001
1.37005
1.3701
1.37014
1.37019
1.37025
1.37031
1.37037
1.37044
1.37051
1.37058
1.37067
1.37075
1.37084
1.37094
1.37105
1.37116
1.37127
1.37139
1.37152
1.37166
1.3718
1.37195
1.37211
1.37228
1.37245
1.37263
1.37282
1.37301
1.37322
1.37343
1.37366
1.37389
1.37413
1.37438
1.37464
1.3749
1.37518
1.37546
1.37576
1.37606
1.37637
1.37669
1.37702
1.37736
1.37771
1.37806
1.37843
1.3788
1.37918
1.37956
1.37996
1.38035
1.38076
1.38117
1.38158
1.382
1.38242
1.38285
1.38327
1.3837
1.38413
1.38456
1.38498
1.38541
1.38583
1.38624
1.38666
1.38706
1.38746
1.38786
1.38824
1.38862
1.38898
1.38934
1.38968
1.39002
1.39034
1.39066
1.39096
1.39124
1.39152
1.39179
1.39204
1.39228
1.39251
1.39273
1.39294
1.39314
1.39334
1.39352
1.39369
1.39385
1.39401
1.39416
1.3943
1.39443
1.39456
1.39469
1.3948
1.39492
1.39502
1.39513
1.39523
1.39532
1.39541
1.3955
1.39558
1.39567
1.39575
1.39582
1.3959
1.39597
1.39604
1.39611
1.39617
1.39624
1.39631
1.39637
1.39644
1.3965
1.39657
1.39664
1.39671
1.39678
1.39685
1.39693
1.39701
1.3971
1.39719
1.39729
1.39739
1.3975
1.39762
1.39775
1.39789
1.39804
1.3982
1.39837
1.39856
1.39876
1.39897
1.3992
1.39945
1.39971
1.39999
1.40029
1.40062
1.40096
1.40132
1.40171
1.40212
1.40256
1.40302
1.40351
1.40402
1.40457
1.40514
1.40575
1.40639
1.40706
1.40777
1.40852
1.4093
1.41013
1.411
1.41191
1.41287
1.41389
1.41496
1.4161
1.4173
1.41858
1.41994
1.4214
1.42296
1.42464
1.42647
1.42847
1.43067
1.43312
1.43588
1.43904
1.44272
1.44712
1.45255
1.4594
1.46829
1.48123
1.50401
1.5403
1.3277
1.3229
1.33143
1.3387
1.34307
1.34623
1.34852
1.35013
1.35129
1.35216
1.35284
1.35337
1.35381
1.35416
1.35445
1.35469
1.35489
1.35506
1.3552
1.35532
1.35542
1.3555
1.35557
1.35562
1.35567
1.3557
1.35572
1.35574
1.35575
1.35575
1.35575
1.35574
1.35572
1.3557
1.35568
1.35566
1.35563
1.3556
1.35557
1.35553
1.3555
1.35547
1.35543
1.3554
1.35537
1.35534
1.35531
1.35529
1.35527
1.35525
1.35524
1.35523
1.35522
1.35523
1.35523
1.35525
1.35527
1.3553
1.35533
1.35537
1.35543
1.35549
1.35555
1.35563
1.35572
1.35581
1.35592
1.35603
1.35616
1.35629
1.35644
1.35659
1.35675
1.35692
1.3571
1.3573
1.3575
1.3577
1.35792
1.35815
1.35838
1.35862
1.35887
1.35913
1.3594
1.35967
1.35995
1.36023
1.36052
1.36082
1.36112
1.36142
1.36173
1.36204
1.36235
1.36267
1.36298
1.3633
1.36361
1.36393
1.36424
1.36455
1.36486
1.36516
1.36546
1.36575
1.36604
1.36632
1.3666
1.36687
1.36712
1.36738
1.36762
1.36785
1.36807
1.36828
1.36848
1.36867
1.36885
1.36901
1.36917
1.36931
1.36945
1.36957
1.36969
1.36979
1.36988
1.36997
1.37004
1.37011
1.37017
1.37022
1.37026
1.3703
1.37033
1.37036
1.37038
1.3704
1.37041
1.37042
1.37042
1.37043
1.37042
1.37042
1.37041
1.37041
1.3704
1.37038
1.37037
1.37036
1.37034
1.37032
1.37031
1.37029
1.37027
1.37025
1.37023
1.37021
1.37019
1.37017
1.37015
1.37013
1.37011
1.37009
1.37007
1.37005
1.37003
1.37002
1.37
1.36998
1.36996
1.36994
1.36993
1.36991
1.3699
1.36988
1.36987
1.36985
1.36984
1.36983
1.36982
1.3698
1.36979
1.36978
1.36977
1.36977
1.36976
1.36975
1.36975
1.36974
1.36974
1.36974
1.36974
1.36974
1.36974
1.36975
1.36975
1.36976
1.36977
1.36978
1.36979
1.36981
1.36982
1.36984
1.36986
1.36989
1.36992
1.36995
1.36998
1.37002
1.37006
1.3701
1.37014
1.3702
1.37025
1.37031
1.37037
1.37044
1.37051
1.37059
1.37067
1.37076
1.37085
1.37095
1.37105
1.37116
1.37128
1.3714
1.37153
1.37167
1.37181
1.37197
1.37212
1.37229
1.37246
1.37264
1.37283
1.37303
1.37324
1.37345
1.37368
1.37391
1.37415
1.3744
1.37466
1.37492
1.3752
1.37549
1.37578
1.37609
1.3764
1.37672
1.37705
1.37739
1.37774
1.37809
1.37846
1.37883
1.37921
1.3796
1.37999
1.38039
1.38079
1.3812
1.38162
1.38203
1.38246
1.38288
1.38331
1.38373
1.38416
1.38459
1.38501
1.38544
1.38586
1.38627
1.38668
1.38709
1.38749
1.38788
1.38826
1.38864
1.389
1.38935
1.3897
1.39003
1.39035
1.39066
1.39096
1.39125
1.39152
1.39179
1.39204
1.39228
1.39251
1.39273
1.39294
1.39314
1.39333
1.39351
1.39368
1.39384
1.394
1.39414
1.39429
1.39442
1.39455
1.39467
1.39479
1.3949
1.39501
1.39511
1.39521
1.39531
1.3954
1.39549
1.39557
1.39565
1.39573
1.39581
1.39588
1.39596
1.39603
1.3961
1.39616
1.39623
1.3963
1.39636
1.39643
1.39649
1.39656
1.39663
1.3967
1.39677
1.39685
1.39692
1.39701
1.39709
1.39719
1.39728
1.39739
1.3975
1.39762
1.39775
1.39789
1.39804
1.39821
1.39838
1.39857
1.39877
1.39898
1.39921
1.39946
1.39973
1.40001
1.40032
1.40064
1.40098
1.40135
1.40174
1.40215
1.40259
1.40306
1.40355
1.40407
1.40462
1.40519
1.4058
1.40645
1.40712
1.40784
1.40859
1.40937
1.4102
1.41108
1.412
1.41297
1.41399
1.41507
1.41621
1.41742
1.4187
1.42007
1.42153
1.42311
1.4248
1.42664
1.42865
1.43087
1.43334
1.43612
1.43929
1.44297
1.44732
1.45257
1.45914
1.46766
1.47833
1.48993
1.50112
1.3354
1.33409
1.33657
1.33946
1.34295
1.34578
1.34783
1.34936
1.35056
1.3515
1.35224
1.35284
1.35332
1.35372
1.35405
1.35433
1.35456
1.35476
1.35493
1.35507
1.35519
1.35528
1.35537
1.35544
1.35549
1.35554
1.35557
1.35559
1.35561
1.35562
1.35562
1.35562
1.35561
1.3556
1.35558
1.35556
1.35554
1.35551
1.35548
1.35545
1.35542
1.35539
1.35536
1.35533
1.35531
1.35528
1.35525
1.35523
1.35521
1.3552
1.35518
1.35518
1.35518
1.35518
1.35519
1.3552
1.35523
1.35526
1.35529
1.35534
1.35539
1.35545
1.35552
1.3556
1.35569
1.35579
1.3559
1.35601
1.35614
1.35627
1.35642
1.35657
1.35674
1.35691
1.3571
1.35729
1.35749
1.3577
1.35792
1.35815
1.35838
1.35862
1.35888
1.35913
1.3594
1.35967
1.35995
1.36024
1.36053
1.36083
1.36113
1.36143
1.36174
1.36205
1.36237
1.36268
1.363
1.36331
1.36363
1.36394
1.36426
1.36457
1.36487
1.36518
1.36548
1.36577
1.36606
1.36634
1.36661
1.36688
1.36714
1.36739
1.36763
1.36786
1.36808
1.36829
1.36849
1.36867
1.36885
1.36902
1.36917
1.36931
1.36945
1.36957
1.36968
1.36978
1.36987
1.36995
1.37003
1.37009
1.37015
1.3702
1.37025
1.37028
1.37032
1.37034
1.37036
1.37038
1.37039
1.3704
1.37041
1.37041
1.37041
1.3704
1.3704
1.37039
1.37038
1.37037
1.37035
1.37034
1.37032
1.37031
1.37029
1.37027
1.37025
1.37023
1.37022
1.3702
1.37018
1.37016
1.37014
1.37012
1.3701
1.37008
1.37006
1.37004
1.37002
1.37
1.36999
1.36997
1.36995
1.36994
1.36992
1.3699
1.36989
1.36987
1.36986
1.36985
1.36983
1.36982
1.36981
1.3698
1.36979
1.36978
1.36977
1.36976
1.36975
1.36975
1.36974
1.36974
1.36974
1.36973
1.36973
1.36973
1.36974
1.36974
1.36975
1.36975
1.36976
1.36977
1.36979
1.3698
1.36982
1.36984
1.36986
1.36989
1.36991
1.36994
1.36998
1.37001
1.37005
1.3701
1.37014
1.37019
1.37025
1.37031
1.37037
1.37044
1.37051
1.37059
1.37067
1.37076
1.37085
1.37095
1.37106
1.37117
1.37128
1.37141
1.37154
1.37168
1.37182
1.37197
1.37213
1.3723
1.37247
1.37265
1.37284
1.37304
1.37325
1.37346
1.37369
1.37392
1.37416
1.37441
1.37467
1.37494
1.37522
1.3755
1.3758
1.3761
1.37642
1.37674
1.37707
1.37741
1.37776
1.37812
1.37848
1.37885
1.37923
1.37962
1.38001
1.38041
1.38082
1.38123
1.38164
1.38206
1.38249
1.38291
1.38334
1.38376
1.38419
1.38462
1.38504
1.38547
1.38589
1.3863
1.38671
1.38712
1.38752
1.38791
1.38829
1.38866
1.38903
1.38938
1.38972
1.39005
1.39037
1.39068
1.39098
1.39126
1.39154
1.3918
1.39205
1.39229
1.39251
1.39273
1.39294
1.39314
1.39332
1.3935
1.39367
1.39383
1.39399
1.39414
1.39428
1.39441
1.39454
1.39466
1.39478
1.39489
1.395
1.3951
1.3952
1.3953
1.39539
1.39548
1.39556
1.39564
1.39572
1.3958
1.39587
1.39595
1.39602
1.39609
1.39615
1.39622
1.39629
1.39635
1.39642
1.39648
1.39655
1.39662
1.39669
1.39676
1.39684
1.39691
1.397
1.39708
1.39718
1.39728
1.39738
1.39749
1.39762
1.39775
1.39789
1.39804
1.3982
1.39837
1.39856
1.39876
1.39898
1.39921
1.39946
1.39973
1.40001
1.40032
1.40064
1.40099
1.40136
1.40175
1.40216
1.4026
1.40307
1.40356
1.40409
1.40464
1.40522
1.40583
1.40647
1.40715
1.40787
1.40862
1.40941
1.41024
1.41111
1.41203
1.41301
1.41403
1.41511
1.41625
1.41746
1.41874
1.42011
1.42157
1.42313
1.42482
1.42665
1.42864
1.43084
1.43327
1.43599
1.43906
1.44259
1.44668
1.45148
1.45711
1.46363
1.47089
1.47679
1.47698
1.34016
1.33973
1.34023
1.34188
1.34405
1.34598
1.34765
1.34904
1.35017
1.35108
1.35182
1.35243
1.35294
1.35336
1.35372
1.35402
1.35428
1.3545
1.35468
1.35484
1.35497
1.35509
1.35518
1.35526
1.35533
1.35538
1.35543
1.35546
1.35548
1.3555
1.35551
1.35551
1.35551
1.3555
1.35548
1.35547
1.35545
1.35542
1.3554
1.35537
1.35535
1.35532
1.35529
1.35526
1.35524
1.35521
1.35519
1.35517
1.35515
1.35514
1.35513
1.35512
1.35512
1.35513
1.35514
1.35516
1.35518
1.35521
1.35525
1.3553
1.35535
1.35542
1.35549
1.35557
1.35566
1.35576
1.35587
1.35598
1.35611
1.35625
1.3564
1.35655
1.35672
1.35689
1.35708
1.35727
1.35748
1.35769
1.35791
1.35814
1.35837
1.35862
1.35887
1.35913
1.3594
1.35967
1.35996
1.36024
1.36054
1.36083
1.36114
1.36144
1.36175
1.36206
1.36238
1.3627
1.36301
1.36333
1.36365
1.36396
1.36428
1.36459
1.36489
1.3652
1.3655
1.36579
1.36608
1.36636
1.36664
1.3669
1.36716
1.36741
1.36765
1.36788
1.3681
1.36831
1.3685
1.36869
1.36886
1.36903
1.36918
1.36932
1.36945
1.36957
1.36968
1.36978
1.36987
1.36995
1.37002
1.37009
1.37015
1.37019
1.37024
1.37027
1.3703
1.37033
1.37035
1.37036
1.37038
1.37038
1.37039
1.37039
1.37039
1.37038
1.37038
1.37037
1.37036
1.37035
1.37034
1.37032
1.37031
1.37029
1.37027
1.37026
1.37024
1.37022
1.3702
1.37018
1.37016
1.37014
1.37012
1.37011
1.37009
1.37007
1.37005
1.37003
1.37001
1.36999
1.36998
1.36996
1.36994
1.36993
1.36991
1.36989
1.36988
1.36987
1.36985
1.36984
1.36982
1.36981
1.3698
1.36979
1.36978
1.36977
1.36976
1.36975
1.36975
1.36974
1.36974
1.36973
1.36973
1.36973
1.36973
1.36973
1.36973
1.36974
1.36974
1.36975
1.36976
1.36977
1.36978
1.3698
1.36981
1.36983
1.36986
1.36988
1.36991
1.36994
1.36997
1.37001
1.37005
1.37009
1.37014
1.37019
1.37025
1.3703
1.37037
1.37044
1.37051
1.37059
1.37067
1.37076
1.37085
1.37095
1.37105
1.37116
1.37128
1.37141
1.37154
1.37167
1.37182
1.37197
1.37213
1.3723
1.37247
1.37265
1.37284
1.37304
1.37325
1.37346
1.37369
1.37392
1.37416
1.37442
1.37468
1.37494
1.37522
1.37551
1.37581
1.37611
1.37643
1.37675
1.37708
1.37742
1.37777
1.37813
1.3785
1.37887
1.37925
1.37964
1.38003
1.38043
1.38084
1.38125
1.38167
1.38209
1.38251
1.38294
1.38337
1.38379
1.38422
1.38465
1.38508
1.3855
1.38592
1.38634
1.38675
1.38716
1.38755
1.38794
1.38833
1.3887
1.38906
1.38941
1.38975
1.39008
1.3904
1.39071
1.391
1.39129
1.39156
1.39182
1.39206
1.3923
1.39253
1.39274
1.39295
1.39314
1.39333
1.39351
1.39367
1.39384
1.39399
1.39413
1.39427
1.39441
1.39453
1.39466
1.39477
1.39488
1.39499
1.39509
1.39519
1.39529
1.39538
1.39547
1.39555
1.39563
1.39571
1.39579
1.39586
1.39594
1.39601
1.39608
1.39614
1.39621
1.39628
1.39634
1.39641
1.39647
1.39654
1.39661
1.39668
1.39675
1.39682
1.3969
1.39698
1.39707
1.39716
1.39726
1.39737
1.39748
1.3976
1.39773
1.39787
1.39802
1.39818
1.39836
1.39855
1.39875
1.39897
1.3992
1.39945
1.39971
1.4
1.4003
1.40063
1.40098
1.40135
1.40174
1.40215
1.40259
1.40306
1.40355
1.40408
1.40463
1.40521
1.40582
1.40647
1.40714
1.40786
1.40861
1.4094
1.41023
1.41111
1.41202
1.41299
1.41401
1.41509
1.41622
1.41742
1.4187
1.42005
1.4215
1.42304
1.4247
1.4265
1.42844
1.43057
1.43291
1.43551
1.43841
1.44166
1.44533
1.44945
1.45399
1.45865
1.46284
1.46573
1.46495
1.34371
1.34308
1.34316
1.34409
1.3453
1.34663
1.34792
1.34906
1.35003
1.35086
1.35157
1.35216
1.35266
1.35309
1.35346
1.35377
1.35404
1.35427
1.35447
1.35464
1.35478
1.35491
1.35502
1.3551
1.35518
1.35524
1.35529
1.35533
1.35536
1.35538
1.3554
1.3554
1.3554
1.3554
1.35539
1.35538
1.35536
1.35534
1.35532
1.3553
1.35527
1.35525
1.35522
1.35519
1.35517
1.35515
1.35513
1.35511
1.35509
1.35508
1.35507
1.35507
1.35507
1.35507
1.35509
1.3551
1.35513
1.35516
1.3552
1.35525
1.35531
1.35537
1.35544
1.35553
1.35562
1.35572
1.35583
1.35595
1.35608
1.35622
1.35637
1.35652
1.35669
1.35687
1.35706
1.35725
1.35746
1.35767
1.35789
1.35812
1.35836
1.35861
1.35886
1.35912
1.35939
1.35967
1.35995
1.36024
1.36053
1.36083
1.36114
1.36145
1.36176
1.36207
1.36239
1.36271
1.36303
1.36334
1.36366
1.36398
1.36429
1.36461
1.36492
1.36522
1.36552
1.36582
1.3661
1.36639
1.36666
1.36693
1.36719
1.36744
1.36768
1.3679
1.36812
1.36833
1.36853
1.36871
1.36889
1.36905
1.3692
1.36934
1.36947
1.36959
1.36969
1.36979
1.36988
1.36996
1.37003
1.37009
1.37014
1.37019
1.37023
1.37027
1.3703
1.37032
1.37034
1.37035
1.37037
1.37037
1.37038
1.37038
1.37038
1.37037
1.37036
1.37036
1.37035
1.37033
1.37032
1.37031
1.37029
1.37028
1.37026
1.37024
1.37022
1.37021
1.37019
1.37017
1.37015
1.37013
1.37011
1.37009
1.37008
1.37006
1.37004
1.37002
1.37
1.36999
1.36997
1.36995
1.36993
1.36992
1.3699
1.36989
1.36987
1.36986
1.36984
1.36983
1.36982
1.36981
1.36979
1.36978
1.36977
1.36976
1.36976
1.36975
1.36974
1.36974
1.36973
1.36973
1.36972
1.36972
1.36972
1.36972
1.36973
1.36973
1.36974
1.36974
1.36975
1.36976
1.36978
1.36979
1.36981
1.36983
1.36985
1.36987
1.3699
1.36993
1.36997
1.37
1.37004
1.37009
1.37013
1.37018
1.37024
1.3703
1.37036
1.37043
1.3705
1.37058
1.37066
1.37075
1.37084
1.37094
1.37105
1.37116
1.37127
1.3714
1.37153
1.37167
1.37181
1.37196
1.37212
1.37229
1.37246
1.37265
1.37284
1.37304
1.37324
1.37346
1.37368
1.37392
1.37416
1.37441
1.37467
1.37494
1.37522
1.37551
1.37581
1.37611
1.37643
1.37675
1.37709
1.37743
1.37778
1.37814
1.3785
1.37888
1.37926
1.37965
1.38005
1.38045
1.38086
1.38127
1.38169
1.38211
1.38254
1.38296
1.38339
1.38382
1.38425
1.38468
1.38511
1.38554
1.38596
1.38638
1.38679
1.3872
1.38759
1.38798
1.38837
1.38874
1.3891
1.38945
1.38979
1.39012
1.39044
1.39074
1.39104
1.39132
1.39159
1.39184
1.39209
1.39232
1.39255
1.39276
1.39296
1.39316
1.39334
1.39352
1.39368
1.39384
1.39399
1.39414
1.39428
1.39441
1.39453
1.39465
1.39477
1.39488
1.39499
1.39509
1.39519
1.39528
1.39537
1.39546
1.39555
1.39563
1.39571
1.39578
1.39586
1.39593
1.396
1.39607
1.39614
1.3962
1.39627
1.39633
1.3964
1.39646
1.39653
1.3966
1.39667
1.39674
1.39681
1.39689
1.39697
1.39705
1.39715
1.39724
1.39735
1.39746
1.39758
1.39771
1.39785
1.398
1.39816
1.39833
1.39852
1.39872
1.39894
1.39917
1.39942
1.39968
1.39997
1.40027
1.4006
1.40094
1.40131
1.4017
1.40212
1.40256
1.40303
1.40352
1.40404
1.40459
1.40517
1.40578
1.40643
1.4071
1.40782
1.40857
1.40935
1.41018
1.41105
1.41196
1.41293
1.41394
1.415
1.41613
1.41732
1.41857
1.4199
1.42132
1.42283
1.42445
1.42619
1.42807
1.4301
1.43232
1.43474
1.4374
1.44031
1.44348
1.44686
1.45032
1.4536
1.45612
1.45741
1.45711
1.34611
1.34543
1.34538
1.34583
1.34655
1.34746
1.3484
1.34929
1.3501
1.35082
1.35146
1.35201
1.35249
1.3529
1.35326
1.35358
1.35385
1.35408
1.35429
1.35447
1.35462
1.35475
1.35486
1.35496
1.35504
1.35511
1.35517
1.35521
1.35525
1.35527
1.35529
1.3553
1.35531
1.35531
1.3553
1.35529
1.35528
1.35526
1.35524
1.35522
1.3552
1.35517
1.35515
1.35512
1.3551
1.35508
1.35506
1.35504
1.35503
1.35502
1.35501
1.35501
1.35501
1.35502
1.35503
1.35505
1.35508
1.35511
1.35515
1.3552
1.35526
1.35532
1.3554
1.35548
1.35557
1.35568
1.35579
1.35591
1.35604
1.35618
1.35633
1.35649
1.35666
1.35684
1.35703
1.35722
1.35743
1.35764
1.35787
1.3581
1.35834
1.35859
1.35885
1.35911
1.35938
1.35966
1.35994
1.36023
1.36053
1.36083
1.36114
1.36145
1.36176
1.36208
1.3624
1.36272
1.36304
1.36336
1.36368
1.364
1.36432
1.36463
1.36494
1.36525
1.36555
1.36584
1.36613
1.36642
1.36669
1.36696
1.36722
1.36747
1.36771
1.36794
1.36816
1.36837
1.36856
1.36875
1.36892
1.36908
1.36923
1.36936
1.36949
1.36961
1.36971
1.36981
1.36989
1.36997
1.37004
1.3701
1.37015
1.37019
1.37023
1.37027
1.37029
1.37032
1.37033
1.37035
1.37036
1.37036
1.37037
1.37037
1.37036
1.37036
1.37035
1.37034
1.37033
1.37032
1.37031
1.37029
1.37028
1.37026
1.37025
1.37023
1.37021
1.37019
1.37018
1.37016
1.37014
1.37012
1.3701
1.37008
1.37007
1.37005
1.37003
1.37001
1.36999
1.36998
1.36996
1.36994
1.36993
1.36991
1.3699
1.36988
1.36987
1.36985
1.36984
1.36982
1.36981
1.3698
1.36979
1.36978
1.36977
1.36976
1.36975
1.36974
1.36974
1.36973
1.36973
1.36972
1.36972
1.36972
1.36972
1.36972
1.36972
1.36972
1.36973
1.36974
1.36975
1.36976
1.36977
1.36978
1.3698
1.36982
1.36984
1.36987
1.36989
1.36992
1.36996
1.36999
1.37003
1.37008
1.37012
1.37017
1.37023
1.37029
1.37035
1.37042
1.37049
1.37057
1.37065
1.37074
1.37083
1.37093
1.37103
1.37115
1.37126
1.37139
1.37152
1.37165
1.3718
1.37195
1.37211
1.37228
1.37245
1.37263
1.37282
1.37302
1.37323
1.37345
1.37367
1.37391
1.37415
1.3744
1.37466
1.37493
1.37521
1.3755
1.3758
1.37611
1.37642
1.37675
1.37708
1.37743
1.37778
1.37814
1.37851
1.37888
1.37927
1.37966
1.38005
1.38046
1.38087
1.38128
1.3817
1.38213
1.38256
1.38299
1.38342
1.38385
1.38428
1.38472
1.38515
1.38557
1.386
1.38642
1.38683
1.38724
1.38764
1.38803
1.38841
1.38879
1.38915
1.3895
1.38984
1.39017
1.39049
1.39079
1.39108
1.39136
1.39163
1.39188
1.39212
1.39236
1.39258
1.39279
1.39299
1.39318
1.39336
1.39353
1.3937
1.39385
1.394
1.39415
1.39428
1.39441
1.39454
1.39466
1.39477
1.39488
1.39499
1.39509
1.39519
1.39528
1.39537
1.39546
1.39554
1.39562
1.3957
1.39578
1.39585
1.39592
1.39599
1.39606
1.39613
1.3962
1.39626
1.39632
1.39639
1.39645
1.39652
1.39658
1.39665
1.39672
1.39679
1.39687
1.39695
1.39703
1.39712
1.39722
1.39732
1.39743
1.39755
1.39768
1.39782
1.39796
1.39812
1.3983
1.39848
1.39868
1.3989
1.39913
1.39937
1.39964
1.39992
1.40023
1.40055
1.40089
1.40126
1.40165
1.40206
1.4025
1.40297
1.40346
1.40398
1.40453
1.40511
1.40571
1.40636
1.40703
1.40774
1.40848
1.40927
1.41009
1.41095
1.41186
1.41281
1.41381
1.41486
1.41597
1.41714
1.41837
1.41967
1.42105
1.42252
1.42408
1.42575
1.42753
1.42945
1.43151
1.43374
1.43613
1.43867
1.44134
1.44406
1.44666
1.44891
1.45052
1.45115
1.45089
1.34776
1.34718
1.34704
1.34723
1.34768
1.34829
1.34896
1.34964
1.3503
1.35091
1.35146
1.35196
1.3524
1.35279
1.35313
1.35344
1.3537
1.35394
1.35414
1.35432
1.35448
1.35461
1.35473
1.35483
1.35492
1.35499
1.35505
1.3551
1.35514
1.35517
1.35519
1.35521
1.35522
1.35522
1.35521
1.35521
1.3552
1.35518
1.35516
1.35514
1.35512
1.3551
1.35508
1.35506
1.35504
1.35501
1.355
1.35498
1.35497
1.35496
1.35495
1.35495
1.35495
1.35496
1.35497
1.35499
1.35502
1.35505
1.35509
1.35514
1.3552
1.35527
1.35534
1.35543
1.35552
1.35563
1.35574
1.35586
1.35599
1.35614
1.35629
1.35645
1.35662
1.3568
1.35699
1.35719
1.3574
1.35761
1.35784
1.35807
1.35831
1.35856
1.35882
1.35909
1.35936
1.35964
1.35993
1.36022
1.36052
1.36082
1.36113
1.36145
1.36176
1.36208
1.3624
1.36273
1.36305
1.36337
1.3637
1.36402
1.36434
1.36465
1.36496
1.36527
1.36558
1.36587
1.36617
1.36645
1.36673
1.367
1.36726
1.36751
1.36775
1.36798
1.3682
1.36841
1.3686
1.36878
1.36896
1.36911
1.36926
1.3694
1.36952
1.36963
1.36974
1.36983
1.36991
1.36999
1.37005
1.37011
1.37016
1.3702
1.37024
1.37027
1.3703
1.37032
1.37033
1.37034
1.37035
1.37036
1.37036
1.37036
1.37036
1.37035
1.37034
1.37033
1.37032
1.37031
1.3703
1.37028
1.37027
1.37025
1.37024
1.37022
1.3702
1.37018
1.37017
1.37015
1.37013
1.37011
1.37009
1.37007
1.37006
1.37004
1.37002
1.37
1.36999
1.36997
1.36995
1.36994
1.36992
1.3699
1.36989
1.36987
1.36986
1.36985
1.36983
1.36982
1.36981
1.36979
1.36978
1.36977
1.36976
1.36975
1.36975
1.36974
1.36973
1.36973
1.36972
1.36972
1.36971
1.36971
1.36971
1.36971
1.36971
1.36972
1.36972
1.36973
1.36974
1.36975
1.36976
1.36978
1.36979
1.36981
1.36983
1.36986
1.36988
1.36991
1.36995
1.36998
1.37002
1.37006
1.37011
1.37016
1.37022
1.37027
1.37034
1.3704
1.37048
1.37055
1.37063
1.37072
1.37081
1.37091
1.37102
1.37113
1.37124
1.37137
1.3715
1.37164
1.37178
1.37193
1.37209
1.37226
1.37243
1.37261
1.3728
1.373
1.37321
1.37343
1.37365
1.37389
1.37413
1.37438
1.37464
1.37491
1.37519
1.37548
1.37578
1.37609
1.37641
1.37673
1.37707
1.37741
1.37777
1.37813
1.3785
1.37888
1.37926
1.37965
1.38005
1.38046
1.38087
1.38129
1.38171
1.38214
1.38257
1.383
1.38344
1.38387
1.38431
1.38475
1.38518
1.38561
1.38604
1.38646
1.38688
1.38729
1.38769
1.38808
1.38847
1.38884
1.3892
1.38956
1.3899
1.39022
1.39054
1.39084
1.39113
1.39141
1.39167
1.39193
1.39217
1.3924
1.39261
1.39282
1.39302
1.39321
1.39338
1.39355
1.39372
1.39387
1.39402
1.39416
1.39429
1.39442
1.39454
1.39466
1.39478
1.39488
1.39499
1.39509
1.39519
1.39528
1.39537
1.39546
1.39554
1.39562
1.3957
1.39578
1.39585
1.39592
1.39599
1.39606
1.39612
1.39619
1.39625
1.39632
1.39638
1.39644
1.39651
1.39657
1.39664
1.39671
1.39678
1.39685
1.39693
1.39701
1.3971
1.39719
1.39729
1.3974
1.39752
1.39764
1.39778
1.39792
1.39808
1.39825
1.39844
1.39863
1.39885
1.39907
1.39932
1.39958
1.39986
1.40016
1.40048
1.40083
1.40119
1.40158
1.40199
1.40243
1.40289
1.40338
1.40389
1.40444
1.40501
1.40562
1.40625
1.40692
1.40763
1.40836
1.40914
1.40995
1.41081
1.4117
1.41264
1.41363
1.41466
1.41575
1.41689
1.41809
1.41935
1.42069
1.4221
1.4236
1.42518
1.42686
1.42865
1.43055
1.43256
1.43467
1.43686
1.43908
1.44123
1.44318
1.44476
1.44581
1.44615
1.44579
1.34896
1.34849
1.34831
1.34837
1.34864
1.34904
1.34953
1.35005
1.35057
1.35108
1.35155
1.35198
1.35238
1.35274
1.35306
1.35335
1.3536
1.35383
1.35403
1.35421
1.35436
1.3545
1.35462
1.35472
1.35481
1.35488
1.35495
1.355
1.35504
1.35507
1.3551
1.35512
1.35513
1.35513
1.35513
1.35513
1.35512
1.35511
1.35509
1.35507
1.35505
1.35503
1.35501
1.35499
1.35497
1.35495
1.35493
1.35491
1.3549
1.35489
1.35489
1.35488
1.35489
1.3549
1.35491
1.35493
1.35496
1.35499
1.35504
1.35509
1.35515
1.35521
1.35529
1.35537
1.35547
1.35557
1.35569
1.35581
1.35595
1.35609
1.35624
1.35641
1.35658
1.35676
1.35695
1.35715
1.35736
1.35758
1.35781
1.35804
1.35828
1.35854
1.3588
1.35906
1.35934
1.35962
1.35991
1.36021
1.36051
1.36081
1.36113
1.36144
1.36176
1.36208
1.36241
1.36273
1.36306
1.36339
1.36371
1.36404
1.36436
1.36468
1.36499
1.3653
1.36561
1.36591
1.3662
1.36649
1.36677
1.36704
1.3673
1.36755
1.3678
1.36803
1.36825
1.36845
1.36865
1.36883
1.369
1.36916
1.3693
1.36944
1.36956
1.36967
1.36977
1.36986
1.36994
1.37001
1.37007
1.37013
1.37017
1.37021
1.37025
1.37028
1.3703
1.37032
1.37033
1.37034
1.37035
1.37035
1.37036
1.37035
1.37035
1.37034
1.37033
1.37032
1.37031
1.3703
1.37029
1.37027
1.37026
1.37024
1.37023
1.37021
1.37019
1.37017
1.37016
1.37014
1.37012
1.3701
1.37008
1.37007
1.37005
1.37003
1.37001
1.37
1.36998
1.36996
1.36995
1.36993
1.36991
1.3699
1.36988
1.36987
1.36985
1.36984
1.36983
1.36981
1.3698
1.36979
1.36978
1.36977
1.36976
1.36975
1.36974
1.36973
1.36973
1.36972
1.36972
1.36971
1.36971
1.36971
1.36971
1.36971
1.36971
1.36971
1.36972
1.36972
1.36973
1.36974
1.36975
1.36977
1.36978
1.3698
1.36982
1.36985
1.36987
1.3699
1.36994
1.36997
1.37001
1.37005
1.3701
1.37015
1.3702
1.37026
1.37032
1.37039
1.37046
1.37053
1.37062
1.3707
1.37079
1.37089
1.371
1.37111
1.37122
1.37135
1.37148
1.37161
1.37176
1.37191
1.37207
1.37223
1.37241
1.37259
1.37278
1.37298
1.37319
1.3734
1.37363
1.37386
1.3741
1.37436
1.37462
1.37489
1.37517
1.37546
1.37576
1.37607
1.37638
1.37671
1.37705
1.37739
1.37775
1.37811
1.37848
1.37886
1.37925
1.37964
1.38005
1.38046
1.38087
1.38129
1.38172
1.38215
1.38258
1.38302
1.38346
1.38389
1.38433
1.38477
1.38521
1.38565
1.38608
1.3865
1.38692
1.38734
1.38774
1.38814
1.38852
1.3889
1.38927
1.38962
1.38996
1.39029
1.3906
1.3909
1.39119
1.39146
1.39173
1.39198
1.39221
1.39244
1.39266
1.39286
1.39305
1.39324
1.39341
1.39358
1.39374
1.39389
1.39404
1.39418
1.39431
1.39443
1.39456
1.39467
1.39478
1.39489
1.39499
1.39509
1.39519
1.39528
1.39537
1.39546
1.39554
1.39562
1.3957
1.39578
1.39585
1.39592
1.39599
1.39606
1.39612
1.39618
1.39625
1.39631
1.39637
1.39643
1.39649
1.39656
1.39662
1.39669
1.39676
1.39683
1.39691
1.39699
1.39707
1.39716
1.39726
1.39737
1.39748
1.3976
1.39774
1.39788
1.39803
1.3982
1.39838
1.39858
1.39878
1.39901
1.39925
1.39951
1.39979
1.40009
1.40041
1.40074
1.40111
1.40149
1.4019
1.40233
1.40279
1.40327
1.40378
1.40432
1.40489
1.40549
1.40612
1.40679
1.40748
1.40821
1.40898
1.40978
1.41062
1.4115
1.41243
1.41339
1.41441
1.41547
1.41658
1.41774
1.41897
1.42025
1.4216
1.42302
1.42451
1.42608
1.42774
1.42946
1.43126
1.43311
1.43498
1.43681
1.43851
1.43999
1.44112
1.44181
1.44199
1.44159
1.34989
1.3495
1.3493
1.3493
1.34945
1.34972
1.35007
1.35047
1.35088
1.35129
1.35169
1.35206
1.35241
1.35274
1.35303
1.3533
1.35354
1.35375
1.35395
1.35412
1.35427
1.35441
1.35452
1.35463
1.35472
1.35479
1.35486
1.35491
1.35495
1.35499
1.35502
1.35504
1.35505
1.35506
1.35506
1.35505
1.35505
1.35503
1.35502
1.355
1.35499
1.35497
1.35495
1.35493
1.35491
1.35489
1.35487
1.35485
1.35484
1.35483
1.35483
1.35482
1.35483
1.35484
1.35485
1.35487
1.3549
1.35493
1.35498
1.35503
1.35509
1.35515
1.35523
1.35532
1.35541
1.35552
1.35563
1.35576
1.35589
1.35604
1.35619
1.35636
1.35653
1.35671
1.35691
1.35711
1.35732
1.35754
1.35777
1.358
1.35825
1.3585
1.35876
1.35903
1.35931
1.35959
1.35989
1.36018
1.36049
1.3608
1.36111
1.36143
1.36176
1.36208
1.36241
1.36274
1.36307
1.3634
1.36373
1.36405
1.36438
1.3647
1.36502
1.36533
1.36564
1.36594
1.36624
1.36653
1.36681
1.36708
1.36735
1.3676
1.36785
1.36808
1.3683
1.3685
1.3687
1.36888
1.36905
1.36921
1.36935
1.36948
1.3696
1.36971
1.3698
1.36989
1.36997
1.37004
1.37009
1.37015
1.37019
1.37023
1.37026
1.37029
1.37031
1.37032
1.37034
1.37035
1.37035
1.37035
1.37035
1.37035
1.37035
1.37034
1.37033
1.37032
1.37031
1.37029
1.37028
1.37027
1.37025
1.37023
1.37022
1.3702
1.37018
1.37016
1.37015
1.37013
1.37011
1.37009
1.37008
1.37006
1.37004
1.37002
1.37001
1.36999
1.36997
1.36996
1.36994
1.36992
1.36991
1.36989
1.36988
1.36986
1.36985
1.36984
1.36982