# vtk DataFile Version 2.0
LBE mesh
ASCII
DATASET STRUCTURED_POINTS
DIMENSIONS 400 100 1
ASPECT_RATIO 1 1 1
ORIGIN 0 0 0
POINT_DATA 40000
SCALARS rho double 1
LOOKUP_TABLE default
1.15937
1.24779
1.27308
1.2776
1.27969
1.28167
1.28314
1.28409
1.28473
1.2852
1.28557
1.28586
1.28609
1.28628
1.28643
1.28655
1.28666
1.28674
1.28681
1.28687
1.28691
1.28694
1.28697
1.28698
1.28699
1.287
1.28699
1.28698
1.28697
1.28695
1.28693
1.2869
1.28687
1.28684
1.2868
1.28676
1.28672
1.28667
1.28663
1.28658
1.28654
1.28649
1.28644
1.28639
1.28635
1.2863
1.28626
1.28621
1.28617
1.28614
1.2861
1.28607
1.28604
1.28602
1.286
1.28599
1.28599
1.28599
1.28599
1.28601
1.28603
1.28605
1.28609
1.28613
1.28619
1.28625
1.28632
1.2864
1.28649
1.28658
1.28669
1.28681
1.28693
1.28707
1.28721
1.28736
1.28753
1.2877
1.28788
1.28807
1.28827
1.28847
1.28869
1.28891
1.28914
1.28938
1.28962
1.28987
1.29013
1.29039
1.29066
1.29092
1.2912
1.29147
1.29175
1.29203
1.29232
1.2926
1.29288
1.29316
1.29344
1.29371
1.29398
1.29425
1.29451
1.29477
1.29502
1.29527
1.29551
1.29574
1.29596
1.29618
1.29638
1.29658
1.29676
1.29693
1.2971
1.29725
1.29739
1.29752
1.29764
1.29775
1.29785
1.29793
1.29801
1.29808
1.29814
1.29819
1.29823
1.29826
1.29829
1.29831
1.29832
1.29833
1.29834
1.29834
1.29833
1.29832
1.29831
1.29829
1.29828
1.29826
1.29823
1.29821
1.29818
1.29816
1.29813
1.2981
1.29807
1.29804
1.298
1.29797
1.29794
1.2979
1.29787
1.29783
1.2978
1.29776
1.29772
1.29769
1.29765
1.29761
1.29757
1.29753
1.29749
1.29745
1.29741
1.29737
1.29733
1.29729
1.29725
1.2972
1.29716
1.29712
1.29707
1.29703
1.29699
1.29694
1.2969
1.29686
1.29681
1.29677
1.29673
1.29668
1.29664
1.2966
1.29656
1.29651
1.29647
1.29643
1.29639
1.29635
1.29632
1.29628
1.29624
1.29621
1.29618
1.29615
1.29612
1.29609
1.29606
1.29604
1.29601
1.29599
1.29597
1.29596
1.29594
1.29593
1.29592
1.29592
1.29592
1.29592
1.29592
1.29593
1.29594
1.29595
1.29597
1.29599
1.29602
1.29605
1.29608
1.29612
1.29616
1.29621
1.29626
1.29632
1.29638
1.29645
1.29653
1.29661
1.29669
1.29678
1.29688
1.29699
1.2971
1.29722
1.29734
1.29748
1.29762
1.29776
1.29792
1.29808
1.29825
1.29843
1.29862
1.29881
1.29901
1.29922
1.29944
1.29967
1.29991
1.30015
1.3004
1.30066
1.30093
1.30121
1.3015
1.30179
1.30209
1.30239
1.30271
1.30303
1.30335
1.30369
1.30402
1.30436
1.30471
1.30506
1.30541
1.30577
1.30612
1.30648
1.30683
1.30719
1.30754
1.30789
1.30824
1.30858
1.30892
1.30925
1.30958
1.3099
1.31021
1.31051
1.3108
1.31108
1.31136
1.31162
1.31188
1.31212
1.31235
1.31258
1.31279
1.31299
1.31319
1.31337
1.31355
1.31371
1.31387
1.31402
1.31417
1.3143
1.31443
1.31456
1.31467
1.31478
1.31489
1.31499
1.31509
1.31518
1.31527
1.31535
1.31543
1.3155
1.31558
1.31565
1.31571
1.31577
1.31583
1.31589
1.31594
1.31599
1.31604
1.31609
1.31613
1.31617
1.31621
1.31625
1.31629
1.31632
1.31636
1.31639
1.31643
1.31647
1.31651
1.31655
1.31659
1.31664
1.31669
1.31675
1.31681
1.31688
1.31696
1.31704
1.31714
1.31724
1.31735
1.31748
1.31761
1.31776
1.31792
1.3181
1.3183
1.31851
1.31873
1.31898
1.31925
1.31953
1.31984
1.32016
1.32052
1.32089
1.32129
1.32171
1.32217
1.32265
1.32315
1.32369
1.32426
1.32486
1.3255
1.32617
1.32688
1.32763
1.32841
1.32925
1.33013
1.33105
1.33204
1.33308
1.33418
1.33536
1.33661
1.33795
1.33939
1.34094
1.34262
1.34445
1.34647
1.3487
1.35121
1.35406
1.35736
1.36126
1.366
1.37213
1.38067
1.39268
1.41026
1.44589
1.23886
1.24741
1.26009
1.27119
1.27688
1.27968
1.2814
1.28265
1.28357
1.28426
1.28478
1.28518
1.28551
1.28577
1.28598
1.28615
1.2863
1.28642
1.28652
1.2866
1.28667
1.28672
1.28676
1.28679
1.28681
1.28683
1.28684
1.28684
1.28683
1.28682
1.2868
1.28678
1.28676
1.28673
1.2867
1.28666
1.28663
1.28659
1.28655
1.2865
1.28646
1.28642
1.28637
1.28633
1.28629
1.28624
1.2862
1.28616
1.28612
1.28609
1.28606
1.28603
1.28601
1.28599
1.28597
1.28596
1.28596
1.28596
1.28597
1.28599
1.28601
1.28604
1.28608
1.28612
1.28618
1.28624
1.28631
1.28639
1.28649
1.28658
1.28669
1.28681
1.28694
1.28707
1.28722
1.28738
1.28754
1.28771
1.2879
1.28809
1.28829
1.28849
1.28871
1.28893
1.28916
1.2894
1.28964
1.28989
1.29015
1.29041
1.29068
1.29095
1.29122
1.2915
1.29177
1.29205
1.29233
1.29261
1.29289
1.29317
1.29345
1.29372
1.29399
1.29426
1.29452
1.29478
1.29503
1.29527
1.29551
1.29574
1.29596
1.29617
1.29637
1.29657
1.29675
1.29692
1.29708
1.29723
1.29737
1.2975
1.29762
1.29772
1.29782
1.29791
1.29798
1.29805
1.29811
1.29816
1.2982
1.29823
1.29826
1.29828
1.29829
1.2983
1.29831
1.2983
1.2983
1.29829
1.29828
1.29827
1.29825
1.29823
1.29821
1.29818
1.29816
1.29813
1.2981
1.29808
1.29805
1.29801
1.29798
1.29795
1.29792
1.29788
1.29785
1.29781
1.29778
1.29774
1.29771
1.29767
1.29763
1.29759
1.29756
1.29752
1.29748
1.29744
1.2974
1.29736
1.29732
1.29727
1.29723
1.29719
1.29715
1.29711
1.29706
1.29702
1.29698
1.29693
1.29689
1.29685
1.2968
1.29676
1.29672
1.29667
1.29663
1.29659
1.29655
1.2965
1.29646
1.29642
1.29638
1.29635
1.29631
1.29627
1.29624
1.2962
1.29617
1.29614
1.29611
1.29608
1.29606
1.29603
1.29601
1.29599
1.29597
1.29595
1.29594
1.29593
1.29592
1.29592
1.29592
1.29592
1.29592
1.29593
1.29594
1.29595
1.29597
1.29599
1.29602
1.29605
1.29608
1.29612
1.29617
1.29621
1.29627
1.29633
1.29639
1.29646
1.29653
1.29662
1.2967
1.2968
1.29689
1.297
1.29711
1.29723
1.29736
1.29749
1.29763
1.29778
1.29794
1.2981
1.29827
1.29845
1.29864
1.29883
1.29904
1.29925
1.29947
1.2997
1.29993
1.30018
1.30043
1.30069
1.30096
1.30124
1.30153
1.30182
1.30212
1.30243
1.30274
1.30306
1.30339
1.30372
1.30406
1.3044
1.30474
1.30509
1.30544
1.3058
1.30615
1.30651
1.30686
1.30721
1.30757
1.30792
1.30826
1.3086
1.30894
1.30927
1.30959
1.30991
1.31022
1.31052
1.31081
1.31109
1.31136
1.31162
1.31187
1.31212
1.31235
1.31257
1.31278
1.31298
1.31318
1.31336
1.31354
1.3137
1.31386
1.31401
1.31415
1.31429
1.31442
1.31454
1.31466
1.31477
1.31487
1.31497
1.31507
1.31516
1.31525
1.31533
1.31541
1.31549
1.31556
1.31563
1.31569
1.31576
1.31582
1.31587
1.31592
1.31598
1.31602
1.31607
1.31611
1.31615
1.31619
1.31623
1.31627
1.31631
1.31634
1.31638
1.31642
1.31646
1.3165
1.31654
1.31658
1.31663
1.31669
1.31674
1.31681
1.31688
1.31696
1.31704
1.31714
1.31724
1.31736
1.31749
1.31762
1.31778
1.31794
1.31812
1.31832
1.31853
1.31876
1.31901
1.31928
1.31957
1.31988
1.32021
1.32056
1.32094
1.32135
1.32177
1.32223
1.32271
1.32323
1.32377
1.32434
1.32495
1.32559
1.32627
1.32698
1.32773
1.32853
1.32937
1.33026
1.3312
1.33219
1.33324
1.33436
1.33555
1.33682
1.33818
1.33964
1.34122
1.34294
1.34481
1.34689
1.3492
1.3518
1.35478
1.35825
1.36241
1.36753
1.374
1.38242
1.39472
1.41624
1.45024
1.25975
1.25642
1.26428
1.27092
1.27499
1.27793
1.28005
1.28155
1.28263
1.28344
1.28407
1.28457
1.28497
1.2853
1.28556
1.28578
1.28596
1.28611
1.28624
1.28634
1.28643
1.2865
1.28656
1.2866
1.28664
1.28666
1.28668
1.28669
1.28669
1.28669
1.28668
1.28667
1.28665
1.28663
1.2866
1.28657
1.28654
1.2865
1.28646
1.28643
1.28639
1.28634
1.2863
1.28626
1.28622
1.28618
1.28614
1.28611
1.28607
1.28604
1.28601
1.28598
1.28596
1.28594
1.28593
1.28592
1.28592
1.28593
1.28594
1.28596
1.28598
1.28601
1.28605
1.2861
1.28616
1.28623
1.2863
1.28638
1.28647
1.28658
1.28669
1.28681
1.28694
1.28707
1.28722
1.28738
1.28754
1.28772
1.2879
1.28809
1.28829
1.2885
1.28872
1.28894
1.28918
1.28941
1.28966
1.28991
1.29017
1.29043
1.2907
1.29097
1.29124
1.29151
1.29179
1.29207
1.29235
1.29263
1.29291
1.29319
1.29347
1.29374
1.29401
1.29427
1.29453
1.29479
1.29504
1.29528
1.29552
1.29574
1.29596
1.29617
1.29637
1.29656
1.29675
1.29691
1.29707
1.29722
1.29736
1.29749
1.2976
1.29771
1.2978
1.29789
1.29796
1.29803
1.29808
1.29813
1.29817
1.2982
1.29823
1.29825
1.29826
1.29827
1.29828
1.29828
1.29827
1.29826
1.29825
1.29824
1.29822
1.2982
1.29818
1.29816
1.29813
1.29811
1.29808
1.29805
1.29802
1.29799
1.29796
1.29793
1.29789
1.29786
1.29783
1.29779
1.29776
1.29772
1.29769
1.29765
1.29761
1.29757
1.29754
1.2975
1.29746
1.29742
1.29738
1.29734
1.2973
1.29726
1.29722
1.29717
1.29713
1.29709
1.29705
1.297
1.29696
1.29692
1.29687
1.29683
1.29679
1.29674
1.2967
1.29666
1.29662
1.29657
1.29653
1.29649
1.29645
1.29641
1.29637
1.29633
1.2963
1.29626
1.29623
1.29619
1.29616
1.29613
1.2961
1.29607
1.29605
1.29602
1.296
1.29598
1.29596
1.29595
1.29593
1.29592
1.29592
1.29591
1.29591
1.29591
1.29591
1.29592
1.29593
1.29595
1.29597
1.29599
1.29601
1.29604
1.29608
1.29612
1.29616
1.29621
1.29627
1.29633
1.29639
1.29646
1.29654
1.29662
1.2967
1.2968
1.2969
1.297
1.29712
1.29724
1.29736
1.2975
1.29764
1.29779
1.29794
1.29811
1.29828
1.29846
1.29865
1.29885
1.29905
1.29926
1.29948
1.29971
1.29995
1.3002
1.30045
1.30071
1.30098
1.30126
1.30155
1.30184
1.30214
1.30245
1.30277
1.30309
1.30341
1.30375
1.30408
1.30442
1.30477
1.30512
1.30547
1.30582
1.30618
1.30653
1.30689
1.30724
1.30759
1.30794
1.30829
1.30863
1.30896
1.30929
1.30961
1.30993
1.31023
1.31053
1.31082
1.3111
1.31137
1.31163
1.31188
1.31212
1.31235
1.31257
1.31278
1.31298
1.31317
1.31336
1.31353
1.31369
1.31385
1.314
1.31414
1.31428
1.31441
1.31453
1.31464
1.31475
1.31486
1.31496
1.31506
1.31515
1.31524
1.31532
1.3154
1.31547
1.31555
1.31561
1.31568
1.31574
1.3158
1.31586
1.31591
1.31596
1.31601
1.31605
1.3161
1.31614
1.31618
1.31622
1.31625
1.31629
1.31633
1.31636
1.3164
1.31644
1.31648
1.31652
1.31657
1.31662
1.31667
1.31673
1.3168
1.31687
1.31695
1.31703
1.31713
1.31724
1.31735
1.31748
1.31762
1.31778
1.31794
1.31813
1.31833
1.31854
1.31877
1.31902
1.3193
1.31959
1.3199
1.32023
1.32059
1.32097
1.32138
1.32181
1.32227
1.32275
1.32327
1.32381
1.32439
1.325
1.32565
1.32633
1.32704
1.3278
1.3286
1.32945
1.33034
1.33128
1.33228
1.33334
1.33446
1.33566
1.33694
1.3383
1.33977
1.34137
1.34309
1.34499
1.34707
1.3494
1.35202
1.35502
1.35849
1.36259
1.36755
1.37376
1.3818
1.39189
1.40286
1.4132
1.2676
1.26647
1.26884
1.27165
1.27488
1.2775
1.2794
1.28083
1.28195
1.28282
1.28351
1.28407
1.28451
1.28488
1.28519
1.28544
1.28565
1.28583
1.28598
1.2861
1.28621
1.28629
1.28637
1.28642
1.28647
1.28651
1.28653
1.28655
1.28656
1.28657
1.28656
1.28655
1.28654
1.28652
1.2865
1.28648
1.28645
1.28642
1.28638
1.28635
1.28631
1.28627
1.28623
1.28619
1.28616
1.28612
1.28608
1.28605
1.28601
1.28598
1.28596
1.28593
1.28591
1.2859
1.28589
1.28588
1.28588
1.28589
1.2859
1.28592
1.28595
1.28598
1.28602
1.28607
1.28613
1.2862
1.28628
1.28636
1.28645
1.28656
1.28667
1.28679
1.28692
1.28706
1.28721
1.28737
1.28754
1.28771
1.2879
1.28809
1.28829
1.2885
1.28872
1.28895
1.28918
1.28942
1.28967
1.28992
1.29018
1.29044
1.29071
1.29098
1.29125
1.29153
1.29181
1.29209
1.29237
1.29265
1.29293
1.29321
1.29348
1.29376
1.29403
1.29429
1.29455
1.29481
1.29505
1.2953
1.29553
1.29576
1.29597
1.29618
1.29638
1.29657
1.29675
1.29692
1.29708
1.29722
1.29736
1.29748
1.29759
1.2977
1.29779
1.29787
1.29795
1.29801
1.29806
1.29811
1.29815
1.29818
1.29821
1.29822
1.29824
1.29824
1.29825
1.29825
1.29824
1.29823
1.29822
1.29821
1.29819
1.29817
1.29815
1.29813
1.2981
1.29808
1.29805
1.29802
1.29799
1.29796
1.29793
1.2979
1.29787
1.29783
1.2978
1.29777
1.29773
1.2977
1.29766
1.29762
1.29759
1.29755
1.29751
1.29747
1.29744
1.2974
1.29736
1.29732
1.29728
1.29724
1.2972
1.29715
1.29711
1.29707
1.29703
1.29698
1.29694
1.2969
1.29686
1.29681
1.29677
1.29673
1.29668
1.29664
1.2966
1.29656
1.29652
1.29648
1.29644
1.2964
1.29636
1.29632
1.29628
1.29625
1.29621
1.29618
1.29615
1.29612
1.29609
1.29606
1.29603
1.29601
1.29599
1.29597
1.29595
1.29593
1.29592
1.29591
1.2959
1.2959
1.2959
1.2959
1.2959
1.29591
1.29592
1.29594
1.29595
1.29598
1.296
1.29603
1.29607
1.29611
1.29615
1.2962
1.29626
1.29632
1.29638
1.29645
1.29653
1.29661
1.2967
1.29679
1.29689
1.297
1.29711
1.29723
1.29736
1.29749
1.29764
1.29779
1.29794
1.29811
1.29828
1.29846
1.29865
1.29885
1.29905
1.29927
1.29949
1.29972
1.29996
1.3002
1.30046
1.30072
1.30099
1.30127
1.30156
1.30185
1.30216
1.30246
1.30278
1.3031
1.30343
1.30376
1.3041
1.30445
1.30479
1.30514
1.30549
1.30585
1.3062
1.30656
1.30691
1.30727
1.30762
1.30797
1.30831
1.30865
1.30899
1.30932
1.30964
1.30995
1.31026
1.31055
1.31084
1.31112
1.31139
1.31165
1.3119
1.31213
1.31236
1.31258
1.31279
1.31299
1.31318
1.31336
1.31353
1.31369
1.31385
1.314
1.31414
1.31427
1.3144
1.31452
1.31464
1.31475
1.31485
1.31495
1.31505
1.31514
1.31522
1.31531
1.31539
1.31546
1.31553
1.3156
1.31567
1.31573
1.31579
1.31584
1.31589
1.31594
1.31599
1.31604
1.31608
1.31612
1.31616
1.3162
1.31624
1.31627
1.31631
1.31635
1.31638
1.31642
1.31646
1.3165
1.31655
1.3166
1.31665
1.31671
1.31678
1.31685
1.31693
1.31702
1.31711
1.31722
1.31734
1.31747
1.31761
1.31776
1.31793
1.31811
1.31831
1.31853
1.31876
1.31902
1.31929
1.31958
1.3199
1.32023
1.32059
1.32097
1.32138
1.32181
1.32227
1.32276
1.32328
1.32383
1.32441
1.32502
1.32567
1.32635
1.32707
1.32783
1.32863
1.32948
1.33037
1.33131
1.33231
1.33337
1.33449
1.33569
1.33696
1.33833
1.33979
1.34138
1.34309
1.34497
1.34703
1.34932
1.35189
1.35479
1.35812
1.36199
1.36651
1.37183
1.37799
1.38482
1.39038
1.39052
1.27216
1.27172
1.27226
1.27384
1.27586
1.27766
1.27922
1.28052
1.28157
1.28242
1.28311
1.28368
1.28415
1.28454
1.28487
1.28514
1.28538
1.28557
1.28574
1.28588
1.286
1.2861
1.28619
1.28625
1.28631
1.28636
1.28639
1.28642
1.28643
1.28644
1.28645
1.28644
1.28644
1.28642
1.2864
1.28638
1.28636
1.28633
1.2863
1.28627
1.28623
1.2862
1.28616
1.28612
1.28609
1.28605
1.28602
1.28598
1.28595
1.28592
1.2859
1.28588
1.28586
1.28584
1.28583
1.28583
1.28583
1.28584
1.28585
1.28588
1.2859
1.28594
1.28598
1.28604
1.2861
1.28616
1.28624
1.28633
1.28643
1.28653
1.28664
1.28677
1.2869
1.28704
1.28719
1.28735
1.28752
1.2877
1.28789
1.28808
1.28829
1.2885
1.28872
1.28895
1.28918
1.28942
1.28967
1.28992
1.29018
1.29045
1.29072
1.29099
1.29127
1.29154
1.29182
1.2921
1.29239
1.29267
1.29295
1.29323
1.2935
1.29378
1.29405
1.29431
1.29457
1.29482
1.29507
1.29531
1.29555
1.29577
1.29599
1.2962
1.2964
1.29658
1.29676
1.29693
1.29708
1.29723
1.29736
1.29748
1.2976
1.2977
1.29779
1.29787
1.29794
1.298
1.29805
1.29809
1.29813
1.29816
1.29818
1.2982
1.29821
1.29822
1.29822
1.29822
1.29821
1.2982
1.29819
1.29817
1.29816
1.29814
1.29812
1.29809
1.29807
1.29804
1.29802
1.29799
1.29796
1.29793
1.2979
1.29787
1.29784
1.2978
1.29777
1.29774
1.2977
1.29767
1.29763
1.2976
1.29756
1.29752
1.29749
1.29745
1.29741
1.29737
1.29733
1.29729
1.29725
1.29721
1.29717
1.29713
1.29709
1.29705
1.297
1.29696
1.29692
1.29688
1.29683
1.29679
1.29675
1.29671
1.29666
1.29662
1.29658
1.29654
1.2965
1.29646
1.29642
1.29638
1.29634
1.2963
1.29626
1.29623
1.29619
1.29616
1.29613
1.2961
1.29607
1.29604
1.29601
1.29599
1.29597
1.29595
1.29593
1.29592
1.2959
1.29589
1.29589
1.29588
1.29588
1.29588
1.29588
1.29589
1.2959
1.29592
1.29594
1.29596
1.29599
1.29602
1.29605
1.29609
1.29614
1.29619
1.29624
1.2963
1.29637
1.29644
1.29651
1.29659
1.29668
1.29678
1.29688
1.29698
1.2971
1.29722
1.29735
1.29748
1.29762
1.29777
1.29793
1.2981
1.29827
1.29845
1.29864
1.29884
1.29904
1.29926
1.29948
1.29971
1.29995
1.3002
1.30045
1.30072
1.30099
1.30127
1.30156
1.30186
1.30216
1.30247
1.30279
1.30311
1.30344
1.30378
1.30412
1.30446
1.30481
1.30516
1.30551
1.30587
1.30623
1.30658
1.30694
1.30729
1.30765
1.30799
1.30834
1.30868
1.30902
1.30934
1.30967
1.30998
1.31029
1.31058
1.31087
1.31115
1.31141
1.31167
1.31192
1.31216
1.31238
1.3126
1.31281
1.313
1.31319
1.31337
1.31354
1.3137
1.31385
1.314
1.31414
1.31427
1.3144
1.31452
1.31463
1.31474
1.31484
1.31494
1.31504
1.31513
1.31521
1.3153
1.31538
1.31545
1.31552
1.31559
1.31565
1.31572
1.31577
1.31583
1.31588
1.31593
1.31598
1.31602
1.31607
1.31611
1.31614
1.31618
1.31622
1.31625
1.31629
1.31633
1.31636
1.3164
1.31644
1.31648
1.31653
1.31658
1.31663
1.31669
1.31675
1.31682
1.3169
1.31699
1.31709
1.31719
1.31731
1.31744
1.31758
1.31773
1.3179
1.31809
1.31829
1.3185
1.31874
1.31899
1.31927
1.31956
1.31987
1.32021
1.32057
1.32095
1.32136
1.32179
1.32226
1.32275
1.32326
1.32381
1.32439
1.325
1.32565
1.32633
1.32705
1.32781
1.32861
1.32946
1.33035
1.33129
1.33228
1.33333
1.33445
1.33564
1.3369
1.33825
1.3397
1.34125
1.34294
1.34477
1.34677
1.34898
1.35143
1.35416
1.35723
1.36069
1.36458
1.36886
1.37326
1.37721
1.37991
1.37919
1.27545
1.27488
1.27499
1.27586
1.277
1.27825
1.27946
1.28052
1.28143
1.2822
1.28286
1.28341
1.28388
1.28427
1.28461
1.2849
1.28514
1.28535
1.28553
1.28568
1.28581
1.28592
1.28602
1.2861
1.28616
1.28621
1.28626
1.28629
1.28631
1.28633
1.28634
1.28634
1.28633
1.28632
1.28631
1.28629
1.28627
1.28624
1.28622
1.28619
1.28615
1.28612
1.28609
1.28605
1.28602
1.28598
1.28595
1.28592
1.28589
1.28586
1.28584
1.28582
1.2858
1.28579
1.28578
1.28578
1.28578
1.28579
1.2858
1.28582
1.28585
1.28589
1.28594
1.28599
1.28605
1.28612
1.2862
1.28629
1.28639
1.28649
1.28661
1.28673
1.28687
1.28701
1.28717
1.28733
1.2875
1.28768
1.28787
1.28806
1.28827
1.28848
1.28871
1.28893
1.28917
1.28941
1.28967
1.28992
1.29018
1.29045
1.29072
1.29099
1.29127
1.29155
1.29183
1.29212
1.2924
1.29268
1.29296
1.29324
1.29352
1.2938
1.29407
1.29433
1.29459
1.29485
1.2951
1.29534
1.29557
1.2958
1.29601
1.29622
1.29642
1.2966
1.29678
1.29695
1.2971
1.29724
1.29737
1.29749
1.2976
1.2977
1.29779
1.29786
1.29793
1.29799
1.29804
1.29808
1.29812
1.29814
1.29816
1.29818
1.29819
1.29819
1.29819
1.29819
1.29818
1.29817
1.29816
1.29814
1.29812
1.2981
1.29808
1.29806
1.29803
1.29801
1.29798
1.29795
1.29792
1.29789
1.29786
1.29783
1.2978
1.29777
1.29774
1.2977
1.29767
1.29763
1.2976
1.29756
1.29753
1.29749
1.29746
1.29742
1.29738
1.29734
1.2973
1.29726
1.29722
1.29718
1.29714
1.2971
1.29706
1.29702
1.29698
1.29694
1.29689
1.29685
1.29681
1.29677
1.29672
1.29668
1.29664
1.2966
1.29656
1.29651
1.29647
1.29643
1.29639
1.29635
1.29632
1.29628
1.29624
1.29621
1.29617
1.29614
1.29611
1.29607
1.29605
1.29602
1.29599
1.29597
1.29595
1.29593
1.29591
1.29589
1.29588
1.29587
1.29586
1.29586
1.29586
1.29586
1.29586
1.29587
1.29588
1.2959
1.29591
1.29594
1.29596
1.29599
1.29603
1.29607
1.29611
1.29616
1.29622
1.29628
1.29634
1.29641
1.29649
1.29657
1.29666
1.29675
1.29685
1.29696
1.29707
1.29719
1.29732
1.29746
1.2976
1.29775
1.29791
1.29807
1.29825
1.29843
1.29862
1.29882
1.29902
1.29924
1.29946
1.29969
1.29993
1.30018
1.30044
1.30071
1.30098
1.30126
1.30155
1.30185
1.30215
1.30247
1.30278
1.30311
1.30344
1.30378
1.30412
1.30447
1.30482
1.30517
1.30553
1.30588
1.30624
1.3066
1.30696
1.30732
1.30767
1.30802
1.30837
1.30871
1.30905
1.30938
1.3097
1.31001
1.31032
1.31062
1.3109
1.31118
1.31145
1.3117
1.31195
1.31218
1.31241
1.31262
1.31283
1.31302
1.31321
1.31338
1.31355
1.31371
1.31386
1.31401
1.31415
1.31428
1.3144
1.31452
1.31463
1.31474
1.31484
1.31494
1.31503
1.31512
1.31521
1.31529
1.31537
1.31544
1.31551
1.31558
1.31564
1.31571
1.31576
1.31582
1.31587
1.31592
1.31597
1.31601
1.31605
1.31609
1.31613
1.31616
1.3162
1.31623
1.31627
1.3163
1.31634
1.31638
1.31641
1.31645
1.3165
1.31655
1.3166
1.31666
1.31672
1.31679
1.31687
1.31695
1.31705
1.31716
1.31727
1.3174
1.31754
1.31769
1.31786
1.31805
1.31825
1.31846
1.3187
1.31895
1.31922
1.31951
1.31983
1.32016
1.32052
1.32091
1.32132
1.32175
1.32221
1.3227
1.32322
1.32376
1.32434
1.32495
1.3256
1.32628
1.327
1.32775
1.32855
1.32939
1.33027
1.33121
1.33219
1.33323
1.33434
1.33551
1.33675
1.33807
1.33949
1.341
1.34264
1.3444
1.34631
1.3484
1.35069
1.35319
1.35594
1.35893
1.36212
1.36539
1.36847
1.37085
1.37206
1.37177
1.2777
1.27707
1.27704
1.27747
1.27816
1.27901
1.27989
1.28072
1.28148
1.28215
1.28274
1.28326
1.2837
1.28408
1.28441
1.2847
1.28495
1.28516
1.28535
1.28551
1.28565
1.28577
1.28587
1.28595
1.28602
1.28608
1.28613
1.28617
1.2862
1.28621
1.28623
1.28623
1.28623
1.28623
1.28622
1.2862
1.28618
1.28616
1.28613
1.2861
1.28608
1.28604
1.28601
1.28598
1.28594
1.28591
1.28588
1.28585
1.28582
1.28579
1.28577
1.28575
1.28574
1.28572
1.28572
1.28571
1.28572
1.28573
1.28574
1.28577
1.2858
1.28584
1.28588
1.28594
1.286
1.28607
1.28615
1.28624
1.28634
1.28645
1.28657
1.28669
1.28683
1.28698
1.28713
1.28729
1.28747
1.28765
1.28784
1.28804
1.28825
1.28846
1.28869
1.28892
1.28916
1.2894
1.28965
1.28991
1.29018
1.29045
1.29072
1.291
1.29128
1.29156
1.29184
1.29213
1.29241
1.2927
1.29298
1.29326
1.29354
1.29382
1.29409
1.29435
1.29462
1.29487
1.29512
1.29536
1.2956
1.29582
1.29604
1.29625
1.29644
1.29663
1.29681
1.29697
1.29712
1.29726
1.29739
1.29751
1.29761
1.29771
1.29779
1.29787
1.29793
1.29799
1.29803
1.29807
1.2981
1.29813
1.29815
1.29816
1.29817
1.29817
1.29817
1.29816
1.29815
1.29814
1.29813
1.29811
1.29809
1.29807
1.29805
1.29802
1.298
1.29797
1.29794
1.29792
1.29789
1.29786
1.29783
1.2978
1.29776
1.29773
1.2977
1.29767
1.29763
1.2976
1.29756
1.29753
1.29749
1.29746
1.29742
1.29738
1.29735
1.29731
1.29727
1.29723
1.29719
1.29715
1.29711
1.29707
1.29703
1.29699
1.29695
1.29691
1.29686
1.29682
1.29678
1.29674
1.2967
1.29665
1.29661
1.29657
1.29653
1.29649
1.29645
1.29641
1.29637
1.29633
1.29629
1.29625
1.29622
1.29618
1.29615
1.29611
1.29608
1.29605
1.29602
1.29599
1.29597
1.29594
1.29592
1.2959
1.29588
1.29587
1.29585
1.29584
1.29584
1.29583
1.29583
1.29583
1.29583
1.29584
1.29585
1.29587
1.29589
1.29591
1.29593
1.29596
1.296
1.29604
1.29608
1.29613
1.29619
1.29625
1.29631
1.29638
1.29646
1.29654
1.29663
1.29672
1.29682
1.29693
1.29704
1.29716
1.29729
1.29743
1.29757
1.29772
1.29788
1.29804
1.29822
1.2984
1.29859
1.29879
1.29899
1.29921
1.29943
1.29967
1.29991
1.30016
1.30042
1.30068
1.30096
1.30124
1.30153
1.30183
1.30214
1.30245
1.30277
1.3031
1.30343
1.30377
1.30412
1.30447
1.30482
1.30517
1.30553
1.30589
1.30626
1.30662
1.30698
1.30734
1.3077
1.30805
1.3084
1.30874
1.30908
1.30941
1.30974
1.31005
1.31036
1.31065
1.31094
1.31122
1.31148
1.31174
1.31198
1.31222
1.31244
1.31265
1.31286
1.31305
1.31323
1.31341
1.31357
1.31373
1.31388
1.31402
1.31416
1.31428
1.31441
1.31452
1.31463
1.31474
1.31484
1.31494
1.31503
1.31512
1.3152
1.31528
1.31536
1.31544
1.31551
1.31557
1.31564
1.3157
1.31575
1.31581
1.31586
1.31591
1.31595
1.316
1.31604
1.31608
1.31611
1.31615
1.31618
1.31621
1.31625
1.31628
1.31631
1.31635
1.31639
1.31642
1.31647
1.31651
1.31656
1.31662
1.31668
1.31675
1.31683
1.31691
1.317
1.31711
1.31722
1.31735
1.31749
1.31764
1.31781
1.31799
1.31819
1.3184
1.31864
1.31889
1.31916
1.31945
1.31977
1.3201
1.32046
1.32084
1.32125
1.32168
1.32214
1.32263
1.32314
1.32369
1.32426
1.32487
1.32551
1.32619
1.3269
1.32765
1.32844
1.32927
1.33015
1.33107
1.33204
1.33307
1.33415
1.3353
1.33651
1.3378
1.33917
1.34064
1.3422
1.34388
1.34568
1.34763
1.34972
1.35198
1.35438
1.3569
1.35946
1.36191
1.36404
1.36555
1.36614
1.36589
1.27924
1.27871
1.27859
1.27877
1.2792
1.27977
1.2804
1.28104
1.28165
1.28222
1.28273
1.28319
1.2836
1.28396
1.28428
1.28456
1.2848
1.28501
1.2852
1.28536
1.2855
1.28563
1.28573
1.28582
1.2859
1.28596
1.28601
1.28605
1.28609
1.28611
1.28613
1.28613
1.28614
1.28613
1.28613
1.28611
1.2861
1.28608
1.28605
1.28603
1.286
1.28597
1.28594
1.2859
1.28587
1.28584
1.28581
1.28578
1.28575
1.28573
1.28571
1.28569
1.28567
1.28566
1.28565
1.28565
1.28566
1.28567
1.28568
1.28571
1.28574
1.28578
1.28583
1.28588
1.28594
1.28602
1.2861
1.28619
1.28629
1.2864
1.28652
1.28665
1.28679
1.28693
1.28709
1.28725
1.28743
1.28761
1.28781
1.28801
1.28822
1.28843
1.28866
1.28889
1.28913
1.28938
1.28964
1.2899
1.29017
1.29044
1.29071
1.29099
1.29128
1.29156
1.29185
1.29213
1.29242
1.29271
1.293
1.29328
1.29356
1.29384
1.29411
1.29438
1.29464
1.2949
1.29515
1.29539
1.29563
1.29585
1.29607
1.29628
1.29648
1.29666
1.29684
1.297
1.29715
1.29729
1.29741
1.29753
1.29763
1.29772
1.29781
1.29788
1.29794
1.29799
1.29803
1.29807
1.2981
1.29812
1.29813
1.29814
1.29815
1.29815
1.29814
1.29813
1.29812
1.29811
1.29809
1.29807
1.29805
1.29803
1.29801
1.29798
1.29796
1.29793
1.2979
1.29788
1.29785
1.29782
1.29779
1.29776
1.29772
1.29769
1.29766
1.29763
1.29759
1.29756
1.29753
1.29749
1.29746
1.29742
1.29738
1.29735
1.29731
1.29727
1.29723
1.2972
1.29716
1.29712
1.29708
1.29704
1.297
1.29696
1.29692
1.29687
1.29683
1.29679
1.29675
1.29671
1.29667
1.29662
1.29658
1.29654
1.2965
1.29646
1.29642
1.29638
1.29634
1.2963
1.29626
1.29622
1.29619
1.29615
1.29612
1.29608
1.29605
1.29602
1.29599
1.29596
1.29594
1.29591
1.29589
1.29587
1.29585
1.29584
1.29582
1.29581
1.29581
1.2958
1.2958
1.2958
1.2958
1.29581
1.29582
1.29583
1.29585
1.29587
1.2959
1.29593
1.29596
1.296
1.29605
1.2961
1.29615
1.29621
1.29627
1.29634
1.29642
1.2965
1.29659
1.29668
1.29678
1.29689
1.297
1.29712
1.29725
1.29738
1.29753
1.29768
1.29783
1.298
1.29817
1.29836
1.29855
1.29875
1.29895
1.29917
1.29939
1.29963
1.29987
1.30012
1.30038
1.30065
1.30092
1.30121
1.3015
1.3018
1.30211
1.30243
1.30275
1.30308
1.30342
1.30376
1.3041
1.30446
1.30481
1.30517
1.30553
1.3059
1.30626
1.30663
1.30699
1.30736
1.30772
1.30807
1.30843
1.30877
1.30911
1.30945
1.30977
1.31009
1.3104
1.3107
1.31098
1.31126
1.31153
1.31178
1.31202
1.31226
1.31248
1.31269
1.31289
1.31308
1.31326
1.31343
1.3136
1.31375
1.3139
1.31404
1.31417
1.3143
1.31442
1.31453
1.31464
1.31475
1.31484
1.31494
1.31503
1.31512
1.3152
1.31528
1.31536
1.31543
1.3155
1.31557
1.31563
1.31569
1.31575
1.3158
1.31585
1.3159
1.31594
1.31598
1.31602
1.31606
1.3161
1.31613
1.31616
1.31619
1.31623
1.31626
1.31629
1.31632
1.31636
1.31639
1.31643
1.31648
1.31652
1.31658
1.31664
1.3167
1.31678
1.31686
1.31695
1.31705
1.31717
1.31729
1.31743
1.31758
1.31774
1.31792
1.31812
1.31833
1.31856
1.31881
1.31908
1.31937
1.31968
1.32002
1.32037
1.32075
1.32116
1.32159
1.32204
1.32253
1.32304
1.32358
1.32415
1.32476
1.32539
1.32606
1.32677
1.32751
1.32829
1.32911
1.32998
1.33088
1.33184
1.33284
1.3339
1.33502
1.3362
1.33744
1.33876
1.34016
1.34165
1.34323
1.34491
1.3467
1.34859
1.35059
1.35265
1.35474
1.35678
1.35862
1.36011
1.36109
1.36142
1.36107
1.28037
1.27993
1.27976
1.27983
1.28008
1.28046
1.28092
1.2814
1.28189
1.28236
1.2828
1.2832
1.28357
1.2839
1.28419
1.28446
1.28469
1.2849
1.28508
1.28524
1.28538
1.28551
1.28561
1.2857
1.28578
1.28585
1.2859
1.28595
1.28598
1.28601
1.28603
1.28604
1.28604
1.28604
1.28604
1.28603
1.28601
1.28599
1.28597
1.28595
1.28592
1.28589
1.28586
1.28583
1.2858
1.28577
1.28574
1.28571
1.28568
1.28566
1.28564
1.28562
1.2856
1.28559
1.28558
1.28558
1.28559
1.2856
1.28562
1.28564
1.28567
1.28571
1.28576
1.28582
1.28588
1.28596
1.28604
1.28613
1.28623
1.28634
1.28647
1.2866
1.28674
1.28688
1.28704
1.28721
1.28739
1.28757
1.28777
1.28797
1.28818
1.2884
1.28863
1.28886
1.28911
1.28936
1.28962
1.28988
1.29015
1.29042
1.2907
1.29099
1.29127
1.29156
1.29185
1.29214
1.29243
1.29272
1.29301
1.29329
1.29358
1.29386
1.29413
1.2944
1.29467
1.29493
1.29518
1.29542
1.29566
1.29589
1.29611
1.29631
1.29651
1.29669
1.29687
1.29703
1.29718
1.29732
1.29744
1.29755
1.29765
1.29774
1.29782
1.29789
1.29794
1.29799
1.29803
1.29806
1.29809
1.2981
1.29812
1.29812
1.29812
1.29812
1.29811
1.2981
1.29809
1.29808
1.29806
1.29804
1.29802
1.29799
1.29797
1.29794
1.29792
1.29789
1.29786
1.29783
1.2978
1.29777
1.29774
1.29771
1.29768
1.29765
1.29762
1.29758
1.29755
1.29752
1.29748
1.29745
1.29741
1.29738
1.29734
1.29731
1.29727
1.29723
1.29719
1.29716
1.29712
1.29708
1.29704
1.297
1.29696
1.29692
1.29688
1.29684
1.2968
1.29676
1.29671
1.29667
1.29663
1.29659
1.29655
1.29651
1.29647
1.29642
1.29638
1.29634
1.2963
1.29627
1.29623
1.29619
1.29615
1.29612
1.29608
1.29605
1.29602
1.29599
1.29596
1.29593
1.2959
1.29588
1.29586
1.29584
1.29582
1.2958
1.29579
1.29578
1.29577
1.29576
1.29576
1.29576
1.29576
1.29577
1.29578
1.29579
1.29581
1.29583
1.29586
1.29589
1.29592
1.29596
1.296
1.29605
1.29611
1.29616
1.29623
1.2963
1.29637
1.29645
1.29654
1.29663
1.29673
1.29684
1.29695
1.29707
1.2972
1.29733
1.29748
1.29763
1.29778
1.29795
1.29812
1.29831
1.2985
1.2987
1.2989
1.29912
1.29935
1.29958
1.29982
1.30007
1.30033
1.3006
1.30088
1.30117
1.30146
1.30176
1.30208
1.30239
1.30272
1.30305
1.30339
1.30373
1.30409
1.30444
1.3048
1.30516
1.30553
1.3059
1.30627
1.30664
1.30701
1.30737
1.30774
1.3081
1.30845
1.30881
1.30915
1.30949
1.30982
1.31013
1.31044
1.31074
1.31103
1.31131
1.31157
1.31183
1.31207
1.3123
1.31252
1.31273
1.31293
1.31312
1.31329
1.31346
1.31362
1.31378
1.31392
1.31406
1.31419
1.31431
1.31443
1.31454
1.31465
1.31475
1.31485
1.31494
1.31503
1.31512
1.3152
1.31528
1.31536
1.31543
1.3155
1.31556
1.31562
1.31568
1.31574
1.31579
1.31584
1.31589
1.31593
1.31597
1.31601
1.31605
1.31608
1.31611
1.31614
1.31617
1.3162
1.31623
1.31626
1.31629
1.31632
1.31636
1.31639
1.31644
1.31648
1.31653
1.31659
1.31665
1.31672
1.3168
1.31689
1.31699
1.3171
1.31722
1.31736
1.31751
1.31767
1.31785
1.31804
1.31825
1.31848
1.31872
1.31899
1.31928
1.31959
1.31992
1.32027
1.32064
1.32105
1.32147
1.32192
1.3224
1.32291
1.32345
1.32402
1.32461
1.32524
1.3259
1.3266
1.32733
1.3281
1.32891
1.32976
1.33065
1.33158
1.33256
1.33359
1.33467
1.33581
1.33701
1.33827
1.3396
1.341
1.34248
1.34403
1.34566
1.34735
1.34909
1.35086
1.35258
1.35419
1.35558
1.35665
1.3573
1.35747
1.35709
1.28123
1.28086
1.28068
1.28068
1.28083
1.28108
1.28141
1.28178
1.28216
1.28254
1.28291
1.28326
1.28359
1.28388
1.28415
1.2844
1.28462
1.28481
1.28499
1.28514
1.28528
1.2854
1.28551
1.2856
1.28568
1.28575
1.2858
1.28585
1.28589
1.28592
1.28594
1.28595
1.28596
1.28596
1.28595
1.28595
1.28593
1.28591
1.28589
1.28587
1.28585
1.28582
1.28579
1.28576
1.28573
1.2857
1.28567
1.28564
1.28561
1.28559
1.28557
1.28555
1.28553
1.28552
1.28552
1.28552
1.28552
1.28553
1.28555
1.28558
1.28561
1.28565
1.2857
1.28575
1.28582
1.28589
1.28598
1.28607
1.28617
1.28629
1.28641
1.28654
1.28668
1.28683
1.28699
1.28716
1.28734
1.28752
1.28772
1.28792
1.28814
1.28836
1.28859
1.28883
1.28907
1.28933
1.28959
1.28985
1.29013
1.2904
1.29069
1.29097
1.29126
1.29155
1.29185
1.29214
1.29244
1.29273
1.29302
1.29331
1.29359
1.29388
1.29415
1.29443
1.29469
1.29495
1.29521
1.29545
1.29569
1.29592
1.29614
1.29635
1.29655
1.29673
1.2969
1.29707
1.29721
1.29735
1.29747
1.29758
1.29768
1.29776
1.29784
1.2979
1.29795
1.298
1.29803
1.29806
1.29808
1.29809
1.2981
1.2981
1.2981
1.2981
1.29809
1.29808
1.29806
1.29804
1.29802
1.298
1.29798
1.29795
1.29793
1.2979
1.29787
1.29785
1.29782
1.29779
1.29776
1.29773
1.2977
1.29767
1.29764
1.2976
1.29757
1.29754
1.29751
1.29747
1.29744
1.2974
1.29737
1.29733
1.2973
1.29726
1.29723
1.29719
1.29715
1.29712
1.29708
1.29704
1.297
1.29696
1.29692
1.29688
1.29684
1.2968
1.29676
1.29672
1.29668
1.29664
1.29659