# vtk DataFile Version 2.0
LBE mesh
ASCII
DATASET STRUCTURED_POINTS
DIMENSIONS 400 100 1
ASPECT_RATIO 1 1 1
ORIGIN 0 0 0
POINT_DATA 40000
SCALARS rho double 1
LOOKUP_TABLE default
0.947618
0.978986
0.988911
0.992747
0.995055
0.996589
0.997585
0.998236
0.998681
0.998996
0.999223
0.999385
0.999501
0.999583
0.99964
0.999678
0.999701
0.999714
0.999718
0.999717
0.999711
0.999701
0.99969
0.999678
0.999665
0.999653
0.999642
0.999632
0.999626
0.999622
0.999622
0.999626
0.999635
0.99965
0.999672
0.9997
0.999736
0.999779
0.999831
0.999892
0.999962
1.00004
1.00013
1.00023
1.00034
1.00046
1.00059
1.00073
1.00088
1.00104
1.00121
1.00138
1.00157
1.00177
1.00198
1.00219
1.00242
1.00265
1.0029
1.00315
1.0034
1.00367
1.00394
1.00422
1.00451
1.0048
1.0051
1.00541
1.00572
1.00603
1.00635
1.00667
1.00699
1.00732
1.00764
1.00797
1.0083
1.00863
1.00896
1.00928
1.00961
1.00994
1.01027
1.01059
1.01092
1.01125
1.01158
1.0119
1.01223
1.01256
1.0129
1.01323
1.01357
1.01391
1.01425
1.01459
1.01494
1.01529
1.01564
1.016
1.01635
1.01671
1.01706
1.01741
1.01776
1.01811
1.01845
1.01878
1.0191
1.01942
1.01972
1.02001
1.02029
1.02055
1.0208
1.02103
1.02124
1.02144
1.02162
1.02178
1.02193
1.02206
1.02218
1.02228
1.02237
1.02245
1.02252
1.02258
1.02264
1.02269
1.02274
1.02279
1.02284
1.02289
1.02294
1.023
1.02306
1.02313
1.0232
1.02328
1.02337
1.02347
1.02358
1.02369
1.02382
1.02395
1.02409
1.02423
1.02439
1.02455
1.02472
1.0249
1.02508
1.02527
1.02546
1.02566
1.02587
1.02608
1.0263
1.02653
1.02676
1.02699
1.02723
1.02748
1.02773
1.02798
1.02824
1.0285
1.02877
1.02904
1.02931
1.02958
1.02986
1.03014
1.03042
1.0307
1.03098
1.03126
1.03154
1.03181
1.03209
1.03237
1.03264
1.03291
1.03318
1.03345
1.03372
1.03398
1.03424
1.0345
1.03476
1.03502
1.03527
1.03553
1.03578
1.03603
1.03628
1.03653
1.03678
1.03703
1.03728
1.03753
1.03778
1.03803
1.03827
1.03852
1.03877
1.03902
1.03927
1.03951
1.03976
1.04001
1.04025
1.04049
1.04074
1.04098
1.04122
1.04146
1.0417
1.04194
1.04218
1.04242
1.04266
1.0429
1.04314
1.04338
1.04363
1.04387
1.04412
1.04437
1.04463
1.04489
1.04515
1.04541
1.04568
1.04595
1.04623
1.0465
1.04678
1.04706
1.04734
1.04762
1.0479
1.04818
1.04846
1.04873
1.04901
1.04928
1.04954
1.04981
1.05006
1.05032
1.05057
1.05082
1.05106
1.05131
1.05155
1.05179
1.05203
1.05227
1.05252
1.05277
1.05303
1.05329
1.05357
1.05385
1.05414
1.05444
1.05475
1.05508
1.05541
1.05576
1.05612
1.0565
1.05689
1.05729
1.0577
1.05812
1.05855
1.059
1.05945
1.05991
1.06038
1.06086
1.06134
1.06183
1.06232
1.06281
1.06331
1.0638
1.0643
1.06479
1.06528
1.06577
1.06624
1.06672
1.06718
1.06763
1.06807
1.0685
1.06891
1.0693
1.06968
1.07004
1.07038
1.07069
1.07098
1.07125
1.07149
1.07171
1.0719
1.07207
1.0722
1.07231
1.07239
1.07245
1.07248
1.07248
1.07246
1.07242
1.07236
1.07227
1.07217
1.07206
1.07193
1.07179
1.07165
1.0715
1.07134
1.07119
1.07104
1.0709
1.07076
1.07063
1.07052
1.07042
1.07034
1.07027
1.07022
1.07019
1.07018
1.07019
1.07022
1.07026
1.07033
1.07042
1.07052
1.07064
1.07077
1.07092
1.07109
1.07127
1.07145
1.07165
1.07186
1.07208
1.0723
1.07254
1.07277
1.07302
1.07327
1.07353
1.07379
1.07406
1.07434
1.07462
1.07491
1.07521
1.07553
1.07585
1.0762
1.07656
1.07695
1.07735
1.07779
1.07826
1.07877
1.07932
1.07993
1.08058
1.0813
1.08208
1.08294
1.08389
1.08494
1.0861
1.08737
1.0888
1.09038
1.09216
1.09417
1.09647
1.09913
1.10228
1.10608
1.11097
1.11795
1.1279
1.13975
1.15805
0.960823
0.974795
0.984346
0.99009
0.993236
0.995123
0.996378
0.997253
0.997876
0.998323
0.998651
0.998892
0.999074
0.999208
0.99931
0.999384
0.999439
0.999478
0.999506
0.999524
0.999536
0.999542
0.999546
0.999545
0.999545
0.999542
0.999541
0.99954
0.999542
0.999545
0.999552
0.999562
0.999578
0.999598
0.999625
0.999657
0.999698
0.999745
0.999801
0.999865
0.999939
1.00002
1.00011
1.00021
1.00033
1.00045
1.00058
1.00072
1.00087
1.00103
1.0012
1.00138
1.00157
1.00177
1.00198
1.00219
1.00242
1.00265
1.0029
1.00315
1.00341
1.00367
1.00395
1.00423
1.00451
1.00481
1.00511
1.00541
1.00572
1.00603
1.00635
1.00667
1.00699
1.00731
1.00764
1.00797
1.00829
1.00862
1.00895
1.00928
1.00961
1.00993
1.01026
1.01059
1.01091
1.01124
1.01157
1.0119
1.01223
1.01256
1.01289
1.01322
1.01356
1.0139
1.01424
1.01459
1.01494
1.01529
1.01564
1.01599
1.01635
1.0167
1.01705
1.0174
1.01775
1.01809
1.01843
1.01876
1.01909
1.0194
1.0197
1.01999
1.02026
1.02052
1.02077
1.021
1.02121
1.02141
1.02159
1.02175
1.0219
1.02203
1.02215
1.02225
1.02234
1.02243
1.0225
1.02256
1.02262
1.02268
1.02273
1.02278
1.02283
1.02288
1.02294
1.02299
1.02306
1.02313
1.0232
1.02329
1.02338
1.02348
1.02358
1.0237
1.02382
1.02395
1.02409
1.02424
1.0244
1.02456
1.02473
1.0249
1.02509
1.02528
1.02547
1.02567
1.02588
1.02609
1.02631
1.02654
1.02677
1.027
1.02724
1.02748
1.02773
1.02799
1.02824
1.02851
1.02877
1.02904
1.02931
1.02959
1.02986
1.03014
1.03042
1.0307
1.03098
1.03126
1.03154
1.03182
1.03209
1.03237
1.03264
1.03292
1.03319
1.03345
1.03372
1.03398
1.03425
1.0345
1.03476
1.03502
1.03527
1.03553
1.03578
1.03603
1.03628
1.03653
1.03678
1.03703
1.03728
1.03753
1.03778
1.03803
1.03828
1.03852
1.03877
1.03902
1.03927
1.03951
1.03976
1.04
1.04025
1.04049
1.04073
1.04097
1.04121
1.04145
1.04169
1.04193
1.04217
1.04241
1.04265
1.04289
1.04313
1.04337
1.04362
1.04387
1.04411
1.04437
1.04462
1.04488
1.04514
1.0454
1.04567
1.04594
1.04621
1.04649
1.04676
1.04704
1.04732
1.0476
1.04788
1.04816
1.04844
1.04871
1.04899
1.04925
1.04952
1.04978
1.05004
1.0503
1.05055
1.0508
1.05104
1.05129
1.05153
1.05177
1.05202
1.05226
1.05251
1.05277
1.05303
1.05329
1.05357
1.05385
1.05414
1.05444
1.05476
1.05509
1.05542
1.05577
1.05614
1.05651
1.0569
1.0573
1.05771
1.05813
1.05857
1.05901
1.05946
1.05992
1.06039
1.06087
1.06135
1.06183
1.06232
1.06282
1.06331
1.0638
1.0643
1.06479
1.06527
1.06576
1.06623
1.0667
1.06716
1.06761
1.06805
1.06847
1.06888
1.06928
1.06965
1.07001
1.07034
1.07066
1.07095
1.07121
1.07145
1.07167
1.07186
1.07202
1.07216
1.07227
1.07235
1.0724
1.07243
1.07244
1.07242
1.07238
1.07231
1.07223
1.07214
1.07202
1.0719
1.07176
1.07162
1.07147
1.07132
1.07117
1.07103
1.07089
1.07075
1.07063
1.07052
1.07042
1.07034
1.07027
1.07023
1.0702
1.07019
1.0702
1.07023
1.07027
1.07034
1.07042
1.07053
1.07065
1.07078
1.07093
1.07109
1.07127
1.07145
1.07165
1.07186
1.07208
1.0723
1.07253
1.07277
1.07301
1.07327
1.07352
1.07379
1.07405
1.07433
1.07462
1.07491
1.07522
1.07553
1.07586
1.07621
1.07658
1.07697
1.07739
1.07783
1.07831
1.07883
1.07939
1.08001
1.08068
1.08141
1.08221
1.08309
1.08406
1.08513
1.08632
1.08763
1.08909
1.09073
1.09257
1.09466
1.09706
1.09986
1.1032
1.10733
1.11252
1.11911
1.12839
1.14541
1.17393
0.977109
0.979936
0.985175
0.989315
0.992134
0.994114
0.995507
0.996498
0.997218
0.997751
0.998152
0.998456
0.998689
0.998866
0.999004
0.99911
0.999192
0.999254
0.999303
0.999339
0.999367
0.999388
0.999404
0.999416
0.999426
0.999433
0.999441
0.999448
0.999458
0.999468
0.999482
0.999499
0.99952
0.999546
0.999578
0.999615
0.999659
0.99971
0.99977
0.999837
0.999913
0.999997
1.00009
1.00019
1.00031
1.00043
1.00056
1.0007
1.00085
1.00101
1.00119
1.00136
1.00155
1.00175
1.00196
1.00218
1.0024
1.00264
1.00288
1.00313
1.00339
1.00365
1.00393
1.00421
1.00449
1.00479
1.00508
1.00539
1.0057
1.00601
1.00632
1.00664
1.00696
1.00729
1.00761
1.00794
1.00827
1.00859
1.00892
1.00925
1.00958
1.0099
1.01023
1.01056
1.01089
1.01122
1.01155
1.01188
1.01221
1.01254
1.01288
1.01321
1.01355
1.01389
1.01424
1.01458
1.01493
1.01529
1.01564
1.01599
1.01635
1.0167
1.01705
1.0174
1.01775
1.01809
1.01843
1.01876
1.01908
1.01939
1.01969
1.01998
1.02025
1.02051
1.02075
1.02098
1.02119
1.02139
1.02157
1.02173
1.02188
1.02201
1.02213
1.02223
1.02233
1.02241
1.02248
1.02255
1.02261
1.02267
1.02272
1.02277
1.02283
1.02288
1.02293
1.02299
1.02306
1.02313
1.02321
1.02329
1.02338
1.02348
1.02359
1.0237
1.02383
1.02396
1.0241
1.02425
1.0244
1.02457
1.02474
1.02491
1.0251
1.02528
1.02548
1.02568
1.02589
1.0261
1.02632
1.02654
1.02677
1.02701
1.02725
1.02749
1.02774
1.02799
1.02825
1.02851
1.02878
1.02904
1.02932
1.02959
1.02986
1.03014
1.03042
1.0307
1.03098
1.03126
1.03154
1.03182
1.03209
1.03237
1.03264
1.03292
1.03319
1.03345
1.03372
1.03399
1.03425
1.03451
1.03477
1.03502
1.03528
1.03553
1.03578
1.03604
1.03629
1.03654
1.03679
1.03704
1.03729
1.03753
1.03778
1.03803
1.03828
1.03853
1.03877
1.03902
1.03926
1.03951
1.03975
1.04
1.04024
1.04048
1.04073
1.04097
1.04121
1.04144
1.04168
1.04192
1.04216
1.0424
1.04264
1.04288
1.04312
1.04336
1.0436
1.04385
1.0441
1.04435
1.0446
1.04486
1.04512
1.04538
1.04565
1.04591
1.04619
1.04646
1.04674
1.04701
1.04729
1.04757
1.04785
1.04813
1.0484
1.04868
1.04895
1.04922
1.04948
1.04975
1.05
1.05026
1.05051
1.05076
1.05101
1.05125
1.0515
1.05174
1.05199
1.05224
1.05249
1.05274
1.05301
1.05327
1.05355
1.05384
1.05413
1.05444
1.05475
1.05508
1.05542
1.05577
1.05614
1.05651
1.0569
1.0573
1.05772
1.05814
1.05857
1.05902
1.05947
1.05993
1.0604
1.06088
1.06136
1.06184
1.06233
1.06282
1.06331
1.06381
1.0643
1.06479
1.06528
1.06576
1.06623
1.0667
1.06716
1.06761
1.06804
1.06847
1.06887
1.06926
1.06964
1.06999
1.07032
1.07064
1.07092
1.07119
1.07143
1.07164
1.07183
1.07199
1.07213
1.07223
1.07231
1.07237
1.0724
1.0724
1.07239
1.07234
1.07228
1.0722
1.07211
1.072
1.07187
1.07174
1.0716
1.07145
1.07131
1.07116
1.07102
1.07088
1.07075
1.07063
1.07052
1.07042
1.07034
1.07028
1.07023
1.0702
1.07019
1.0702
1.07023
1.07028
1.07035
1.07043
1.07053
1.07065
1.07078
1.07093
1.07109
1.07127
1.07145
1.07165
1.07185
1.07207
1.07229
1.07252
1.07276
1.073
1.07325
1.07351
1.07377
1.07404
1.07432
1.0746
1.0749
1.0752
1.07552
1.07585
1.0762
1.07657
1.07696
1.07738
1.07783
1.07832
1.07884
1.07941
1.08003
1.0807
1.08144
1.08225
1.08314
1.08413
1.08521
1.08641
1.08773
1.08921
1.09086
1.09272
1.09483
1.09724
1.10004
1.10335
1.10732
1.11229
1.11872
1.12666
1.13526
1.14486
0.985811
0.985429
0.987457
0.9899
0.992085
0.99378
0.995055
0.996023
0.996762
0.997328
0.997765
0.998103
0.998368
0.998576
0.998739
0.998868
0.998971
0.999052
0.999117
0.999168
0.99921
0.999243
0.99927
0.999292
0.999311
0.999328
0.999344
0.999359
0.999375
0.999392
0.999412
0.999435
0.999462
0.999492
0.999528
0.99957
0.999618
0.999672
0.999735
0.999804
0.999882
0.999968
1.00006
1.00017
1.00028
1.0004
1.00054
1.00068
1.00083
1.00099
1.00116
1.00134
1.00153
1.00172
1.00193
1.00214
1.00237
1.0026
1.00284
1.00309
1.00335
1.00362
1.00389
1.00417
1.00445
1.00474
1.00504
1.00534
1.00565
1.00596
1.00628
1.00659
1.00692
1.00724
1.00756
1.00789
1.00822
1.00854
1.00887
1.0092
1.00953
1.00986
1.01019
1.01052
1.01085
1.01118
1.01151
1.01184
1.01218
1.01251
1.01285
1.01319
1.01354
1.01388
1.01423
1.01458
1.01493
1.01528
1.01564
1.016
1.01635
1.01671
1.01706
1.01741
1.01776
1.0181
1.01844
1.01877
1.01909
1.0194
1.01969
1.01998
1.02025
1.02051
1.02075
1.02098
1.02119
1.02138
1.02156
1.02172
1.02187
1.022
1.02212
1.02222
1.02232
1.0224
1.02248
1.02254
1.0226
1.02266
1.02272
1.02277
1.02282
1.02288
1.02293
1.02299
1.02306
1.02313
1.02321
1.02329
1.02339
1.02348
1.02359
1.02371
1.02383
1.02396
1.0241
1.02425
1.02441
1.02457
1.02474
1.02492
1.0251
1.02529
1.02549
1.02569
1.0259
1.02611
1.02633
1.02655
1.02678
1.02701
1.02725
1.0275
1.02774
1.028
1.02825
1.02851
1.02878
1.02904
1.02931
1.02959
1.02986
1.03014
1.03042
1.0307
1.03098
1.03125
1.03153
1.03181
1.03209
1.03237
1.03264
1.03291
1.03318
1.03345
1.03372
1.03399
1.03425
1.03451
1.03477
1.03503
1.03528
1.03554
1.03579
1.03604
1.03629
1.03654
1.03679
1.03704
1.03729
1.03754
1.03779
1.03803
1.03828
1.03853
1.03877
1.03902
1.03926
1.03951
1.03975
1.03999
1.04023
1.04047
1.04071
1.04095
1.04119
1.04143
1.04167
1.0419
1.04214
1.04238
1.04261
1.04285
1.04309
1.04333
1.04357
1.04382
1.04407
1.04432
1.04457
1.04482
1.04508
1.04534
1.04561
1.04588
1.04615
1.04642
1.04669
1.04697
1.04725
1.04753
1.0478
1.04808
1.04835
1.04863
1.0489
1.04916
1.04943
1.04969
1.04995
1.0502
1.05046
1.05071
1.05095
1.0512
1.05145
1.05169
1.05194
1.05219
1.05244
1.0527
1.05297
1.05324
1.05352
1.0538
1.0541
1.05441
1.05473
1.05506
1.0554
1.05575
1.05612
1.0565
1.05689
1.05729
1.05771
1.05813
1.05857
1.05901
1.05947
1.05993
1.0604
1.06088
1.06136
1.06184
1.06233
1.06283
1.06332
1.06381
1.06431
1.0648
1.06528
1.06576
1.06624
1.06671
1.06716
1.06761
1.06805
1.06847
1.06887
1.06926
1.06964
1.06999
1.07032
1.07063
1.07092
1.07118
1.07142
1.07163
1.07182
1.07198
1.07211
1.07221
1.07229
1.07235
1.07238
1.07238
1.07236
1.07232
1.07226
1.07218
1.07209
1.07198
1.07185
1.07172
1.07158
1.07144
1.0713
1.07115
1.07101
1.07087
1.07074
1.07062
1.07052
1.07042
1.07034
1.07028
1.07024
1.07021
1.0702
1.07021
1.07024
1.07028
1.07035
1.07043
1.07053
1.07065
1.07078
1.07093
1.07109
1.07126
1.07144
1.07164
1.07184
1.07205
1.07227
1.0725
1.07274
1.07298
1.07323
1.07348
1.07374
1.07401
1.07429
1.07457
1.07486
1.07517
1.07548
1.07582
1.07616
1.07653
1.07692
1.07734
1.07779
1.07827
1.0788
1.07936
1.07998
1.08066
1.0814
1.08221
1.0831
1.08408
1.08516
1.08635
1.08767
1.08914
1.09078
1.09261
1.09468
1.09702
1.09971
1.10283
1.10648
1.11073
1.11566
1.12123
1.12575
1.12612
0.989634
0.989127
0.989897
0.991191
0.992613
0.993886
0.994955
0.99582
0.99651
0.997058
0.997495
0.997843
0.998121
0.998343
0.998522
0.998666
0.998783
0.998877
0.998955
0.999017
0.99907
0.999113
0.999149
0.99918
0.999208
0.999232
0.999255
0.999277
0.9993
0.999323
0.999349
0.999377
0.999408
0.999443
0.999484
0.999529
0.99958
0.999637
0.999702
0.999773
0.999853
0.99994
1.00004
1.00014
1.00025
1.00037
1.00051
1.00065
1.0008
1.00095
1.00112
1.0013
1.00149
1.00168
1.00189
1.0021
1.00232
1.00255
1.00279
1.00304
1.0033
1.00356
1.00383
1.00411
1.00439
1.00468
1.00498
1.00528
1.00559
1.0059
1.00621
1.00653
1.00685
1.00717
1.00749
1.00782
1.00815
1.00847
1.0088
1.00913
1.00946
1.00979
1.01013
1.01046
1.01079
1.01113
1.01146
1.0118
1.01214
1.01248
1.01282
1.01317
1.01352
1.01387
1.01422
1.01457
1.01493
1.01529
1.01565
1.01601
1.01636
1.01672
1.01708
1.01743
1.01778
1.01812
1.01846
1.01878
1.0191
1.01941
1.01971
1.01999
1.02026
1.02052
1.02076
1.02098
1.02119
1.02138
1.02156
1.02172
1.02187
1.022
1.02211
1.02222
1.02231
1.0224
1.02247
1.02254
1.0226
1.02266
1.02271
1.02277
1.02282
1.02288
1.02293
1.023
1.02306
1.02313
1.02321
1.0233
1.02339
1.02349
1.0236
1.02371
1.02384
1.02397
1.02411
1.02426
1.02441
1.02457
1.02475
1.02492
1.02511
1.0253
1.02549
1.02569
1.0259
1.02611
1.02633
1.02656
1.02679
1.02702
1.02726
1.0275
1.02775
1.028
1.02826
1.02852
1.02878
1.02904
1.02931
1.02959
1.02986
1.03014
1.03041
1.03069
1.03097
1.03125
1.03153
1.03181
1.03209
1.03236
1.03264
1.03291
1.03318
1.03345
1.03372
1.03399
1.03425
1.03451
1.03477
1.03503
1.03529
1.03554
1.0358
1.03605
1.0363
1.03655
1.0368
1.03705
1.0373
1.03755
1.03779
1.03804
1.03829
1.03853
1.03878
1.03902
1.03926
1.0395
1.03975
1.03999
1.04023
1.04046
1.0407
1.04094
1.04118
1.04141
1.04165
1.04188
1.04212
1.04235
1.04259
1.04282
1.04306
1.0433
1.04354
1.04378
1.04403
1.04428
1.04453
1.04478
1.04504
1.0453
1.04556
1.04583
1.0461
1.04637
1.04664
1.04692
1.04719
1.04747
1.04775
1.04802
1.04829
1.04856
1.04883
1.0491
1.04936
1.04963
1.04988
1.05014
1.05039
1.05064
1.05089
1.05114
1.05138
1.05163
1.05188
1.05213
1.05239
1.05265
1.05291
1.05318
1.05346
1.05375
1.05405
1.05436
1.05468
1.05502
1.05536
1.05572
1.05609
1.05647
1.05686
1.05727
1.05769
1.05811
1.05855
1.059
1.05946
1.05992
1.0604
1.06088
1.06136
1.06185
1.06234
1.06284
1.06333
1.06383
1.06432
1.06481
1.0653
1.06578
1.06626
1.06672
1.06718
1.06763
1.06806
1.06848
1.06889
1.06928
1.06965
1.07
1.07033
1.07064
1.07092
1.07118
1.07142
1.07163
1.07181
1.07197
1.0721
1.07221
1.07229
1.07234
1.07237
1.07237
1.07235
1.07231
1.07225
1.07217
1.07208
1.07197
1.07184
1.07171
1.07158
1.07143
1.07129
1.07115
1.07101
1.07087
1.07074
1.07063
1.07052
1.07043
1.07035
1.07028
1.07024
1.07021
1.0702
1.07021
1.07024
1.07028
1.07035
1.07043
1.07053
1.07064
1.07077
1.07092
1.07108
1.07125
1.07143
1.07162
1.07182
1.07204
1.07225
1.07248
1.07271
1.07295
1.0732
1.07345
1.07371
1.07398
1.07425
1.07453
1.07482
1.07512
1.07543
1.07576
1.07611
1.07647
1.07686
1.07727
1.07771
1.07819
1.07871
1.07927
1.07988
1.08055
1.08128
1.08208
1.08296
1.08393
1.085
1.08617
1.08747
1.0889
1.0905
1.09227
1.09424
1.09646
1.09894
1.10174
1.10489
1.10836
1.11191
1.11513
1.11742
1.11683
0.991954
0.991606
0.991852
0.992525
0.993406
0.994307
0.995132
0.995846
0.996446
0.996943
0.997351
0.997685
0.997958
0.998181
0.998364
0.998514
0.998637
0.998739
0.998823
0.998893
0.998953
0.999003
0.999046
0.999083
0.999117
0.999147
0.999176
0.999204
0.999232
0.99926
0.99929
0.999322
0.999358
0.999397
0.99944
0.999488
0.999542
0.999601
0.999667
0.99974
0.99982
0.999907
1
1.00011
1.00022
1.00034
1.00047
1.00061
1.00075
1.00091
1.00108
1.00125
1.00144
1.00163
1.00183
1.00204
1.00226
1.00249
1.00273
1.00297
1.00323
1.00349
1.00376
1.00403
1.00431
1.0046
1.0049
1.0052
1.0055
1.00581
1.00612
1.00644
1.00676
1.00708
1.0074
1.00773
1.00806
1.00838
1.00871
1.00905
1.00938
1.00971
1.01005
1.01038
1.01072
1.01106
1.0114
1.01174
1.01209
1.01243
1.01278
1.01313
1.01349
1.01384
1.0142
1.01456
1.01493
1.01529
1.01565
1.01601
1.01638
1.01674
1.0171
1.01745
1.0178
1.01814
1.01848
1.01881
1.01913
1.01943
1.01973
1.02001
1.02028
1.02053
1.02077
1.02099
1.0212
1.02139
1.02157
1.02173
1.02187
1.022
1.02212
1.02222
1.02231
1.0224
1.02247
1.02254
1.0226
1.02266
1.02271
1.02277
1.02282
1.02288
1.02294
1.023
1.02306
1.02313
1.02321
1.0233
1.02339
1.02349
1.0236
1.02371
1.02384
1.02397
1.02411
1.02426
1.02441
1.02458
1.02475
1.02492
1.02511
1.0253
1.02549
1.0257
1.0259
1.02612
1.02634
1.02656
1.02679
1.02702
1.02726
1.0275
1.02775
1.028
1.02826
1.02851
1.02878
1.02904
1.02931
1.02958
1.02986
1.03013
1.03041
1.03069
1.03097
1.03124
1.03152
1.0318
1.03208
1.03236
1.03263
1.03291
1.03318
1.03345
1.03372
1.03399
1.03425
1.03452
1.03478
1.03504
1.03529
1.03555
1.03581
1.03606
1.03631
1.03656
1.03681
1.03706
1.03731
1.03755
1.0378
1.03805
1.03829
1.03853
1.03878
1.03902
1.03926
1.0395
1.03974
1.03998
1.04022
1.04045
1.04069
1.04092
1.04116
1.04139
1.04162
1.04185
1.04209
1.04232
1.04255
1.04279
1.04302
1.04326
1.0435
1.04374
1.04398
1.04423
1.04448
1.04473
1.04499
1.04525
1.04551
1.04577
1.04604
1.04631
1.04658
1.04685
1.04713
1.0474
1.04767
1.04795
1.04822
1.04849
1.04876
1.04902
1.04928
1.04954
1.0498
1.05005
1.05031
1.05056
1.0508
1.05105
1.0513
1.05155
1.0518
1.05205
1.05231
1.05257
1.05284
1.05311
1.05339
1.05369
1.05399
1.0543
1.05462
1.05496
1.05531
1.05567
1.05604
1.05642
1.05682
1.05723
1.05765
1.05808
1.05852
1.05898
1.05944
1.05991
1.06038
1.06087
1.06135
1.06185
1.06234
1.06284
1.06334
1.06384
1.06433
1.06483
1.06532
1.0658
1.06628
1.06675
1.0672
1.06765
1.06809
1.06851
1.06891
1.0693
1.06967
1.07002
1.07035
1.07066
1.07094
1.0712
1.07143
1.07164
1.07182
1.07198
1.07211
1.07221
1.07229
1.07234
1.07237
1.07237
1.07235
1.07231
1.07225
1.07217
1.07207
1.07196
1.07184
1.07171
1.07157
1.07143
1.07129
1.07114
1.071
1.07087
1.07074
1.07062
1.07052
1.07043
1.07035
1.07029
1.07024
1.07021
1.0702
1.07021
1.07024
1.07028
1.07034
1.07042
1.07052
1.07063
1.07076
1.07091
1.07106
1.07123
1.07141
1.0716
1.0718
1.07201
1.07223
1.07245
1.07268
1.07292
1.07316
1.07341
1.07367
1.07393
1.0742
1.07447
1.07476
1.07505
1.07536
1.07568
1.07602
1.07638
1.07676
1.07716
1.0776
1.07807
1.07857
1.07912
1.07972
1.08038
1.08109
1.08188
1.08274
1.08368
1.08472
1.08586
1.08712
1.0885
1.09002
1.0917
1.09355
1.09559
1.09783
1.10027
1.10287
1.10554
1.10807
1.11002
1.11107
1.11084
0.993634
0.993305
0.993345
0.993704
0.994241
0.994853
0.995462
0.996024
0.99652
0.996948
0.997312
0.997617
0.997872
0.998085
0.998262
0.99841
0.998534
0.998638
0.998725
0.998799
0.998863
0.998917
0.998965
0.999007
0.999045
0.99908
0.999114
0.999146
0.999178
0.999211
0.999245
0.99928
0.999319
0.999361
0.999407
0.999457
0.999512
0.999573
0.99964
0.999713
0.999793
0.999879
0.999974
1.00008
1.00019
1.00031
1.00043
1.00057
1.00071
1.00087
1.00103
1.0012
1.00138
1.00157
1.00177
1.00198
1.00219
1.00242
1.00265
1.00289
1.00315
1.0034
1.00367
1.00394
1.00422
1.00451
1.0048
1.0051
1.0054
1.00571
1.00602
1.00633
1.00665
1.00697
1.0073
1.00762
1.00795
1.00828
1.00861
1.00894
1.00928
1.00962
1.00995
1.01029
1.01064
1.01098
1.01133
1.01168
1.01203
1.01238
1.01274
1.0131
1.01346
1.01382
1.01419
1.01455
1.01492
1.01529
1.01566
1.01603
1.0164
1.01676
1.01712
1.01748
1.01783
1.01817
1.01851
1.01884
1.01916
1.01946
1.01976
1.02004
1.02031
1.02056
1.02079
1.02102
1.02122
1.02141
1.02158
1.02174
1.02188
1.02201
1.02213
1.02223
1.02232
1.0224
1.02248
1.02255
1.02261
1.02266
1.02272
1.02277
1.02283
1.02288
1.02294
1.023
1.02307
1.02314
1.02322
1.0233
1.02339
1.02349
1.0236
1.02371
1.02384
1.02397
1.02411
1.02426
1.02442
1.02458
1.02475
1.02493
1.02511
1.0253
1.0255
1.0257
1.02591
1.02612
1.02634
1.02656
1.02679
1.02703
1.02726
1.02751
1.02775
1.028
1.02826
1.02851
1.02878
1.02904
1.02931
1.02958
1.02985
1.03013
1.0304
1.03068
1.03096
1.03124
1.03152
1.0318
1.03208
1.03236
1.03263
1.03291
1.03318
1.03345
1.03372
1.03399
1.03426
1.03452
1.03479
1.03505
1.0353
1.03556
1.03582
1.03607
1.03632
1.03657
1.03682
1.03707
1.03732
1.03757
1.03781
1.03806
1.0383
1.03854
1.03878
1.03902
1.03926
1.0395
1.03974
1.03997
1.04021
1.04044
1.04067
1.0409
1.04114
1.04137
1.0416
1.04183
1.04206
1.04229
1.04252
1.04275
1.04298
1.04322
1.04345
1.04369
1.04393
1.04418
1.04442
1.04467
1.04493
1.04518
1.04544
1.04571
1.04597
1.04624
1.04651
1.04678
1.04705
1.04732
1.04759
1.04786
1.04813
1.0484
1.04867
1.04893
1.04919
1.04945
1.04971
1.04996
1.05021
1.05046
1.05071
1.05096
1.05121
1.05145
1.0517
1.05196
1.05222
1.05248
1.05275
1.05303
1.05331
1.0536
1.05391
1.05422
1.05455
1.05489
1.05524
1.0556
1.05598
1.05636
1.05676
1.05718
1.0576
1.05804
1.05849
1.05894
1.05941
1.05988
1.06036
1.06085
1.06135
1.06184
1.06234
1.06285
1.06335
1.06385
1.06435
1.06485
1.06534
1.06583
1.06631
1.06678
1.06724
1.06769
1.06812
1.06854
1.06895
1.06934
1.0697
1.07005
1.07038
1.07069
1.07097
1.07123
1.07146
1.07167
1.07185
1.072
1.07213
1.07223
1.07231
1.07236
1.07238
1.07238
1.07236
1.07231
1.07225
1.07217
1.07207
1.07196
1.07184
1.07171
1.07157
1.07143
1.07129
1.07115
1.07101
1.07087
1.07074
1.07063
1.07052
1.07043
1.07035
1.07029
1.07024
1.07021
1.0702
1.07021
1.07023
1.07028
1.07034
1.07042
1.07051
1.07062
1.07075
1.07089
1.07105
1.07121
1.07139
1.07158
1.07178
1.07198
1.0722
1.07242
1.07265
1.07288
1.07312
1.07336
1.07362
1.07387
1.07414
1.07441
1.07469
1.07498
1.07528
1.0756
1.07593
1.07627
1.07664
1.07704
1.07746
1.07791
1.07841
1.07894
1.07952
1.08016
1.08085
1.08161
1.08245
1.08336
1.08436
1.08546
1.08666
1.08797
1.08941
1.09098
1.09268
1.09452
1.0965
1.09857
1.10069
1.10271
1.10448
1.10575
1.10626
1.10607
0.994888
0.994581
0.994539
0.994716
0.995041
0.99545
0.995887
0.996314
0.996709
0.997062
0.997372
0.997639
0.997867
0.998061
0.998225
0.998364
0.998482
0.998583
0.998668
0.998742
0.998805
0.998861
0.99891
0.998954
0.998995
0.999032
0.999068
0.999103
0.999138
0.999173
0.999209
0.999247
0.999288
0.999332
0.999379
0.99943
0.999486
0.999547
0.999614
0.999686
0.999765
0.99985
0.999943
1.00004
1.00015
1.00027
1.00039
1.00052
1.00066
1.00081
1.00097
1.00114
1.00131
1.0015
1.00169
1.0019
1.00211
1.00233
1.00256
1.0028
1.00305
1.0033
1.00357
1.00384
1.00411
1.0044
1.00469
1.00498
1.00528
1.00559
1.0059
1.00621
1.00653
1.00685
1.00717
1.0075
1.00783
1.00816
1.00849
1.00882
1.00916
1.0095
1.00985
1.01019
1.01054
1.01089
1.01124
1.0116
1.01196
1.01232
1.01268
1.01305
1.01342
1.01379
1.01416
1.01454
1.01491
1.01529
1.01566
1.01604
1.01641
1.01678
1.01714
1.0175
1.01786
1.01821
1.01854
1.01887
1.01919
1.0195
1.01979
1.02007
1.02034
1.02059
1.02082
1.02104
1.02124
1.02143
1.0216
1.02176
1.0219
1.02203
1.02214
1.02224
1.02233
1.02241
1.02249
1.02255
1.02261
1.02267
1.02273
1.02278
1.02283
1.02289
1.02294
1.023
1.02307
1.02314
1.02322
1.0233
1.02339
1.02349
1.0236
1.02371
1.02384
1.02397
1.02411
1.02426
1.02441
1.02458
1.02475
1.02493
1.02511
1.0253
1.0255
1.0257
1.02591
1.02612
1.02634
1.02657
1.02679
1.02703
1.02726
1.02751
1.02775
1.028
1.02825
1.02851
1.02877
1.02904
1.0293
1.02957
1.02985
1.03012
1.0304
1.03067
1.03095
1.03123
1.03151
1.03179
1.03207
1.03235
1.03263
1.0329
1.03318
1.03345
1.03372
1.03399
1.03426
1.03453
1.03479
1.03505
1.03531
1.03557
1.03583
1.03608
1.03634
1.03659
1.03684
1.03709
1.03733
1.03758
1.03782
1.03807
1.03831
1.03855
1.03879
1.03903
1.03926
1.0395
1.03973
1.03996
1.0402
1.04043
1.04066
1.04088
1.04111
1.04134
1.04157
1.04179
1.04202
1.04225
1.04247
1.0427
1.04293
1.04316
1.0434
1.04363
1.04387
1.04411
1.04436
1.04461
1.04486
1.04511
1.04537
1.04563
1.04589
1.04616
1.04642
1.04669
1.04696
1.04723
1.0475
1.04777
1.04804
1.0483
1.04857
1.04883
1.04909
1.04934
1.0496
1.04985
1.0501
1.05035
1.0506
1.05084
1.05109
1.05134
1.05159
1.05185
1.05211
1.05237
1.05264
1.05292
1.0532
1.0535
1.05381
1.05412
1.05445
1.05479
1.05515
1.05551
1.05589
1.05628
1.05669
1.05711
1.05754
1.05798
1.05843
1.05889
1.05937
1.05985
1.06033
1.06083
1.06133
1.06183
1.06234
1.06285
1.06335
1.06386
1.06437
1.06487
1.06536
1.06585
1.06634
1.06681
1.06727
1.06772
1.06816
1.06858
1.06899
1.06938
1.06974
1.07009
1.07042
1.07073
1.07101
1.07126
1.07149
1.0717
1.07188
1.07203
1.07216
1.07225
1.07233
1.07237
1.0724
1.0724
1.07237
1.07233
1.07226
1.07218
1.07208
1.07197
1.07185
1.07171
1.07158
1.07143
1.07129
1.07115
1.07101
1.07087
1.07074
1.07063
1.07052
1.07043
1.07035
1.07029
1.07024
1.07021
1.0702
1.0702
1.07023
1.07027
1.07033
1.0704
1.0705
1.07061
1.07073
1.07087
1.07102
1.07119
1.07136
1.07155
1.07174
1.07195
1.07216
1.07238
1.0726
1.07283
1.07307
1.07331
1.07356
1.07381
1.07407
1.07433
1.07461
1.07489
1.07518
1.07549
1.07581
1.07614
1.0765
1.07688
1.07729
1.07773
1.0782
1.07872
1.07928
1.07989
1.08056
1.08129
1.08208
1.08296
1.08391
1.08496
1.08609
1.08733
1.08867
1.09012
1.09167
1.09331
1.09503
1.09678
1.09849
1.10004
1.10131
1.10215
1.10242
1.10214
0.995857
0.995583
0.995498
0.995569
0.995761
0.99603
0.996337
0.996653
0.996959
0.997242
0.997497
0.997723
0.99792
0.998091
0.998238
0.998364
0.998473
0.998566
0.998647
0.998718
0.998779
0.998834
0.998883
0.998928
0.998969
0.999008
0.999045
0.999081
0.999118
0.999154
0.999192
0.999232
0.999274
0.999318
0.999366
0.999418
0.999473
0.999534
0.999599
0.99967
0.999747
0.99983
0.99992
1.00002
1.00012
1.00023
1.00035
1.00048
1.00062
1.00076
1.00091
1.00108
1.00125
1.00143
1.00162
1.00182
1.00202
1.00224
1.00247
1.0027
1.00295
1.0032
1.00346
1.00372
1.004
1.00428
1.00456
1.00486
1.00515
1.00546
1.00577
1.00608
1.00639
1.00671
1.00704
1.00736
1.00769
1.00802
1.00836
1.0087
1.00904
1.00938
1.00973
1.01008
1.01043
1.01079
1.01115
1.01151
1.01188
1.01225
1.01262
1.013
1.01338
1.01376
1.01414
1.01452
1.01491
1.01529
1.01567
1.01605
1.01643
1.0168
1.01717
1.01754
1.01789
1.01824
1.01858
1.01891
1.01923
1.01954
1.01983
1.02011
1.02037
1.02062
1.02086
1.02107
1.02128
1.02146
1.02163
1.02178
1.02192
1.02205
1.02216
1.02226
1.02235
1.02243
1.0225
1.02257
1.02263
1.02268
1.02274
1.02279
1.02284
1.0229
1.02295
1.02301
1.02308
1.02315
1.02322
1.02331
1.0234
1.0235
1.0236
1.02372
1.02384
1.02397
1.02411
1.02426
1.02442
1.02458
1.02475
1.02493
1.02512
1.02531
1.02551
1.02571
1.02592
1.02613
1.02635
1.02657
1.0268
1.02703
1.02727
1.02751
1.02775
1.028
1.02826
1.02851
1.02877
1.02904
1.0293
1.02957
1.02984
1.03012
1.03039
1.03067
1.03095
1.03123
1.03151
1.03179
1.03207
1.03235
1.03263
1.03291
1.03318
1.03346
1.03373
1.034
1.03427
1.03454
1.0348
1.03507
1.03533
1.03559
1.03585
1.0361
1.03635
1.03661
1.03686
1.03711
1.03735
1.0376
1.03784
1.03808
1.03832
1.03856
1.0388
1.03903
1.03927
1.0395
1.03973
1.03996
1.04019
1.04042
1.04064
1.04087
1.04109
1.04132
1.04154
1.04176
1.04198
1.04221
1.04243
1.04266
1.04288
1.04311
1.04334
1.04358
1.04381
1.04405
1.04429
1.04454
1.04479
1.04504
1.04529
1.04555
1.04581
1.04607
1.04634
1.0466
1.04687
1.04714
1.0474
1.04767
1.04793
1.0482
1.04846
1.04872
1.04898
1.04923
1.04948
1.04973
1.04998
1.05023
1.05048
1.05072
1.05097
1.05122
1.05147
1.05173
1.05199
1.05225
1.05252
1.0528
1.05309
1.05339
1.05369
1.05401
1.05434
1.05469
1.05504
1.05541
1.0558
1.05619
1.0566
1.05703
1.05746
1.05791
1.05837
1.05884
1.05932
1.0598
1.0603
1.0608
1.06131
1.06182
1.06233
1.06284
1.06336
1.06387
1.06438
1.06489
1.06539
1.06588
1.06637
1.06685
1.06731
1.06777
1.06821
1.06863
1.06904
1.06942
1.06979
1.07014
1.07047
1.07077
1.07105
1.07131
1.07154
1.07174
1.07192
1.07207
1.07219
1.07229
1.07236
1.0724
1.07242
1.07242
1.07239
1.07235
1.07228
1.07219
1.07209
1.07198
1.07186
1.07172
1.07158
1.07144
1.0713
1.07115
1.07101
1.07088
1.07075
1.07063
1.07052
1.07043
1.07035
1.07029
1.07024
1.07021
1.07019
1.0702
1.07022
1.07026
1.07032
1.07039
1.07049
1.07059
1.07072
1.07085
1.071
1.07116
1.07134
1.07152
1.07171
1.07191
1.07212
1.07234
1.07256
1.07278
1.07302
1.07325
1.0735
1.07374
1.074
1.07426
1.07452
1.0748
1.07508
1.07537
1.07568
1.07601
1.07635
1.07672
1.07711
1.07753
1.07798
1.07848
1.07901
1.07959
1.08023
1.08093
1.08169
1.08252
1.08342
1.08441
1.08547
1.08663
1.08787
1.08919
1.09059
1.09205
1.09353
1.095
1.09639
1.09759
1.09852
1.09908
1.09922
1.09888
0.996639
0.996405
0.996301
0.996314
0.99642
0.996592
0.996803
0.997032
0.997262
0.997482
0.997686
0.997871
0.998035
0.99818
0.998306
0.998416
0.998512
0.998596
0.998669
0.998733
0.99879
0.998841
0.998887
0.998929
0.998969
0.999007
0.999044
0.99908
0.999116
0.999152
0.99919
0.999229
0.999271
0.999315
0.999362
0.999413
0.999467
0.999526
0.999589
0.999658
0.999732
0.999812
0.999898
0.999991
1.00009
1.0002
1.00031
1.00043
1.00057
1.0007
1.00085
1.00101
1.00117
1.00135
1.00153
1.00173
1.00193
1.00214
1.00236
1.00259
1.00283
1.00308
1.00333
1.00359
1.00386
1.00414
1.00442
1.00471
1.00501
1.00531
1.00562
1.00593
1.00624
1.00656
1.00688
1.00721
1.00754
1.00787
1.00821
1.00855
1.00889
1.00924
1.00959
1.00995
1.01031
1.01067
1.01104
1.01141
1.01179
1.01217
1.01255
1.01294
1.01332
1.01371
1.01411
1.0145
1.01489
1.01528
1.01567
1.01606
1.01644
1.01682
1.01719
1.01756
1.01792
1.01827
1.01862
1.01895
1.01927
1.01958
1.01987
1.02015
1.02041
1.02066
1.02089
1.02111
1.02131
1.02149
1.02166
1.02181
1.02195
1.02207
1.02218
1.02228
1.02237
1.02244
1.02252
1.02258
1.02264