# vtk DataFile Version 2.0
LBE mesh
ASCII
DATASET STRUCTURED_POINTS
DIMENSIONS 400 100 1
ASPECT_RATIO 1 1 1
ORIGIN 0 0 0
POINT_DATA 40000
SCALARS rho double 1
LOOKUP_TABLE default
1.06151
1.12311
1.14138
1.14565
1.14785
1.14962
1.15088
1.15171
1.15228
1.15269
1.15301
1.15325
1.15344
1.15358
1.1537
1.15379
1.15386
1.15392
1.15396
1.15399
1.15401
1.15402
1.15402
1.15401
1.154
1.15399
1.15397
1.15394
1.15392
1.15388
1.15385
1.15381
1.15377
1.15372
1.15368
1.15363
1.15358
1.15353
1.15347
1.15342
1.15336
1.15331
1.15325
1.15319
1.15314
1.15308
1.15303
1.15297
1.15292
1.15287
1.15283
1.15278
1.15274
1.15271
1.15267
1.15265
1.15263
1.15261
1.1526
1.15259
1.1526
1.15261
1.15263
1.15265
1.15269
1.15273
1.15278
1.15285
1.15292
1.153
1.15309
1.15319
1.15331
1.15343
1.15356
1.15371
1.15386
1.15403
1.15421
1.15439
1.15459
1.1548
1.15502
1.15524
1.15548
1.15572
1.15598
1.15624
1.1565
1.15678
1.15706
1.15735
1.15764
1.15793
1.15823
1.15854
1.15884
1.15914
1.15945
1.15975
1.16006
1.16036
1.16066
1.16095
1.16124
1.16153
1.16181
1.16209
1.16236
1.16262
1.16287
1.16311
1.16335
1.16357
1.16379
1.164
1.16419
1.16438
1.16455
1.16472
1.16487
1.16501
1.16515
1.16527
1.16539
1.16549
1.16559
1.16568
1.16576
1.16584
1.16591
1.16597
1.16603
1.16608
1.16613
1.16618
1.16622
1.16626
1.1663
1.16633
1.16636
1.16639
1.16642
1.16644
1.16647
1.16649
1.16651
1.16654
1.16656
1.16658
1.1666
1.16661
1.16663
1.16665
1.16667
1.16668
1.1667
1.16672
1.16674
1.16675
1.16677
1.16679
1.1668
1.16682
1.16684
1.16686
1.16688
1.1669
1.16691
1.16693
1.16696
1.16698
1.167
1.16702
1.16705
1.16707
1.1671
1.16712
1.16715
1.16718
1.16721
1.16724
1.16728
1.16731
1.16735
1.16739
1.16743
1.16747
1.16751
1.16755
1.1676
1.16764
1.16769
1.16774
1.1678
1.16785
1.1679
1.16796
1.16802
1.16808
1.16814
1.1682
1.16827
1.16834
1.1684
1.16847
1.16854
1.16861
1.16869
1.16876
1.16884
1.16891
1.16899
1.16907
1.16915
1.16923
1.16931
1.16939
1.16947
1.16956
1.16964
1.16973
1.16982
1.16991
1.17
1.17009
1.17018
1.17027
1.17037
1.17047
1.17056
1.17067
1.17077
1.17087
1.17098
1.17109
1.17121
1.17132
1.17144
1.17157
1.1717
1.17183
1.17197
1.17211
1.17226
1.17241
1.17257
1.17273
1.1729
1.17308
1.17326
1.17345
1.17365
1.17386
1.17407
1.17429
1.17452
1.17476
1.175
1.17525
1.17551
1.17578
1.17605
1.17633
1.17662
1.17692
1.17722
1.17752
1.17784
1.17815
1.17847
1.17879
1.17912
1.17945
1.17978
1.1801
1.18043
1.18076
1.18108
1.18141
1.18172
1.18204
1.18235
1.18265
1.18294
1.18323
1.18352
1.18379
1.18406
1.18432
1.18457
1.18481
1.18505
1.18527
1.18549
1.18571
1.18591
1.18611
1.1863
1.18648
1.18666
1.18683
1.18699
1.18715
1.1873
1.18744
1.18759
1.18772
1.18785
1.18797
1.18809
1.1882
1.18831
1.18841
1.18851
1.18859
1.18868
1.18875
1.18882
1.18889
1.18894
1.18899
1.18904
1.18907
1.1891
1.18913
1.18915
1.18916
1.18916
1.18917
1.18916
1.18916
1.18915
1.18913
1.18912
1.1891
1.18909
1.18907
1.18905
1.18904
1.18903
1.18902
1.18902
1.18902
1.18903
1.18905
1.18908
1.18912
1.18916
1.18922
1.1893
1.18939
1.18949
1.18961
1.18975
1.18991
1.19008
1.19028
1.1905
1.19074
1.19101
1.1913
1.19162
1.19197
1.19235
1.19275
1.19318
1.19365
1.19415
1.19468
1.19525
1.19585
1.19649
1.19717
1.19789
1.19865
1.19946
1.20031
1.20122
1.20218
1.20319
1.20427
1.20542
1.20665
1.20797
1.20938
1.21091
1.21258
1.21441
1.21643
1.2187
1.22127
1.22425
1.22777
1.23204
1.23755
1.24526
1.25615
1.2715
1.30139
1.11021
1.12117
1.13235
1.14096
1.14548
1.14788
1.1494
1.15049
1.15129
1.15187
1.15232
1.15266
1.15293
1.15314
1.15331
1.15344
1.15355
1.15363
1.1537
1.15375
1.15379
1.15382
1.15384
1.15385
1.15385
1.15384
1.15383
1.15382
1.1538
1.15377
1.15374
1.15371
1.15367
1.15363
1.15359
1.15355
1.1535
1.15345
1.1534
1.15335
1.1533
1.15325
1.15319
1.15314
1.15309
1.15303
1.15298
1.15293
1.15288
1.15283
1.15279
1.15275
1.15271
1.15268
1.15265
1.15262
1.1526
1.15259
1.15258
1.15258
1.15259
1.1526
1.15262
1.15265
1.15268
1.15273
1.15279
1.15285
1.15292
1.15301
1.1531
1.15321
1.15332
1.15345
1.15358
1.15373
1.15389
1.15405
1.15423
1.15442
1.15462
1.15483
1.15505
1.15527
1.15551
1.15576
1.15601
1.15627
1.15654
1.15681
1.1571
1.15738
1.15767
1.15797
1.15827
1.15857
1.15887
1.15917
1.15948
1.15978
1.16008
1.16038
1.16068
1.16097
1.16126
1.16155
1.16183
1.1621
1.16236
1.16262
1.16287
1.16311
1.16335
1.16357
1.16378
1.16399
1.16418
1.16436
1.16454
1.1647
1.16485
1.16499
1.16512
1.16525
1.16536
1.16547
1.16556
1.16565
1.16573
1.16581
1.16588
1.16594
1.166
1.16606
1.16611
1.16615
1.16619
1.16623
1.16627
1.1663
1.16634
1.16637
1.16639
1.16642
1.16645
1.16647
1.16649
1.16651
1.16653
1.16655
1.16658
1.16659
1.16661
1.16663
1.16665
1.16667
1.16668
1.1667
1.16672
1.16674
1.16675
1.16677
1.16679
1.16681
1.16683
1.16684
1.16686
1.16688
1.1669
1.16692
1.16694
1.16697
1.16699
1.16701
1.16704
1.16706
1.16709
1.16712
1.16715
1.16717
1.16721
1.16724
1.16727
1.16731
1.16734
1.16738
1.16742
1.16746
1.1675
1.16755
1.16759
1.16764
1.16769
1.16774
1.16779
1.16785
1.1679
1.16796
1.16802
1.16808
1.16814
1.1682
1.16827
1.16833
1.1684
1.16847
1.16854
1.16861
1.16869
1.16876
1.16883
1.16891
1.16899
1.16907
1.16915
1.16923
1.16931
1.16939
1.16947
1.16956
1.16964
1.16973
1.16982
1.16991
1.17
1.17009
1.17018
1.17027
1.17037
1.17047
1.17056
1.17067
1.17077
1.17088
1.17098
1.1711
1.17121
1.17133
1.17145
1.17157
1.1717
1.17184
1.17197
1.17212
1.17227
1.17242
1.17258
1.17274
1.17292
1.17309
1.17328
1.17347
1.17367
1.17388
1.17409
1.17431
1.17454
1.17478
1.17502
1.17528
1.17554
1.17581
1.17608
1.17636
1.17665
1.17695
1.17725
1.17755
1.17787
1.17818
1.1785
1.17883
1.17915
1.17948
1.17981
1.18013
1.18046
1.18079
1.18111
1.18143
1.18175
1.18206
1.18236
1.18267
1.18296
1.18325
1.18353
1.1838
1.18407
1.18433
1.18458
1.18482
1.18505
1.18528
1.18549
1.18571
1.18591
1.1861
1.18629
1.18648
1.18665
1.18682
1.18698
1.18714
1.18729
1.18744
1.18758
1.18771
1.18784
1.18796
1.18808
1.18819
1.1883
1.1884
1.18849
1.18858
1.18866
1.18874
1.18881
1.18887
1.18892
1.18897
1.18902
1.18905
1.18908
1.18911
1.18912
1.18913
1.18914
1.18914
1.18914
1.18913
1.18912
1.18911
1.1891
1.18908
1.18907
1.18905
1.18904
1.18902
1.18901
1.18901
1.18901
1.18901
1.18903
1.18905
1.18907
1.18911
1.18917
1.18923
1.18931
1.1894
1.1895
1.18963
1.18977
1.18993
1.19011
1.19031
1.19054
1.19078
1.19105
1.19135
1.19167
1.19203
1.19241
1.19281
1.19325
1.19372
1.19423
1.19477
1.19534
1.19595
1.19659
1.19728
1.198
1.19877
1.19959
1.20045
1.20136
1.20233
1.20336
1.20445
1.20562
1.20686
1.2082
1.20964
1.2112
1.21291
1.21479
1.21688
1.21924
1.22193
1.22506
1.2288
1.23342
1.23924
1.24678
1.25773
1.27706
1.30793
1.12885
1.12838
1.13499
1.14045
1.14396
1.14647
1.14827
1.14954
1.15047
1.15117
1.15171
1.15212
1.15246
1.15272
1.15294
1.15311
1.15325
1.15336
1.15345
1.15352
1.15358
1.15363
1.15366
1.15368
1.15369
1.1537
1.1537
1.15369
1.15368
1.15366
1.15363
1.15361
1.15358
1.15354
1.1535
1.15346
1.15342
1.15338
1.15333
1.15328
1.15323
1.15318
1.15313
1.15308
1.15303
1.15298
1.15293
1.15288
1.15284
1.15279
1.15275
1.15271
1.15268
1.15264
1.15262
1.15259
1.15258
1.15256
1.15256
1.15256
1.15257
1.15258
1.1526
1.15263
1.15267
1.15272
1.15278
1.15285
1.15292
1.15301
1.1531
1.15321
1.15333
1.15346
1.15359
1.15374
1.1539
1.15407
1.15425
1.15444
1.15464
1.15485
1.15507
1.1553
1.15554
1.15578
1.15604
1.1563
1.15657
1.15685
1.15713
1.15741
1.15771
1.158
1.1583
1.1586
1.1589
1.15921
1.15951
1.15981
1.16011
1.16041
1.16071
1.161
1.16129
1.16157
1.16185
1.16212
1.16238
1.16264
1.16289
1.16313
1.16336
1.16358
1.16379
1.16399
1.16418
1.16436
1.16453
1.16469
1.16484
1.16498
1.16511
1.16523
1.16534
1.16545
1.16554
1.16563
1.16571
1.16579
1.16586
1.16592
1.16598
1.16603
1.16608
1.16612
1.16617
1.16621
1.16624
1.16628
1.16631
1.16634
1.16637
1.16639
1.16642
1.16644
1.16647
1.16649
1.16651
1.16653
1.16655
1.16657
1.16659
1.16661
1.16663
1.16664
1.16666
1.16668
1.1667
1.16672
1.16673
1.16675
1.16677
1.16679
1.16681
1.16683
1.16685
1.16687
1.16689
1.16691
1.16693
1.16695
1.16697
1.167
1.16702
1.16705
1.16708
1.1671
1.16713
1.16716
1.1672
1.16723
1.16726
1.1673
1.16733
1.16737
1.16741
1.16745
1.1675
1.16754
1.16759
1.16764
1.16768
1.16774
1.16779
1.16784
1.1679
1.16795
1.16801
1.16807
1.16814
1.1682
1.16826
1.16833
1.1684
1.16847
1.16854
1.16861
1.16868
1.16876
1.16883
1.16891
1.16898
1.16906
1.16914
1.16922
1.1693
1.16939
1.16947
1.16955
1.16964
1.16972
1.16981
1.1699
1.16999
1.17008
1.17017
1.17027
1.17036
1.17046
1.17056
1.17066
1.17076
1.17087
1.17098
1.17109
1.17121
1.17132
1.17145
1.17157
1.1717
1.17183
1.17197
1.17212
1.17227
1.17242
1.17258
1.17275
1.17292
1.1731
1.17328
1.17348
1.17368
1.17389
1.1741
1.17432
1.17455
1.17479
1.17504
1.17529
1.17555
1.17582
1.1761
1.17638
1.17667
1.17697
1.17727
1.17758
1.17789
1.17821
1.17853
1.17885
1.17918
1.17951
1.17983
1.18016
1.18049
1.18081
1.18114
1.18146
1.18177
1.18208
1.18239
1.18269
1.18298
1.18327
1.18355
1.18382
1.18408
1.18434
1.18459
1.18483
1.18506
1.18529
1.1855
1.18571
1.18592
1.18611
1.1863
1.18648
1.18665
1.18682
1.18698
1.18714
1.18729
1.18744
1.18758
1.18771
1.18784
1.18796
1.18808
1.18819
1.18829
1.18839
1.18849
1.18857
1.18865
1.18873
1.1888
1.18886
1.18891
1.18896
1.189
1.18904
1.18907
1.18909
1.18911
1.18912
1.18912
1.18912
1.18912
1.18911
1.1891
1.18909
1.18908
1.18906
1.18905
1.18903
1.18902
1.189
1.18899
1.18899
1.18899
1.189
1.18901
1.18903
1.18906
1.1891
1.18916
1.18922
1.1893
1.18939
1.1895
1.18963
1.18977
1.18993
1.19012
1.19032
1.19055
1.1908
1.19107
1.19137
1.1917
1.19206
1.19244
1.19285
1.19329
1.19377
1.19428
1.19482
1.19539
1.19601
1.19666
1.19734
1.19808
1.19885
1.19967
1.20053
1.20145
1.20243
1.20346
1.20456
1.20573
1.20698
1.20833
1.20978
1.21135
1.21307
1.21497
1.21707
1.21944
1.22214
1.22528
1.22897
1.23343
1.23902
1.24626
1.25531
1.26513
1.27473
1.13708
1.13629
1.13848
1.14112
1.14387
1.14607
1.14769
1.14893
1.14988
1.15063
1.15121
1.15168
1.15205
1.15236
1.1526
1.15281
1.15297
1.15311
1.15322
1.15331
1.15338
1.15344
1.15349
1.15352
1.15354
1.15356
1.15356
1.15356
1.15356
1.15355
1.15353
1.15351
1.15348
1.15345
1.15342
1.15338
1.15334
1.1533
1.15326
1.15321
1.15317
1.15312
1.15307
1.15302
1.15298
1.15293
1.15288
1.15283
1.15279
1.15275
1.15271
1.15267
1.15264
1.15261
1.15258
1.15256
1.15254
1.15253
1.15253
1.15253
1.15254
1.15256
1.15258
1.15261
1.15266
1.15271
1.15276
1.15283
1.15291
1.153
1.1531
1.15321
1.15333
1.15345
1.15359
1.15374
1.15391
1.15408
1.15426
1.15445
1.15465
1.15487
1.15509
1.15532
1.15556
1.15581
1.15606
1.15633
1.1566
1.15687
1.15716
1.15745
1.15774
1.15803
1.15833
1.15863
1.15894
1.15924
1.15954
1.15985
1.16015
1.16044
1.16074
1.16103
1.16132
1.1616
1.16188
1.16215
1.16241
1.16266
1.16291
1.16315
1.16338
1.16359
1.1638
1.164
1.16419
1.16437
1.16454
1.16469
1.16484
1.16498
1.16511
1.16522
1.16533
1.16543
1.16553
1.16561
1.16569
1.16577
1.16583
1.16589
1.16595
1.166
1.16605
1.1661
1.16614
1.16618
1.16621
1.16625
1.16628
1.16631
1.16634
1.16636
1.16639
1.16641
1.16644
1.16646
1.16648
1.1665
1.16652
1.16654
1.16656
1.16658
1.1666
1.16662
1.16664
1.16665
1.16667
1.16669
1.16671
1.16673
1.16675
1.16677
1.16678
1.1668
1.16682
1.16684
1.16687
1.16689
1.16691
1.16693
1.16696
1.16698
1.16701
1.16703
1.16706
1.16709
1.16712
1.16715
1.16718
1.16721
1.16725
1.16729
1.16732
1.16736
1.1674
1.16744
1.16749
1.16753
1.16758
1.16763
1.16768
1.16773
1.16778
1.16783
1.16789
1.16795
1.16801
1.16807
1.16813
1.16819
1.16826
1.16832
1.16839
1.16846
1.16853
1.1686
1.16867
1.16875
1.16882
1.1689
1.16898
1.16905
1.16913
1.16921
1.16929
1.16938
1.16946
1.16954
1.16963
1.16971
1.1698
1.16989
1.16998
1.17007
1.17016
1.17026
1.17035
1.17045
1.17055
1.17065
1.17075
1.17086
1.17097
1.17108
1.17119
1.17131
1.17143
1.17156
1.17169
1.17182
1.17196
1.17211
1.17226
1.17241
1.17257
1.17274
1.17291
1.17309
1.17328
1.17347
1.17367
1.17388
1.1741
1.17432
1.17456
1.1748
1.17504
1.1753
1.17556
1.17583
1.17611
1.17639
1.17669
1.17698
1.17729
1.1776
1.17791
1.17823
1.17855
1.17888
1.1792
1.17953
1.17986
1.18019
1.18052
1.18084
1.18117
1.18149
1.1818
1.18211
1.18242
1.18272
1.18301
1.1833
1.18358
1.18385
1.18411
1.18436
1.18461
1.18485
1.18508
1.1853
1.18552
1.18573
1.18593
1.18612
1.18631
1.18649
1.18666
1.18683
1.18699
1.18715
1.1873
1.18744
1.18758
1.18771
1.18784
1.18796
1.18808
1.18819
1.18829
1.18839
1.18848
1.18857
1.18865
1.18872
1.18879
1.18885
1.18891
1.18895
1.189
1.18903
1.18906
1.18908
1.18909
1.18911
1.18911
1.18911
1.18911
1.1891
1.18909
1.18907
1.18906
1.18904
1.18903
1.18901
1.189
1.18898
1.18897
1.18897
1.18897
1.18898
1.18899
1.18901
1.18904
1.18908
1.18914
1.1892
1.18928
1.18938
1.18949
1.18961
1.18976
1.18992
1.19011
1.19032
1.19054
1.1908
1.19107
1.19137
1.1917
1.19206
1.19245
1.19286
1.19331
1.19378
1.19429
1.19484
1.19541
1.19603
1.19668
1.19737
1.19811
1.19888
1.1997
1.20057
1.20149
1.20246
1.2035
1.20459
1.20577
1.20702
1.20836
1.2098
1.21136
1.21307
1.21494
1.21701
1.21933
1.22195
1.22495
1.22844
1.23251
1.23729
1.24283
1.249
1.25402
1.2542
1.14128
1.1408
1.14144
1.14288
1.14463
1.14619
1.14754
1.14865
1.14954
1.15027
1.15086
1.15133
1.15173
1.15205
1.15232
1.15254
1.15273
1.15288
1.15301
1.15311
1.1532
1.15327
1.15332
1.15337
1.1534
1.15342
1.15344
1.15344
1.15344
1.15344
1.15342
1.15341
1.15339
1.15336
1.15333
1.1533
1.15326
1.15322
1.15319
1.15314
1.1531
1.15305
1.15301
1.15296
1.15292
1.15287
1.15282
1.15278
1.15274
1.1527
1.15266
1.15262
1.15259
1.15256
1.15254
1.15252
1.1525
1.1525
1.15249
1.1525
1.15251
1.15253
1.15255
1.15259
1.15263
1.15268
1.15274
1.15281
1.15289
1.15298
1.15308
1.15319
1.15332
1.15345
1.15359
1.15374
1.1539
1.15408
1.15426
1.15446
1.15466
1.15487
1.1551
1.15533
1.15557
1.15582
1.15608
1.15635
1.15662
1.1569
1.15719
1.15747
1.15777
1.15807
1.15837
1.15867
1.15897
1.15928
1.15958
1.15988
1.16018
1.16048
1.16078
1.16107
1.16136
1.16164
1.16191
1.16218
1.16244
1.1627
1.16294
1.16318
1.1634
1.16362
1.16383
1.16402
1.16421
1.16438
1.16455
1.1647
1.16485
1.16498
1.16511
1.16522
1.16533
1.16543
1.16552
1.1656
1.16568
1.16575
1.16581
1.16587
1.16593
1.16598
1.16603
1.16607
1.16611
1.16615
1.16618
1.16622
1.16625
1.16628
1.16631
1.16633
1.16636
1.16638
1.1664
1.16643
1.16645
1.16647
1.16649
1.16651
1.16653
1.16655
1.16657
1.16659
1.16661
1.16662
1.16664
1.16666
1.16668
1.1667
1.16672
1.16674
1.16676
1.16678
1.1668
1.16682
1.16684
1.16686
1.16689
1.16691
1.16693
1.16696
1.16699
1.16701
1.16704
1.16707
1.1671
1.16713
1.16716
1.1672
1.16723
1.16727
1.16731
1.16735
1.16739
1.16743
1.16747
1.16752
1.16757
1.16761
1.16766
1.16772
1.16777
1.16782
1.16788
1.16794
1.168
1.16806
1.16812
1.16818
1.16825
1.16831
1.16838
1.16845
1.16852
1.16859
1.16866
1.16874
1.16881
1.16889
1.16897
1.16904
1.16912
1.1692
1.16928
1.16936
1.16945
1.16953
1.16961
1.1697
1.16979
1.16987
1.16996
1.17005
1.17015
1.17024
1.17033
1.17043
1.17053
1.17063
1.17073
1.17084
1.17095
1.17106
1.17117
1.17129
1.17141
1.17154
1.17167
1.1718
1.17194
1.17209
1.17224
1.17239
1.17255
1.17272
1.17289
1.17308
1.17326
1.17346
1.17366
1.17387
1.17409
1.17431
1.17455
1.17479
1.17504
1.17529
1.17556
1.17583
1.17611
1.1764
1.17669
1.17699
1.1773
1.17761
1.17792
1.17824
1.17857
1.1789
1.17922
1.17955
1.17989
1.18022
1.18055
1.18087
1.1812
1.18152
1.18184
1.18215
1.18245
1.18275
1.18304
1.18333
1.18361
1.18388
1.18414
1.18439
1.18464
1.18488
1.18511
1.18533
1.18554
1.18575
1.18595
1.18614
1.18633
1.1865
1.18668
1.18684
1.187
1.18716
1.18731
1.18745
1.18759
1.18772
1.18785
1.18797
1.18808
1.18819
1.1883
1.1884
1.18849
1.18857
1.18865
1.18873
1.18879
1.18885
1.18891
1.18895
1.18899
1.18903
1.18905
1.18907
1.18909
1.1891
1.1891
1.1891
1.18909
1.18909
1.18907
1.18906
1.18904
1.18902
1.18901
1.18899
1.18897
1.18896
1.18895
1.18894
1.18894
1.18895
1.18896
1.18898
1.18902
1.18906
1.18911
1.18918
1.18926
1.18935
1.18946
1.18959
1.18973
1.1899
1.19008
1.19029
1.19052
1.19077
1.19105
1.19135
1.19168
1.19204
1.19243
1.19284
1.19329
1.19377
1.19428
1.19482
1.1954
1.19602
1.19667
1.19736
1.1981
1.19887
1.19969
1.20056
1.20147
1.20244
1.20347
1.20456
1.20572
1.20696
1.20828
1.2097
1.21124
1.2129
1.21472
1.21672
1.21893
1.2214
1.22416
1.22728
1.23079
1.23465
1.23861
1.24217
1.24463
1.24397
1.1441
1.14362
1.14379
1.14456
1.14559
1.14668
1.14772
1.14864
1.14942
1.15008
1.15063
1.1511
1.15149
1.15181
1.15209
1.15232
1.15251
1.15268
1.15282
1.15293
1.15303
1.15311
1.15317
1.15322
1.15326
1.15329
1.15331
1.15333
1.15333
1.15333
1.15332
1.15331
1.15329
1.15327
1.15325
1.15322
1.15319
1.15315
1.15311
1.15307
1.15303
1.15299
1.15295
1.1529
1.15286
1.15281
1.15277
1.15273
1.15268
1.15264
1.15261
1.15257
1.15254
1.15252
1.15249
1.15247
1.15246
1.15245
1.15245
1.15246
1.15247
1.15249
1.15252
1.15255
1.1526
1.15265
1.15271
1.15279
1.15287
1.15296
1.15306
1.15317
1.1533
1.15343
1.15358
1.15373
1.1539
1.15407
1.15426
1.15445
1.15466
1.15488
1.1551
1.15534
1.15558
1.15583
1.1561
1.15636
1.15664
1.15692
1.15721
1.1575
1.1578
1.1581
1.1584
1.1587
1.15901
1.15931
1.15962
1.15992
1.16022
1.16052
1.16082
1.16111
1.1614
1.16168
1.16195
1.16222
1.16248
1.16273
1.16298
1.16321
1.16344
1.16365
1.16386
1.16405
1.16424
1.16441
1.16457
1.16472
1.16486
1.16499
1.16511
1.16523
1.16533
1.16542
1.16551
1.16559
1.16567
1.16573
1.1658
1.16585
1.16591
1.16596
1.166
1.16604
1.16608
1.16612
1.16615
1.16618
1.16622
1.16624
1.16627
1.1663
1.16632
1.16635
1.16637
1.16639
1.16641
1.16643
1.16645
1.16647
1.16649
1.16651
1.16653
1.16655
1.16657
1.16659
1.16661
1.16663
1.16665
1.16667
1.16669
1.16671
1.16673
1.16675
1.16677
1.16679
1.16681
1.16684
1.16686
1.16688
1.16691
1.16693
1.16696
1.16699
1.16702
1.16705
1.16708
1.16711
1.16714
1.16718
1.16721
1.16725
1.16729
1.16733
1.16737
1.16741
1.16746
1.1675
1.16755
1.1676
1.16765
1.1677
1.16776
1.16781
1.16787
1.16792
1.16798
1.16804
1.16811
1.16817
1.16824
1.1683
1.16837
1.16844
1.16851
1.16858
1.16865
1.16872
1.1688
1.16887
1.16895
1.16903
1.16911
1.16919
1.16927
1.16935
1.16943
1.16951
1.1696
1.16968
1.16977
1.16985
1.16994
1.17003
1.17012
1.17022
1.17031
1.17041
1.1705
1.17061
1.17071
1.17081
1.17092
1.17103
1.17115
1.17126
1.17139
1.17151
1.17164
1.17177
1.17191
1.17206
1.17221
1.17236
1.17253
1.17269
1.17287
1.17305
1.17324
1.17343
1.17364
1.17385
1.17406
1.17429
1.17453
1.17477
1.17502
1.17528
1.17554
1.17582
1.1761
1.17639
1.17669
1.17699
1.1773
1.17761
1.17793
1.17825
1.17858
1.17891
1.17924
1.17957
1.17991
1.18024
1.18057
1.1809
1.18123
1.18155
1.18187
1.18218
1.18249
1.18279
1.18308
1.18337
1.18365
1.18391
1.18418
1.18443
1.18467
1.18491
1.18514
1.18536
1.18557
1.18578
1.18597
1.18616
1.18635
1.18653
1.1867
1.18686
1.18702
1.18717
1.18732
1.18746
1.1876
1.18773
1.18786
1.18798
1.18809
1.1882
1.18831
1.18841
1.1885
1.18858
1.18866
1.18874
1.1888
1.18886
1.18891
1.18896
1.189
1.18903
1.18906
1.18907
1.18909
1.18909
1.1891
1.18909
1.18909
1.18908
1.18906
1.18905
1.18903
1.18901
1.18899
1.18897
1.18895
1.18894
1.18893
1.18892
1.18892
1.18892
1.18893
1.18895
1.18898
1.18902
1.18907
1.18914
1.18922
1.18931
1.18942
1.18955
1.18969
1.18986
1.19004
1.19025
1.19048
1.19073
1.19101
1.19131
1.19164
1.192
1.19238
1.1928
1.19325
1.19372
1.19423
1.19478
1.19536
1.19597
1.19662
1.19731
1.19804
1.19881
1.19963
1.20049
1.2014
1.20236
1.20338
1.20445
1.2056
1.20681
1.20811
1.20949
1.21098
1.21258
1.21432
1.21621
1.21828
1.22054
1.22302
1.22572
1.22859
1.23154
1.23432
1.23647
1.23757
1.23731
1.14605
1.14555
1.14555
1.14594
1.14656
1.14731
1.14807
1.14879
1.14945
1.15002
1.15052
1.15095
1.15132
1.15164
1.15191
1.15214
1.15234
1.15251
1.15265
1.15277
1.15287
1.15296
1.15303
1.15309
1.15313
1.15317
1.1532
1.15321
1.15322
1.15323
1.15322
1.15321
1.1532
1.15318
1.15316
1.15313
1.15311
1.15307
1.15304
1.153
1.15296
1.15292
1.15288
1.15284
1.15279
1.15275
1.15271
1.15267
1.15263
1.15259
1.15255
1.15252
1.15249
1.15246
1.15244
1.15243
1.15241
1.15241
1.15241
1.15241
1.15243
1.15245
1.15248
1.15251
1.15256
1.15262
1.15268
1.15275
1.15284
1.15293
1.15304
1.15315
1.15327
1.15341
1.15356
1.15371
1.15388
1.15406
1.15425
1.15445
1.15465
1.15487
1.1551
1.15534
1.15559
1.15584
1.15611
1.15638
1.15666
1.15694
1.15723
1.15752
1.15782
1.15813
1.15843
1.15874
1.15904
1.15935
1.15966
1.15996
1.16027
1.16057
1.16086
1.16116
1.16144
1.16172
1.162
1.16227
1.16253
1.16278
1.16302
1.16326
1.16348
1.16369
1.1639
1.16409
1.16427
1.16444
1.1646
1.16474
1.16488
1.16501
1.16513
1.16524
1.16534
1.16543
1.16551
1.16559
1.16566
1.16572
1.16578
1.16584
1.16589
1.16593
1.16598
1.16602
1.16605
1.16609
1.16612
1.16615
1.16618
1.16621
1.16623
1.16626
1.16628
1.16631
1.16633
1.16635
1.16637
1.16639
1.16642
1.16644
1.16646
1.16648
1.1665
1.16651
1.16653
1.16655
1.16657
1.16659
1.16661
1.16663
1.16665
1.16667
1.16669
1.16671
1.16674
1.16676
1.16678
1.16681
1.16683
1.16685
1.16688
1.16691
1.16693
1.16696
1.16699
1.16702
1.16705
1.16709
1.16712
1.16716
1.16719
1.16723
1.16727
1.16731
1.16735
1.16739
1.16744
1.16749
1.16753
1.16758
1.16763
1.16769
1.16774
1.16779
1.16785
1.16791
1.16797
1.16803
1.16809
1.16816
1.16822
1.16829
1.16835
1.16842
1.16849
1.16856
1.16864
1.16871
1.16878
1.16886
1.16893
1.16901
1.16909
1.16917
1.16925
1.16933
1.16941
1.16949
1.16957
1.16966
1.16974
1.16983
1.16992
1.17001
1.1701
1.17019
1.17028
1.17038
1.17048
1.17057
1.17068
1.17078
1.17089
1.171
1.17111
1.17123
1.17135
1.17148
1.17161
1.17174
1.17188
1.17202
1.17217
1.17233
1.17249
1.17266
1.17283
1.17301
1.1732
1.1734
1.1736
1.17381
1.17403
1.17426
1.1745
1.17474
1.17499
1.17525
1.17552
1.1758
1.17608
1.17637
1.17667
1.17698
1.17729
1.17761
1.17793
1.17825
1.17858
1.17892
1.17925
1.17959
1.17993
1.18026
1.1806
1.18093
1.18126
1.18158
1.1819
1.18222
1.18253
1.18283
1.18312
1.18341
1.18369
1.18396
1.18422
1.18447
1.18471
1.18495
1.18518
1.18539
1.18561
1.18581
1.18601
1.18619
1.18638
1.18655
1.18672
1.18688
1.18704
1.18719
1.18734
1.18748
1.18762
1.18775
1.18787
1.18799
1.18811
1.18822
1.18832
1.18842
1.18851
1.1886
1.18868
1.18875
1.18881
1.18887
1.18892
1.18897
1.18901
1.18904
1.18906
1.18908
1.18909
1.1891
1.1891
1.18909
1.18908
1.18907
1.18905
1.18903
1.18901
1.18899
1.18897
1.18895
1.18893
1.18891
1.1889
1.18889
1.18888
1.18889
1.1889
1.18891
1.18894
1.18898
1.18903
1.18909
1.18917
1.18926
1.18937
1.1895
1.18964
1.1898
1.18999
1.19019
1.19042
1.19067
1.19095
1.19125
1.19158
1.19193
1.19232
1.19273
1.19318
1.19365
1.19416
1.1947
1.19528
1.19589
1.19654
1.19723
1.19795
1.19872
1.19952
1.20038
1.20127
1.20222
1.20322
1.20428
1.2054
1.20658
1.20784
1.20918
1.2106
1.21213
1.21377
1.21553
1.21743
1.21946
1.22163
1.2239
1.22621
1.22843
1.23035
1.23172
1.23226
1.23203
1.14741
1.14697
1.14688
1.14706
1.14745
1.14795
1.1485
1.14905
1.14958
1.15007
1.1505
1.15089
1.15123
1.15152
1.15178
1.15201
1.1522
1.15237
1.15251
1.15264
1.15274
1.15283
1.15291
1.15297
1.15302
1.15306
1.15309
1.15311
1.15312
1.15313
1.15313
1.15312
1.15311
1.1531
1.15308
1.15306
1.15303
1.153
1.15297
1.15293
1.15289
1.15285
1.15282
1.15277
1.15273
1.15269
1.15265
1.15261
1.15257
1.15253
1.1525
1.15247
1.15244
1.15241
1.15239
1.15238
1.15237
1.15236
1.15236
1.15237
1.15238
1.1524
1.15243
1.15247
1.15252
1.15257
1.15264
1.15272
1.1528
1.1529
1.153
1.15312
1.15324
1.15338
1.15353
1.15369
1.15386
1.15404
1.15423
1.15443
1.15464
1.15486
1.15509
1.15533
1.15558
1.15584
1.15611
1.15638
1.15667
1.15695
1.15725
1.15754
1.15785
1.15815
1.15846
1.15877
1.15908
1.15939
1.1597
1.16
1.16031
1.16061
1.16091
1.1612
1.16149
1.16177
1.16205
1.16232
1.16258
1.16283
1.16307
1.1633
1.16353
1.16374
1.16394
1.16413
1.16431
1.16447
1.16463
1.16477
1.16491
1.16503
1.16515
1.16525
1.16535
1.16543
1.16551
1.16558
1.16565
1.16571
1.16577
1.16582
1.16587
1.16591
1.16595
1.16599
1.16602
1.16606
1.16609
1.16612
1.16615
1.16617
1.1662
1.16622
1.16624
1.16627
1.16629
1.16631
1.16633
1.16635
1.16637
1.16639
1.16641
1.16643
1.16645
1.16647
1.16649
1.16651
1.16653
1.16655
1.16657
1.16659
1.16661
1.16664
1.16666
1.16668
1.1667
1.16672
1.16675
1.16677
1.1668
1.16682
1.16685
1.16688
1.1669
1.16693
1.16696
1.16699
1.16703
1.16706
1.16709
1.16713
1.16717
1.16721
1.16725
1.16729
1.16733
1.16737
1.16742
1.16746
1.16751
1.16756
1.16761
1.16767
1.16772
1.16778
1.16783
1.16789
1.16795
1.16801
1.16807
1.16814
1.1682
1.16827
1.16834
1.1684
1.16847
1.16854
1.16862
1.16869
1.16876
1.16884
1.16891
1.16899
1.16907
1.16914
1.16922
1.1693
1.16938
1.16946
1.16955
1.16963
1.16971
1.1698
1.16989
1.16997
1.17006
1.17016
1.17025
1.17034
1.17044
1.17054
1.17064
1.17074
1.17085
1.17096
1.17107
1.17119
1.17131
1.17143
1.17156
1.17169
1.17183
1.17198
1.17213
1.17228
1.17244
1.17261
1.17278
1.17297
1.17316
1.17335
1.17356
1.17377
1.17399
1.17422
1.17445
1.1747
1.17495
1.17522
1.17549
1.17577
1.17605
1.17635
1.17665
1.17696
1.17727
1.17759
1.17792
1.17825
1.17858
1.17892
1.17926
1.1796
1.17994
1.18028
1.18062
1.18096
1.18129
1.18162
1.18194
1.18226
1.18257
1.18287
1.18317
1.18345
1.18373
1.184
1.18426
1.18451
1.18476
1.18499
1.18522
1.18544
1.18564
1.18585
1.18604
1.18623
1.18641
1.18658
1.18675
1.18691
1.18707
1.18722
1.18736
1.1875
1.18764
1.18777
1.1879
1.18801
1.18813
1.18824
1.18834
1.18844
1.18853
1.18862
1.18869
1.18877
1.18883
1.18889
1.18894
1.18898
1.18902
1.18905
1.18907
1.18909
1.1891
1.1891
1.1891
1.18909
1.18908
1.18907
1.18905
1.18903
1.189
1.18898
1.18895
1.18893
1.18891
1.18889
1.18887
1.18886
1.18885
1.18885
1.18886
1.18887
1.1889
1.18893
1.18898
1.18904
1.18911
1.1892
1.18931
1.18943
1.18957
1.18973
1.18992
1.19012
1.19034
1.19059
1.19087
1.19117
1.19149
1.19185
1.19223
1.19264
1.19308
1.19356
1.19406
1.1946
1.19517
1.19578
1.19642
1.1971
1.19782
1.19858
1.19937
1.20021
1.2011
1.20203
1.20301
1.20404
1.20513
1.20627
1.20748
1.20876
1.21012
1.21156
1.21309
1.21471
1.21642
1.21823
1.22009
1.22198
1.22382
1.22548
1.22683
1.22772
1.22802
1.22771
1.14841
1.14804
1.14791
1.14798
1.14821
1.14854
1.14894
1.14936
1.14978
1.15018
1.15055
1.15088
1.15119
1.15146
1.1517
1.15191
1.1521
1.15226
1.1524
1.15252
1.15263
1.15272
1.15279
1.15286
1.15291
1.15295
1.15298
1.15301
1.15303
1.15304
1.15304
1.15304
1.15303
1.15302
1.153
1.15298
1.15295
1.15292
1.15289
1.15286
1.15283
1.15279
1.15275
1.15271
1.15267
1.15263
1.15259
1.15255
1.15251
1.15248
1.15244
1.15241
1.15238
1.15236
1.15234
1.15232
1.15231
1.15231
1.15231
1.15232
1.15233
1.15236
1.15239
1.15243
1.15247
1.15253
1.1526
1.15267
1.15276
1.15286
1.15297
1.15308
1.15321
1.15335
1.1535
1.15366
1.15383
1.15401
1.15421
1.15441
1.15463
1.15485
1.15508
1.15533
1.15558
1.15584
1.15611
1.15639
1.15667
1.15696
1.15726
1.15756
1.15787
1.15818
1.15849
1.1588
1.15911
1.15942
1.15973
1.16004
1.16035
1.16065
1.16095
1.16125
1.16154
1.16182
1.1621
1.16237
1.16263
1.16288
1.16312
1.16336
1.16358
1.16379
1.16399
1.16418
1.16435
1.16451
1.16467
1.16481
1.16494
1.16506
1.16517
1.16527
1.16536
1.16544
1.16552
1.16558
1.16565
1.1657
1.16576
1.1658
1.16585
1.16589
1.16593
1.16596
1.16599
1.16602
1.16605
1.16608
1.16611
1.16613
1.16616
1.16618
1.1662
1.16623
1.16625
1.16627
1.16629
1.16631
1.16633
1.16635
1.16637
1.16639
1.16641
1.16643
1.16645
1.16647
1.16649
1.16651
1.16653
1.16655
1.16657
1.16659
1.16662
1.16664
1.16666
1.16669
1.16671
1.16673
1.16676
1.16679
1.16681
1.16684
1.16687
1.1669
1.16693
1.16696
1.167
1.16703
1.16707
1.1671
1.16714
1.16718
1.16722
1.16726
1.1673
1.16735
1.1674
1.16744
1.16749
1.16754
1.16759
1.16765
1.1677
1.16776
1.16781
1.16787
1.16793
1.16799
1.16805
1.16812
1.16818
1.16825
1.16832
1.16838
1.16845
1.16852
1.16859
1.16867
1.16874
1.16881
1.16889
1.16896
1.16904
1.16912
1.1692
1.16927
1.16935
1.16943
1.16952
1.1696
1.16968
1.16977
1.16985
1.16994
1.17003
1.17012
1.17021
1.1703
1.1704
1.1705
1.1706
1.1707
1.17081
1.17091
1.17103
1.17114
1.17126
1.17138
1.17151
1.17164
1.17178
1.17192
1.17207
1.17223
1.17239
1.17256
1.17273
1.17291
1.1731
1.1733
1.1735
1.17371
1.17394
1.17417
1.1744
1.17465
1.17491
1.17517
1.17544
1.17572
1.17601
1.17631
1.17662
1.17693
1.17725
1.17757
1.1779
1.17823
1.17857
1.17892
1.17926
1.17961
1.17995
1.1803
1.18064
1.18098
1.18132
1.18165
1.18198
1.1823
1.18261
1.18292
1.18321
1.1835
1.18378
1.18405
1.18431
1.18456
1.18481
1.18504
1.18526
1.18548
1.18569
1.18589
1.18608
1.18626
1.18644
1.18662
1.18678
1.18694
1.1871
1.18725
1.18739
1.18753
1.18766
1.18779
1.18792
1.18804
1.18815
1.18826
1.18836
1.18846
1.18855
1.18864
1.18871
1.18879
1.18885
1.18891
1.18896
1.189
1.18904
1.18906
1.18909
1.1891
1.18911
1.18911
1.18911
1.1891
1.18908
1.18906
1.18904
1.18902
1.18899
1.18896
1.18894
1.18891
1.18888
1.18886
1.18884
1.18882
1.18881
1.18881
1.18881
1.18883
1.18885
1.18888
1.18892
1.18898
1.18905
1.18914
1.18924
1.18936
1.1895
1.18966
1.18983
1.19003
1.19026
1.1905
1.19077
1.19107
1.19139
1.19174
1.19212
1.19253
1.19297
1.19344
1.19394
1.19447
1.19504
1.19564
1.19627
1.19695
1.19765
1.1984
1.19918
1.20001
1.20088
1.20179
1.20274
1.20374
1.20479
1.2059
1.20706
1.20827
1.20955
1.2109
1.21231
1.21379
1.21533
1.2169
1.2185
1.22006
1.22151
1.22277
1.22374
1.22433
1.22448
1.22414
1.14916
1.14886
1.14871
1.14872
1.14885
1.14907
1.14936
1.14967
1.15
1.15033
1.15064
1.15093
1.1512
1.15144
1.15166
1.15185
1.15203
1.15218
1.15231
1.15243
1.15254
1.15262
1.1527
1.15276
1.15282
1.15286
1.15289
1.15292
1.15294
1.15295
1.15296
1.15296
1.15295
1.15294
1.15292
1.1529
1.15288
1.15285
1.15283
1.15279
1.15276
1.15272
1.15269
1.15265
1.15261
1.15257
1.15253
1.15249
1.15246
1.15242
1.15239
1.15236
1.15233
1.15231
1.15229
1.15227
1.15226
1.15226
1.15226
1.15227
1.15228
1.15231
1.15234
1.15238
1.15243
1.15248
1.15255
1.15263
1.15272
1.15281
1.15292
1.15304
1.15317
1.15331
1.15347
1.15363
1.1538
1.15399
1.15418
1.15439
1.1546
1.15483
1.15507
1.15531
1.15557
1.15583
1.15611
1.15639
1.15667
1.15697
1.15727
1.15757
1.15788
1.1582
1.15851
1.15882
1.15914
1.15946
1.15977
1.16008
1.16039
1.1607
1.161
1.1613
1.16159
1.16187
1.16215
1.16242
1.16268
1.16293
1.16318
1.16341
1.16363
1.16384
1.16404
1.16422
1.1644
1.16456
1.16471
1.16484
1.16497
1.16508
1.16519
1.16528
1.16537
1.16545
1.16552
1.16558
1.16564
1.1657
1.16574
1.16579
1.16583
1.16587
1.1659
1.16593
1.16596
1.16599
1.16602
1.16605
1.16607
1.16609
1.16612
1.16614
1.16616
1.16618
1.1662
1.16622
1.16624
1.16626
1.16628
1.1663
1.16632
1.16634
1.16636
1.16638
1.1664
1.16642
1.16644
1.16647
1.16649
1.16651
1.16653
1.16655
1.16657
1.1666
1.16662
1.16664
1.16667
1.1667
1.16672
1.16675
1.16678
1.16681
1.16684
1.16687
1.1669