# vtk DataFile Version 2.0
LBE mesh
ASCII
DATASET STRUCTURED_POINTS
DIMENSIONS 400 100 1
ASPECT_RATIO 1 1 1
ORIGIN 0 0 0
POINT_DATA 40000
SCALARS rho double 1
LOOKUP_TABLE default
1.11069
1.18564
1.20741
1.21179
1.21391
1.21577
1.21713
1.21802
1.21862
1.21907
1.21942
1.2197
1.21993
1.22011
1.22026
1.22039
1.22049
1.22059
1.22066
1.22073
1.22078
1.22083
1.22087
1.2209
1.22093
1.22096
1.22097
1.22099
1.221
1.22101
1.22101
1.22101
1.22102
1.22101
1.22101
1.22101
1.221
1.221
1.22099
1.22099
1.22098
1.22098
1.22098
1.22097
1.22097
1.22098
1.22098
1.22099
1.221
1.22101
1.22102
1.22105
1.22107
1.2211
1.22113
1.22117
1.22122
1.22127
1.22133
1.22139
1.22146
1.22154
1.22163
1.22172
1.22182
1.22193
1.22205
1.22217
1.2223
1.22244
1.22259
1.22275
1.22291
1.22309
1.22327
1.22345
1.22365
1.22385
1.22406
1.22428
1.2245
1.22473
1.22497
1.22521
1.22546
1.22572
1.22598
1.22624
1.22651
1.22678
1.22705
1.22733
1.22761
1.22789
1.22817
1.22846
1.22874
1.22902
1.2293
1.22957
1.22985
1.23012
1.23038
1.23065
1.2309
1.23115
1.23139
1.23163
1.23186
1.23208
1.23229
1.23249
1.23269
1.23287
1.23304
1.2332
1.23336
1.2335
1.23363
1.23375
1.23385
1.23395
1.23404
1.23412
1.23418
1.23424
1.23429
1.23433
1.23436
1.23438
1.23439
1.2344
1.2344
1.2344
1.23439
1.23438
1.23436
1.23433
1.23431
1.23428
1.23424
1.23421
1.23417
1.23413
1.23409
1.23405
1.23401
1.23397
1.23393
1.23388
1.23384
1.2338
1.23376
1.23372
1.23368
1.23364
1.23361
1.23357
1.23354
1.23351
1.23348
1.23345
1.23342
1.2334
1.23337
1.23335
1.23333
1.23332
1.2333
1.23329
1.23328
1.23327
1.23326
1.23326
1.23326
1.23326
1.23326
1.23326
1.23326
1.23327
1.23327
1.23328
1.23329
1.2333
1.23331
1.23333
1.23334
1.23336
1.23337
1.23339
1.23341
1.23343
1.23345
1.23347
1.23349
1.23351
1.23353
1.23355
1.23357
1.2336
1.23362
1.23364
1.23367
1.23369
1.23372
1.23375
1.23377
1.2338
1.23383
1.23386
1.23389
1.23392
1.23395
1.23399
1.23402
1.23406
1.2341
1.23414
1.23419
1.23424
1.23429
1.23434
1.23439
1.23445
1.23452
1.23458
1.23465
1.23473
1.23481
1.2349
1.23499
1.23508
1.23519
1.23529
1.23541
1.23553
1.23566
1.2358
1.23594
1.23609
1.23625
1.23642
1.23659
1.23678
1.23697
1.23718
1.23739
1.23761
1.23784
1.23808
1.23833
1.23859
1.23886
1.23914
1.23943
1.23973
1.24004
1.24035
1.24068
1.24101
1.24136
1.24171
1.24207
1.24243
1.2428
1.24318
1.24356
1.24395
1.24434
1.24474
1.24514
1.24553
1.24593
1.24633
1.24673
1.24712
1.24752
1.2479
1.24829
1.24866
1.24903
1.24939
1.24974
1.25009
1.25042
1.25074
1.25105
1.25135
1.25164
1.25192
1.25218
1.25243
1.25267
1.2529
1.25311
1.25331
1.2535
1.25368
1.25385
1.25401
1.25416
1.25429
1.25442
1.25454
1.25465
1.25475
1.25484
1.25493
1.25501
1.25508
1.25515
1.2552
1.25526
1.25531
1.25535
1.25539
1.25542
1.25545
1.25548
1.2555
1.25552
1.25554
1.25555
1.25556
1.25557
1.25557
1.25558
1.25558
1.25558
1.25558
1.25559
1.25559
1.25559
1.2556
1.2556
1.25561
1.25562
1.25564
1.25566
1.25568
1.25572
1.25575
1.2558
1.25585
1.25592
1.25599
1.25607
1.25617
1.25628
1.2564
1.25654
1.25669
1.25686
1.25704
1.25725
1.25747
1.25771
1.25797
1.25826
1.25857
1.2589
1.25926
1.25964
1.26005
1.26048
1.26095
1.26144
1.26197
1.26253
1.26312
1.26374
1.2644
1.2651
1.26583
1.26661
1.26742
1.26829
1.2692
1.27016
1.27118
1.27226
1.2734
1.27462
1.27592
1.27731
1.2788
1.28042
1.28217
1.2841
1.28624
1.28863
1.29134
1.29448
1.29818
1.30269
1.3085
1.31663
1.3281
1.34443
1.37662
1.1748
1.18449
1.19639
1.20623
1.21132
1.21391
1.21552
1.21669
1.21755
1.2182
1.21869
1.21907
1.21938
1.21963
1.21984
1.22001
1.22016
1.22028
1.22039
1.22048
1.22055
1.22062
1.22067
1.22072
1.22076
1.2208
1.22082
1.22085
1.22087
1.22088
1.22089
1.2209
1.22091
1.22091
1.22092
1.22092
1.22092
1.22092
1.22091
1.22091
1.22091
1.22091
1.22091
1.22091
1.22091
1.22092
1.22093
1.22093
1.22095
1.22096
1.22098
1.221
1.22103
1.22106
1.2211
1.22114
1.22119
1.22124
1.2213
1.22137
1.22144
1.22152
1.22161
1.22171
1.22181
1.22192
1.22204
1.22216
1.2223
1.22244
1.22259
1.22275
1.22291
1.22309
1.22327
1.22346
1.22365
1.22386
1.22407
1.22429
1.22451
1.22474
1.22498
1.22523
1.22548
1.22573
1.22599
1.22625
1.22652
1.22679
1.22707
1.22735
1.22763
1.22791
1.22819
1.22847
1.22875
1.22903
1.22931
1.22959
1.22986
1.23013
1.23039
1.23065
1.23091
1.23115
1.2314
1.23163
1.23186
1.23208
1.23229
1.23249
1.23268
1.23286
1.23303
1.23319
1.23334
1.23348
1.23361
1.23373
1.23383
1.23393
1.23402
1.23409
1.23416
1.23421
1.23426
1.2343
1.23433
1.23435
1.23437
1.23437
1.23438
1.23437
1.23436
1.23435
1.23433
1.23431
1.23428
1.23425
1.23422
1.23419
1.23415
1.23411
1.23407
1.23403
1.23399
1.23395
1.23391
1.23387
1.23382
1.23378
1.23374
1.2337
1.23367
1.23363
1.23359
1.23356
1.23353
1.23349
1.23346
1.23344
1.23341
1.23339
1.23336
1.23335
1.23333
1.23331
1.2333
1.23328
1.23327
1.23327
1.23326
1.23325
1.23325
1.23325
1.23325
1.23325
1.23326
1.23326
1.23327
1.23328
1.23329
1.2333
1.23331
1.23332
1.23334
1.23335
1.23337
1.23339
1.23341
1.23342
1.23344
1.23346
1.23348
1.23351
1.23353
1.23355
1.23357
1.2336
1.23362
1.23364
1.23367
1.23369
1.23372
1.23375
1.23377
1.2338
1.23383
1.23386
1.23389
1.23392
1.23395
1.23399
1.23403
1.23406
1.2341
1.23415
1.23419
1.23424
1.23429
1.23434
1.2344
1.23446
1.23452
1.23459
1.23466
1.23474
1.23482
1.23491
1.235
1.23509
1.2352
1.23531
1.23542
1.23555
1.23567
1.23581
1.23596
1.23611
1.23627
1.23644
1.23661
1.2368
1.237
1.2372
1.23741
1.23763
1.23787
1.23811
1.23836
1.23862
1.23889
1.23917
1.23946
1.23976
1.24007
1.24039
1.24071
1.24105
1.24139
1.24174
1.2421
1.24246
1.24284
1.24321
1.2436
1.24398
1.24438
1.24477
1.24517
1.24556
1.24596
1.24636
1.24675
1.24715
1.24754
1.24792
1.2483
1.24868
1.24904
1.2494
1.24975
1.25009
1.25043
1.25075
1.25105
1.25135
1.25164
1.25191
1.25217
1.25242
1.25266
1.25289
1.2531
1.2533
1.25349
1.25367
1.25383
1.25399
1.25414
1.25427
1.2544
1.25452
1.25463
1.25473
1.25482
1.25491
1.25499
1.25506
1.25513
1.25519
1.25524
1.25529
1.25533
1.25537
1.25541
1.25544
1.25546
1.25549
1.25551
1.25552
1.25554
1.25555
1.25556
1.25556
1.25557
1.25557
1.25557
1.25558
1.25558
1.25558
1.25558
1.25559
1.2556
1.25561
1.25562
1.25564
1.25566
1.25568
1.25572
1.25576
1.2558
1.25586
1.25593
1.256
1.25609
1.25619
1.2563
1.25642
1.25656
1.25671
1.25688
1.25707
1.25728
1.2575
1.25775
1.25802
1.25831
1.25862
1.25895
1.25931
1.2597
1.26011
1.26055
1.26102
1.26152
1.26205
1.26261
1.26321
1.26383
1.2645
1.2652
1.26594
1.26672
1.26755
1.26842
1.26934
1.27031
1.27134
1.27243
1.27359
1.27482
1.27614
1.27755
1.27907
1.28072
1.28252
1.28451
1.28671
1.28919
1.29203
1.29533
1.29928
1.30415
1.31029
1.31826
1.32986
1.35029
1.38286
1.1945
1.19258
1.1998
1.20583
1.20961
1.21232
1.21428
1.21567
1.21667
1.21743
1.21803
1.2185
1.21888
1.21919
1.21944
1.21966
1.21984
1.21999
1.22012
1.22023
1.22033
1.22041
1.22048
1.22054
1.2206
1.22064
1.22068
1.22071
1.22074
1.22076
1.22078
1.22079
1.2208
1.22081
1.22082
1.22083
1.22083
1.22083
1.22083
1.22084
1.22084
1.22084
1.22084
1.22085
1.22085
1.22086
1.22087
1.22088
1.22089
1.22091
1.22093
1.22096
1.22099
1.22102
1.22106
1.2211
1.22115
1.22121
1.22127
1.22134
1.22141
1.22149
1.22158
1.22168
1.22178
1.2219
1.22202
1.22214
1.22228
1.22242
1.22257
1.22273
1.2229
1.22308
1.22326
1.22345
1.22365
1.22385
1.22407
1.22429
1.22451
1.22475
1.22498
1.22523
1.22548
1.22574
1.226
1.22626
1.22653
1.2268
1.22708
1.22736
1.22763
1.22792
1.2282
1.22848
1.22876
1.22904
1.22932
1.22959
1.22987
1.23014
1.2304
1.23066
1.23091
1.23116
1.2314
1.23164
1.23186
1.23208
1.23229
1.23249
1.23268
1.23286
1.23303
1.23319
1.23334
1.23347
1.2336
1.23372
1.23382
1.23392
1.234
1.23408
1.23414
1.2342
1.23424
1.23428
1.23431
1.23433
1.23434
1.23435
1.23435
1.23435
1.23434
1.23432
1.23431
1.23428
1.23426
1.23423
1.2342
1.23416
1.23413
1.23409
1.23405
1.23401
1.23397
1.23393
1.23389
1.23385
1.23381
1.23377
1.23373
1.23369
1.23365
1.23361
1.23358
1.23355
1.23351
1.23348
1.23345
1.23343
1.2334
1.23338
1.23336
1.23334
1.23332
1.2333
1.23329
1.23328
1.23327
1.23326
1.23325
1.23325
1.23325
1.23325
1.23325
1.23325
1.23325
1.23326
1.23327
1.23328
1.23329
1.2333
1.23331
1.23332
1.23334
1.23335
1.23337
1.23339
1.2334
1.23342
1.23344
1.23346
1.23348
1.23351
1.23353
1.23355
1.23357
1.2336
1.23362
1.23364
1.23367
1.23369
1.23372
1.23375
1.23377
1.2338
1.23383
1.23386
1.23389
1.23392
1.23396
1.23399
1.23403
1.23407
1.23411
1.23415
1.23419
1.23424
1.23429
1.23435
1.2344
1.23446
1.23453
1.23459
1.23467
1.23474
1.23483
1.23491
1.235
1.2351
1.23521
1.23532
1.23543
1.23556
1.23569
1.23582
1.23597
1.23612
1.23628
1.23645
1.23663
1.23682
1.23701
1.23722
1.23743
1.23765
1.23789
1.23813
1.23838
1.23864
1.23891
1.23919
1.23948
1.23978
1.24009
1.24041
1.24074
1.24107
1.24142
1.24177
1.24213
1.24249
1.24287
1.24324
1.24363
1.24401
1.2444
1.2448
1.24519
1.24559
1.24599
1.24639
1.24678
1.24717
1.24756
1.24795
1.24833
1.2487
1.24906
1.24942
1.24977
1.25011
1.25044
1.25076
1.25106
1.25136
1.25164
1.25192
1.25218
1.25242
1.25266
1.25288
1.25309
1.25329
1.25348
1.25366
1.25383
1.25398
1.25413
1.25426
1.25439
1.25451
1.25462
1.25472
1.25481
1.2549
1.25498
1.25505
1.25511
1.25517
1.25523
1.25528
1.25532
1.25536
1.25539
1.25543
1.25545
1.25548
1.25549
1.25551
1.25552
1.25554
1.25554
1.25555
1.25556
1.25556
1.25556
1.25557
1.25557
1.25557
1.25557
1.25558
1.25559
1.2556
1.25561
1.25563
1.25565
1.25568
1.25571
1.25575
1.2558
1.25586
1.25593
1.256
1.25609
1.25619
1.2563
1.25643
1.25657
1.25672
1.2569
1.25709
1.25729
1.25752
1.25777
1.25804
1.25833
1.25864
1.25898
1.25934
1.25973
1.26015
1.26059
1.26106
1.26157
1.2621
1.26266
1.26326
1.26389
1.26456
1.26527
1.26601
1.2668
1.26763
1.2685
1.26943
1.27041
1.27144
1.27254
1.2737
1.27494
1.27626
1.27769
1.27922
1.28088
1.28269
1.28469
1.28691
1.28941
1.29226
1.29556
1.29946
1.30417
1.31007
1.31771
1.32728
1.33767
1.34773
1.20251
1.20154
1.20381
1.20652
1.2095
1.2119
1.21367
1.215
1.21604
1.21685
1.2175
1.21802
1.21845
1.2188
1.21909
1.21934
1.21955
1.21972
1.21988
1.22001
1.22012
1.22022
1.2203
1.22037
1.22044
1.22049
1.22054
1.22058
1.22061
1.22064
1.22066
1.22068
1.2207
1.22072
1.22073
1.22074
1.22074
1.22075
1.22075
1.22076
1.22076
1.22077
1.22077
1.22078
1.22079
1.2208
1.22081
1.22082
1.22084
1.22086
1.22088
1.22091
1.22094
1.22097
1.22101
1.22106
1.22111
1.22117
1.22123
1.2213
1.22137
1.22146
1.22155
1.22165
1.22175
1.22187
1.22199
1.22212
1.22225
1.2224
1.22255
1.22271
1.22288
1.22306
1.22324
1.22344
1.22364
1.22384
1.22406
1.22428
1.2245
1.22474
1.22498
1.22522
1.22548
1.22573
1.22599
1.22626
1.22653
1.2268
1.22708
1.22736
1.22764
1.22792
1.2282
1.22849
1.22877
1.22905
1.22933
1.2296
1.22988
1.23015
1.23041
1.23067
1.23092
1.23117
1.23141
1.23164
1.23187
1.23209
1.23229
1.23249
1.23268
1.23286
1.23303
1.23319
1.23334
1.23347
1.2336
1.23371
1.23382
1.23391
1.23399
1.23407
1.23413
1.23418
1.23423
1.23426
1.23429
1.23431
1.23433
1.23433
1.23433
1.23433
1.23432
1.2343
1.23428
1.23426
1.23423
1.23421
1.23417
1.23414
1.2341
1.23407
1.23403
1.23399
1.23395
1.23391
1.23387
1.23383
1.23379
1.23375
1.23371
1.23367
1.23363
1.2336
1.23356
1.23353
1.2335
1.23347
1.23344
1.23342
1.23339
1.23337
1.23335
1.23333
1.23331
1.2333
1.23328
1.23327
1.23326
1.23325
1.23325
1.23324
1.23324
1.23324
1.23324
1.23325
1.23325
1.23326
1.23327
1.23327
1.23328
1.2333
1.23331
1.23332
1.23334
1.23335
1.23337
1.23339
1.2334
1.23342
1.23344
1.23346
1.23348
1.23351
1.23353
1.23355
1.23357
1.2336
1.23362
1.23364
1.23367
1.23369
1.23372
1.23375
1.23377
1.2338
1.23383
1.23386
1.23389
1.23392
1.23396
1.23399
1.23403
1.23407
1.23411
1.23415
1.2342
1.23424
1.23429
1.23435
1.2344
1.23446
1.23453
1.2346
1.23467
1.23475
1.23483
1.23492
1.23501
1.23511
1.23521
1.23532
1.23544
1.23556
1.23569
1.23583
1.23597
1.23613
1.23629
1.23646
1.23664
1.23682
1.23702
1.23723
1.23744
1.23766
1.2379
1.23814
1.23839
1.23865
1.23893
1.23921
1.2395
1.2398
1.24011
1.24043
1.24076
1.24109
1.24144
1.24179
1.24215
1.24252
1.24289
1.24327
1.24365
1.24404
1.24443
1.24483
1.24522
1.24562
1.24602
1.24641
1.24681
1.2472
1.24759
1.24797
1.24835
1.24872
1.24909
1.24945
1.24979
1.25013
1.25046
1.25078
1.25108
1.25138
1.25166
1.25193
1.25219
1.25243
1.25267
1.25289
1.2531
1.25329
1.25348
1.25366
1.25382
1.25398
1.25412
1.25426
1.25438
1.2545
1.25461
1.25471
1.2548
1.25489
1.25496
1.25504
1.2551
1.25516
1.25522
1.25527
1.25531
1.25535
1.25538
1.25541
1.25544
1.25546
1.25548
1.2555
1.25551
1.25552
1.25553
1.25554
1.25554
1.25555
1.25555
1.25555
1.25556
1.25556
1.25556
1.25557
1.25558
1.25559
1.2556
1.25562
1.25564
1.25567
1.2557
1.25574
1.25579
1.25585
1.25592
1.25599
1.25608
1.25618
1.25629
1.25642
1.25656
1.25672
1.25689
1.25708
1.25729
1.25752
1.25777
1.25804
1.25833
1.25865
1.25899
1.25935
1.25974
1.26016
1.2606
1.26108
1.26158
1.26212
1.26268
1.26328
1.26392
1.26459
1.2653
1.26604
1.26683
1.26766
1.26854
1.26947
1.27044
1.27148
1.27257
1.27374
1.27497
1.2763
1.27771
1.27924
1.28089
1.28269
1.28466
1.28685
1.28929
1.29205
1.29522
1.29889
1.3032
1.30824
1.3141
1.32061
1.3259
1.32607
1.20687
1.20641
1.20699
1.2085
1.21037
1.21205
1.2135
1.2147
1.21568
1.21647
1.21712
1.21766
1.2181
1.21848
1.21879
1.21906
1.21928
1.21948
1.21965
1.2198
1.21992
1.22003
1.22013
1.22021
1.22028
1.22035
1.2204
1.22045
1.22049
1.22052
1.22055
1.22058
1.2206
1.22062
1.22063
1.22065
1.22066
1.22067
1.22067
1.22068
1.22069
1.2207
1.2207
1.22071
1.22072
1.22073
1.22074
1.22076
1.22078
1.2208
1.22082
1.22085
1.22088
1.22092
1.22096
1.22101
1.22106
1.22112
1.22118
1.22125
1.22133
1.22142
1.22151
1.22161
1.22171
1.22183
1.22195
1.22208
1.22222
1.22237
1.22252
1.22268
1.22285
1.22303
1.22322
1.22341
1.22361
1.22382
1.22404
1.22426
1.22449
1.22472
1.22496
1.22521
1.22546
1.22572
1.22599
1.22625
1.22652
1.2268
1.22708
1.22736
1.22764
1.22792
1.22821
1.22849
1.22877
1.22906
1.22933
1.22961
1.22988
1.23015
1.23042
1.23068
1.23093
1.23118
1.23142
1.23166
1.23188
1.2321
1.23231
1.2325
1.23269
1.23287
1.23304
1.2332
1.23334
1.23348
1.2336
1.23372
1.23382
1.23391
1.23399
1.23406
1.23412
1.23418
1.23422
1.23425
1.23428
1.2343
1.23431
1.23432
1.23432
1.23431
1.2343
1.23428
1.23426
1.23424
1.23421
1.23419
1.23415
1.23412
1.23408
1.23405
1.23401
1.23397
1.23393
1.23389
1.23385
1.23381
1.23377
1.23373
1.23369
1.23366
1.23362
1.23358
1.23355
1.23352
1.23349
1.23346
1.23343
1.2334
1.23338
1.23336
1.23334
1.23332
1.2333
1.23329
1.23328
1.23326
1.23326
1.23325
1.23324
1.23324
1.23324
1.23324
1.23324
1.23325
1.23325
1.23326
1.23326
1.23327
1.23328
1.2333
1.23331
1.23332
1.23334
1.23335
1.23337
1.23339
1.23341
1.23343
1.23345
1.23347
1.23349
1.23351
1.23353
1.23355
1.23357
1.2336
1.23362
1.23365
1.23367
1.2337
1.23372
1.23375
1.23377
1.2338
1.23383
1.23386
1.23389
1.23392
1.23396
1.23399
1.23403
1.23407
1.23411
1.23415
1.2342
1.23424
1.23429
1.23435
1.2344
1.23446
1.23453
1.2346
1.23467
1.23475
1.23483
1.23491
1.23501
1.23511
1.23521
1.23532
1.23544
1.23556
1.23569
1.23583
1.23597
1.23613
1.23629
1.23646
1.23664
1.23683
1.23702
1.23723
1.23744
1.23767
1.2379
1.23814
1.2384
1.23866
1.23893
1.23921
1.23951
1.23981
1.24012
1.24044
1.24077
1.2411
1.24145
1.2418
1.24216
1.24253
1.24291
1.24329
1.24367
1.24406
1.24445
1.24485
1.24525
1.24564
1.24604
1.24644
1.24684
1.24723
1.24762
1.248
1.24838
1.24875
1.24912
1.24948
1.24982
1.25016
1.25049
1.2508
1.25111
1.2514
1.25168
1.25195
1.2522
1.25245
1.25268
1.2529
1.25311
1.2533
1.25349
1.25366
1.25383
1.25398
1.25412
1.25426
1.25438
1.2545
1.2546
1.2547
1.25479
1.25488
1.25496
1.25503
1.25509
1.25515
1.25521
1.25526
1.2553
1.25534
1.25537
1.2554
1.25543
1.25545
1.25547
1.25549
1.2555
1.25551
1.25552
1.25553
1.25553
1.25554
1.25554
1.25554
1.25555
1.25555
1.25555
1.25556
1.25556
1.25557
1.25559
1.2556
1.25563
1.25565
1.25569
1.25573
1.25578
1.25583
1.2559
1.25598
1.25606
1.25616
1.25627
1.2564
1.25654
1.2567
1.25687
1.25706
1.25727
1.2575
1.25775
1.25802
1.25831
1.25863
1.25897
1.25934
1.25973
1.26015
1.26059
1.26107
1.26157
1.26211
1.26267
1.26327
1.26391
1.26458
1.26529
1.26603
1.26682
1.26765
1.26853
1.26945
1.27042
1.27145
1.27254
1.2737
1.27492
1.27623
1.27763
1.27913
1.28075
1.28251
1.28442
1.28653
1.28886
1.29147
1.29439
1.29767
1.30137
1.30545
1.30963
1.31338
1.31597
1.31528
1.20992
1.20939
1.20952
1.21034
1.21142
1.21259
1.21371
1.2147
1.21555
1.21627
1.21689
1.21741
1.21785
1.21822
1.21855
1.21882
1.21906
1.21927
1.21945
1.21961
1.21974
1.21986
1.21997
1.22006
1.22014
1.22021
1.22027
1.22032
1.22037
1.22041
1.22044
1.22047
1.2205
1.22052
1.22054
1.22056
1.22057
1.22058
1.22059
1.2206
1.22061
1.22062
1.22063
1.22064
1.22065
1.22066
1.22068
1.22069
1.22071
1.22073
1.22076
1.22079
1.22082
1.22086
1.2209
1.22095
1.221
1.22106
1.22113
1.2212
1.22128
1.22137
1.22146
1.22156
1.22167
1.22178
1.22191
1.22204
1.22218
1.22233
1.22248
1.22265
1.22282
1.223
1.22319
1.22338
1.22358
1.22379
1.22401
1.22423
1.22446
1.2247
1.22494
1.22519
1.22545
1.22571
1.22597
1.22624
1.22651
1.22679
1.22707
1.22735
1.22764
1.22792
1.22821
1.22849
1.22878
1.22906
1.22934
1.22962
1.22989
1.23017
1.23043
1.23069
1.23095
1.2312
1.23144
1.23167
1.2319
1.23211
1.23232
1.23252
1.23271
1.23289
1.23305
1.23321
1.23336
1.23349
1.23361
1.23373
1.23383
1.23392
1.234
1.23407
1.23412
1.23417
1.23422
1.23425
1.23427
1.23429
1.2343
1.23431
1.2343
1.2343
1.23428
1.23427
1.23425
1.23422
1.2342
1.23417
1.23413
1.2341
1.23406
1.23403
1.23399
1.23395
1.23391
1.23387
1.23383
1.23379
1.23375
1.23371
1.23367
1.23364
1.2336
1.23357
1.23353
1.2335
1.23347
1.23344
1.23342
1.23339
1.23337
1.23335
1.23333
1.23331
1.23329
1.23328
1.23327
1.23326
1.23325
1.23325
1.23324
1.23324
1.23324
1.23324
1.23324
1.23324
1.23325
1.23326
1.23326
1.23327
1.23329
1.2333
1.23331
1.23333
1.23334
1.23336
1.23337
1.23339
1.23341
1.23343
1.23345
1.23347
1.23349
1.23351
1.23353
1.23355
1.23358
1.2336
1.23362
1.23365
1.23367
1.2337
1.23372
1.23375
1.23378
1.2338
1.23383
1.23386
1.23389
1.23392
1.23396
1.23399
1.23403
1.23407
1.23411
1.23415
1.23419
1.23424
1.23429
1.23435
1.2344
1.23446
1.23453
1.23459
1.23467
1.23474
1.23482
1.23491
1.235
1.2351
1.2352
1.23532
1.23543
1.23556
1.23569
1.23582
1.23597
1.23612
1.23628
1.23645
1.23663
1.23682
1.23702
1.23722
1.23744
1.23766
1.2379
1.23814
1.23839
1.23866
1.23893
1.23921
1.23951
1.23981
1.24012
1.24044
1.24077
1.24111
1.24146
1.24181
1.24217
1.24254
1.24292
1.2433
1.24369
1.24408
1.24447
1.24487
1.24527
1.24567
1.24607
1.24647
1.24687
1.24726
1.24765
1.24804
1.24842
1.24879
1.24915
1.24951
1.24986
1.25019
1.25052
1.25083
1.25114
1.25143
1.25171
1.25198
1.25223
1.25247
1.2527
1.25292
1.25312
1.25332
1.2535
1.25367
1.25383
1.25399
1.25413
1.25426
1.25438
1.2545
1.2546
1.2547
1.25479
1.25487
1.25495
1.25502
1.25509
1.25515
1.2552
1.25525
1.25529
1.25533
1.25536
1.25539
1.25542
1.25544
1.25546
1.25548
1.25549
1.2555
1.25551
1.25552
1.25552
1.25553
1.25553
1.25553
1.25553
1.25553
1.25554
1.25554
1.25555
1.25556
1.25557
1.25559
1.25561
1.25563
1.25567
1.25571
1.25575
1.25581
1.25587
1.25595
1.25603
1.25613
1.25625
1.25637
1.25651
1.25667
1.25684
1.25703
1.25724
1.25747
1.25772
1.25799
1.25828
1.25859
1.25893
1.2593
1.25969
1.26011
1.26055
1.26102
1.26153
1.26206
1.26263
1.26323
1.26386
1.26453
1.26524
1.26598
1.26676
1.26759
1.26846
1.26938
1.27034
1.27136
1.27244
1.27358
1.27479
1.27607
1.27744
1.2789
1.28047
1.28217
1.284
1.28599
1.28817
1.29056
1.29318
1.29602
1.29905
1.30216
1.30509
1.30735
1.30851
1.30824
1.21201
1.21145
1.21143
1.21183
1.21249
1.21328
1.2141
1.21488
1.21559
1.21622
1.21678
1.21726
1.21768
1.21804
1.21836
1.21864
1.21888
1.21909
1.21928
1.21944
1.21958
1.21971
1.21982
1.21992
1.22
1.22008
1.22014
1.2202
1.22025
1.2203
1.22034
1.22037
1.2204
1.22043
1.22045
1.22047
1.22048
1.2205
1.22051
1.22052
1.22053
1.22055
1.22056
1.22057
1.22058
1.22059
1.22061
1.22063
1.22065
1.22067
1.2207
1.22073
1.22076
1.2208
1.22084
1.22089
1.22094
1.221
1.22107
1.22114
1.22122
1.22131
1.2214
1.22151
1.22161
1.22173
1.22186
1.22199
1.22213
1.22228
1.22244
1.2226
1.22278
1.22296
1.22314
1.22334
1.22355
1.22376
1.22397
1.2242
1.22443
1.22467
1.22491
1.22517
1.22542
1.22568
1.22595
1.22622
1.2265
1.22678
1.22706
1.22734
1.22763
1.22792
1.2282
1.22849
1.22878
1.22906
1.22935
1.22963
1.2299
1.23017
1.23044
1.2307
1.23096
1.23121
1.23145
1.23169
1.23191
1.23213
1.23234
1.23254
1.23273
1.23291
1.23307
1.23323
1.23337
1.23351
1.23363
1.23374
1.23384
1.23393
1.23401
1.23407
1.23413
1.23418
1.23422
1.23425
1.23427
1.23429
1.23429
1.2343
1.23429
1.23429
1.23427
1.23425
1.23423
1.23421
1.23418
1.23415
1.23412
1.23408
1.23405
1.23401
1.23397
1.23393
1.23389
1.23385
1.23381
1.23377
1.23373
1.2337
1.23366
1.23362
1.23359
1.23355
1.23352
1.23349
1.23346
1.23343
1.23341
1.23338
1.23336
1.23334
1.23332
1.2333
1.23329
1.23328
1.23326
1.23325
1.23325
1.23324
1.23324
1.23324
1.23323
1.23324
1.23324
1.23324
1.23325
1.23326
1.23327
1.23328
1.23329
1.2333
1.23331
1.23333
1.23334
1.23336
1.23338
1.23339
1.23341
1.23343
1.23345
1.23347
1.23349
1.23351
1.23354
1.23356
1.23358
1.2336
1.23363
1.23365
1.23368
1.2337
1.23373
1.23375
1.23378
1.23381
1.23383
1.23386
1.23389
1.23393
1.23396
1.23399
1.23403
1.23407
1.23411
1.23415
1.23419
1.23424
1.23429
1.23434
1.2344
1.23446
1.23452
1.23459
1.23466
1.23474
1.23482
1.2349
1.235
1.23509
1.2352
1.23531
1.23542
1.23555
1.23568
1.23581
1.23596
1.23611
1.23627
1.23644
1.23662
1.23681
1.23701
1.23721
1.23743
1.23765
1.23788
1.23813
1.23838
1.23865
1.23892
1.2392
1.2395
1.2398
1.24011
1.24043
1.24077
1.24111
1.24145
1.24181
1.24217
1.24254
1.24292
1.24331
1.24369
1.24409
1.24448
1.24488
1.24529
1.24569
1.24609
1.24649
1.24689
1.24729
1.24768
1.24807
1.24845
1.24883
1.24919
1.24955
1.2499
1.25023
1.25056
1.25087
1.25118
1.25147
1.25174
1.25201
1.25226
1.2525
1.25273
1.25295
1.25315
1.25334
1.25352
1.25369
1.25385
1.254
1.25414
1.25427
1.25439
1.2545
1.2546
1.2547
1.25479
1.25487
1.25495
1.25502
1.25508
1.25514
1.25519
1.25524
1.25528
1.25532
1.25536
1.25539
1.25541
1.25544
1.25545
1.25547
1.25548
1.25549
1.2555
1.25551
1.25551
1.25552
1.25552
1.25552
1.25552
1.25552
1.25552
1.25553
1.25553
1.25554
1.25555
1.25556
1.25558
1.25561
1.25564
1.25568
1.25572
1.25578
1.25584
1.25591
1.256
1.2561
1.25621
1.25633
1.25647
1.25662
1.25679
1.25698
1.25719
1.25742
1.25766
1.25793
1.25822
1.25854
1.25887
1.25924
1.25963
1.26004
1.26048
1.26096
1.26146
1.26199
1.26255
1.26315
1.26378
1.26445
1.26515
1.26589
1.26667
1.26748
1.26835
1.26925
1.27021
1.27121
1.27227
1.27339
1.27457
1.27582
1.27715
1.27856
1.28007
1.28168
1.28341
1.28527
1.28727
1.28941
1.2917
1.2941
1.29653
1.29886
1.30088
1.30232
1.30289
1.30266
1.21346
1.21297
1.21286
1.21304
1.21344
1.21398
1.21457
1.21517
1.21574
1.21628
1.21676
1.21719
1.21758
1.21792
1.21823
1.2185
1.21873
1.21895
1.21913
1.2193
1.21944
1.21957
1.21969
1.21979
1.21988
1.21996
1.22003
1.22009
1.22014
1.22019
1.22023
1.22027
1.2203
1.22033
1.22036
1.22038
1.2204
1.22041
1.22043
1.22044
1.22046
1.22047
1.22048
1.22049
1.22051
1.22052
1.22054
1.22056
1.22058
1.2206
1.22063
1.22066
1.22069
1.22073
1.22078
1.22082
1.22088
1.22094
1.22101
1.22108
1.22116
1.22125
1.22134
1.22145
1.22155
1.22167
1.2218
1.22193
1.22208
1.22223
1.22238
1.22255
1.22273
1.22291
1.2231
1.2233
1.2235
1.22371
1.22393
1.22416
1.22439
1.22463
1.22488
1.22513
1.22539
1.22565
1.22592
1.2262
1.22647
1.22676
1.22704
1.22733
1.22762
1.22791
1.2282
1.22849
1.22878
1.22906
1.22935
1.22963
1.22991
1.23018
1.23045
1.23072
1.23098
1.23123
1.23147
1.23171
1.23194
1.23215
1.23236
1.23256
1.23275
1.23293
1.2331
1.23325
1.2334
1.23353
1.23365
1.23376
1.23386
1.23394
1.23402
1.23408
1.23414
1.23419
1.23422
1.23425
1.23427
1.23428
1.23429
1.23429
1.23429
1.23428
1.23426
1.23424
1.23422
1.23419
1.23416
1.23413
1.2341
1.23406
1.23403
1.23399
1.23395
1.23391
1.23387
1.23383
1.23379
1.23375
1.23372
1.23368
1.23364
1.23361
1.23357
1.23354
1.23351
1.23348
1.23345
1.23342
1.23339
1.23337
1.23335
1.23333
1.23331
1.2333
1.23328
1.23327
1.23326
1.23325
1.23324
1.23324
1.23323
1.23323
1.23323
1.23324
1.23324
1.23324
1.23325
1.23326
1.23327
1.23328
1.23329
1.2333
1.23332
1.23333
1.23335
1.23336
1.23338
1.2334
1.23342
1.23344
1.23346
1.23348
1.2335
1.23352
1.23354
1.23356
1.23359
1.23361
1.23363
1.23366
1.23368
1.23371
1.23373
1.23376
1.23378
1.23381
1.23384
1.23387
1.2339
1.23393
1.23396
1.23399
1.23403
1.23407
1.23411
1.23415
1.23419
1.23424
1.23429
1.23434
1.23439
1.23445
1.23452
1.23458
1.23465
1.23473
1.23481
1.2349
1.23499
1.23508
1.23519
1.23529
1.23541
1.23553
1.23566
1.2358
1.23594
1.2361
1.23626
1.23643
1.2366
1.23679
1.23699
1.23719
1.23741
1.23763
1.23787
1.23811
1.23836
1.23863
1.2389
1.23919
1.23948
1.23978
1.2401
1.24042
1.24075
1.24109
1.24144
1.2418
1.24217
1.24254
1.24292
1.24331
1.2437
1.24409
1.24449
1.2449
1.2453
1.24571
1.24611
1.24652
1.24692
1.24732
1.24772
1.24811
1.24849
1.24887
1.24923
1.24959
1.24994
1.25028
1.25061
1.25092
1.25122
1.25151
1.25179
1.25205
1.2523
1.25254
1.25277
1.25298
1.25318
1.25337
1.25355
1.25371
1.25387
1.25402
1.25415
1.25428
1.2544
1.25451
1.25461
1.25471
1.25479
1.25487
1.25495
1.25502
1.25508
1.25514
1.25519
1.25524
1.25528
1.25532
1.25535
1.25538
1.25541
1.25543
1.25545
1.25546
1.25547
1.25549
1.25549
1.2555
1.2555
1.2555
1.2555
1.2555
1.2555
1.2555
1.2555
1.25551
1.25551
1.25552
1.25553
1.25554
1.25556
1.25558
1.25561
1.25564
1.25569
1.25574
1.2558
1.25587
1.25595
1.25605
1.25616
1.25628
1.25641
1.25657
1.25673
1.25692
1.25713
1.25735
1.25759
1.25786
1.25815
1.25846
1.25879
1.25915
1.25954
1.25995
1.26039
1.26086
1.26136
1.26189
1.26245
1.26304
1.26367
1.26433
1.26502
1.26576
1.26653
1.26733
1.26818
1.26908
1.27002
1.271
1.27204
1.27313
1.27428
1.27549
1.27677
1.27812
1.27956
1.28107
1.28269
1.2844
1.2862
1.2881
1.29007
1.29206
1.29399
1.29574
1.29715
1.29809
1.2984
1.29808
1.21451
1.21411
1.21396
1.21402
1.21426
1.21462
1.21505
1.2155
1.21596
1.2164
1.21682
1.2172
1.21755
1.21786
1.21814
1.2184
1.21863
1.21883
1.21901
1.21918
1.21932
1.21945
1.21957
1.21967
1.21976
1.21985
1.21992
1.21998
1.22004
1.22009
1.22014
1.22018
1.22021
1.22024
1.22027
1.22029
1.22031
1.22033
1.22035
1.22036
1.22038
1.22039
1.22041
1.22042
1.22043
1.22045
1.22047
1.22049
1.22051
1.22053
1.22056
1.22059
1.22062
1.22066
1.22071
1.22076
1.22081
1.22087
1.22094
1.22101
1.22109
1.22118
1.22128
1.22138
1.22149
1.22161
1.22174
1.22187
1.22202
1.22217
1.22233
1.22249
1.22267
1.22285
1.22304
1.22324
1.22345
1.22366
1.22389
1.22411
1.22435
1.22459
1.22484
1.22509
1.22535
1.22562
1.22589
1.22617
1.22645
1.22673
1.22702
1.22731
1.2276
1.22789
1.22819
1.22848
1.22877
1.22906
1.22935
1.22963
1.22991
1.23019
1.23046
1.23073
1.23099
1.23124
1.23149
1.23173
1.23196
1.23218
1.23239
1.23259
1.23278
1.23296
1.23313
1.23328
1.23343
1.23356
1.23368
1.23378
1.23388
1.23396
1.23404
1.2341
1.23415
1.2342
1.23423
1.23426
1.23427
1.23429
1.23429
1.23429
1.23428
1.23427
1.23425
1.23423
1.23421
1.23418
1.23415
1.23412
1.23408
1.23405
1.23401
1.23397
1.23393
1.23389
1.23385
1.23381
1.23377
1.23374
1.2337
1.23366
1.23362
1.23359
1.23356
1.23352
1.23349
1.23346
1.23343
1.23341
1.23338
1.23336
1.23334
1.23332
1.2333
1.23329
1.23327
1.23326
1.23325
1.23325
1.23324
1.23324
1.23323
1.23323
1.23323
1.23324
1.23324
1.23325
1.23325
1.23326
1.23327
1.23328
1.23329
1.23331
1.23332
1.23334
1.23335
1.23337
1.23339
1.23341
1.23342
1.23344
1.23346
1.23348
1.23351
1.23353
1.23355
1.23357
1.23359
1.23362
1.23364
1.23366
1.23369
1.23371
1.23373
1.23376
1.23379
1.23381
1.23384
1.23387
1.2339
1.23393
1.23396
1.23399
1.23403
1.23407
1.2341
1.23414
1.23419
1.23423
1.23428
1.23433
1.23439
1.23445
1.23451
1.23457
1.23464
1.23472
1.2348
1.23488
1.23497
1.23507
1.23517
1.23528
1.23539
1.23551
1.23564
1.23578
1.23592
1.23607
1.23623
1.2364
1.23658
1.23677
1.23696
1.23717
1.23738
1.23761
1.23784
1.23808
1.23834
1.2386
1.23888
1.23916
1.23946
1.23976
1.24007
1.2404
1.24073
1.24107
1.24143
1.24179
1.24215
1.24253
1.24291
1.2433
1.24369
1.24409
1.2445
1.2449
1.24531
1.24572
1.24613
1.24654
1.24695
1.24735
1.24775
1.24814
1.24853
1.24891
1.24928
1.24964
1.24999
1.25033
1.25066
1.25097
1.25127
1.25156
1.25184
1.2521
1.25235
1.25258
1.25281
1.25302
1.25322
1.2534
1.25358
1.25374
1.25389
1.25404
1.25417
1.2543
1.25441
1.25452
1.25462
1.25471
1.2548
1.25488
1.25495
1.25502
1.25508
1.25514
1.25519
1.25523
1.25527
1.25531
1.25535
1.25537
1.2554
1.25542
1.25544
1.25546
1.25547
1.25548
1.25548
1.25549
1.25549
1.25549
1.25549
1.25549
1.25549
1.25549
1.25549
1.25549
1.25549
1.25549
1.2555
1.25551
1.25553
1.25555
1.25557
1.25561
1.25565
1.2557
1.25575
1.25582
1.2559
1.25599
1.2561
1.25622
1.25635
1.2565
1.25666
1.25685
1.25705
1.25727
1.25751
1.25777
1.25806
1.25837
1.2587
1.25905
1.25944
1.25984
1.26028
1.26075
1.26124
1.26176
1.26232
1.2629
1.26352
1.26417
1.26486
1.26558
1.26634
1.26714
1.26798
1.26885
1.26977
1.27074
1.27175
1.27281
1.27392
1.27508
1.27631
1.27759
1.27895
1.28036
1.28185
1.28341
1.28503
1.28669
1.28837
1.29001
1.29153
1.29286
1.29387
1.29449
1.29465
1.2943
1.21531
1.21497
1.21481
1.21481
1.21495
1.21519
1.2155
1.21584
1.2162
1.21657
1.21691
1.21724
1.21755
1.21784
1.2181
1.21833
1.21855
1.21874
1.21892
1.21908
1.21922
1.21935
1.21946
1.21957
1.21966
1.21974
1.21982
1.21988
1.21994
1.22
1.22004
1.22008
1.22012
1.22015
1.22018
1.22021
1.22023
1.22025
1.22027
1.22028
1.2203
1.22031
1.22033
1.22034
1.22036
1.22038
1.22039
1.22041
1.22043
1.22046
1.22049
1.22052
1.22055
1.22059
1.22064
1.22069
1.22074
1.2208
1.22087
1.22094
1.22102
1.22111
1.22121
1.22131
1.22142
1.22154
1.22167
1.22181
1.22195
1.2221
1.22226
1.22243
1.22261
1.2228
1.22299
1.22319
1.2234
1.22361
1.22383
1.22406
1.2243
1.22454
1.22479
1.22505
1.22531
1.22558
1.22585
1.22613
1.22641
1.2267
1.22699
1.22728
1.22758
1.22788
1.22817
1.22847
1.22876
1.22906
1.22935
1.22964
1.22992
1.2302
1.23047
1.23074
1.23101
1.23126
1.23151
1.23175
1.23198
1.2322
1.23242
1.23262
1.23281
1.23299
1.23316
1.23331
1.23346
1.23359
1.23371
1.23381
1.23391
1.23399
1.23406
1.23412
1.23417
1.23421
1.23424
1.23426
1.23428
1.23429
1.23429
1.23428
1.23427
1.23426
1.23424
1.23422
1.23419
1.23417
1.23413
1.2341
1.23407
1.23403
1.23399
1.23395
1.23391
1.23387
1.23383
1.2338
1.23376
1.23372
1.23368
1.23364
1.23361
1.23357
1.23354
1.23351
1.23348
1.23345
1.23342
1.2334
1.23337
1.23335
1.23333
1.23331
1.2333
1.23328
1.23327
1.23326
1.23325
1.23324
1.23324
1.23323
1.23323
1.23323
1.23323
1.23324
1.23324
1.23325