# vtk DataFile Version 2.0
LBE mesh
ASCII
DATASET STRUCTURED_POINTS
DIMENSIONS 400 100 1
ASPECT_RATIO 1 1 1
ORIGIN 0 0 0
POINT_DATA 40000
SCALARS rho double 1
LOOKUP_TABLE default
0.945616
0.976373
0.985928
0.989414
0.991264
0.992268
0.992682
0.992742
0.992593
0.992341
0.992025
0.991691
0.991351
0.991034
0.990738
0.990485
0.990267
0.990101
0.989974
0.9899
0.989863
0.989875
0.989918
0.990003
0.990111
0.990252
0.990409
0.990591
0.990782
0.990993
0.991208
0.991441
0.991678
0.991934
0.992199
0.992489
0.992795
0.993133
0.993495
0.993897
0.994332
0.994811
0.995328
0.995892
0.996494
0.997139
0.997815
0.998522
0.999248
0.999987
1.00073
1.00146
1.00217
1.00285
1.00349
1.00409
1.00465
1.00515
1.00559
1.00599
1.00634
1.00665
1.00691
1.00714
1.00735
1.00753
1.00769
1.00785
1.00799
1.00814
1.00829
1.00844
1.0086
1.00878
1.00897
1.00918
1.0094
1.00965
1.0099
1.01018
1.01047
1.01077
1.01107
1.01138
1.01168
1.01197
1.01225
1.01252
1.01275
1.01297
1.01315
1.0133
1.01343
1.01353
1.01361
1.01367
1.01371
1.01374
1.01376
1.01377
1.01379
1.0138
1.01382
1.01384
1.01387
1.0139
1.01393
1.01397
1.01402
1.01407
1.01412
1.01417
1.01422
1.01428
1.01433
1.01438
1.01443
1.01448
1.01452
1.01457
1.01461
1.01465
1.01469
1.01472
1.01476
1.01479
1.01483
1.01486
1.01489
1.01492
1.01495
1.01498
1.015
1.01502
1.01504
1.01504
1.01504
1.01502
1.01499
1.01493
1.01485
1.01475
1.01461
1.01443
1.01421
1.01395
1.01365
1.0133
1.01291
1.01248
1.01202
1.01152
1.01101
1.01048
1.00995
1.00942
1.0089
1.00841
1.00793
1.00749
1.00707
1.0067
1.00635
1.00604
1.00577
1.00553
1.00533
1.00516
1.00501
1.0049
1.00481
1.00474
1.00469
1.00467
1.00465
1.00466
1.00468
1.00472
1.00478
1.00486
1.00497
1.0051
1.00527
1.00548
1.00572
1.00601
1.00635
1.00673
1.00715
1.00762
1.00813
1.00866
1.00921
1.00977
1.01033
1.01088
1.01141
1.0119
1.01235
1.01275
1.01311
1.01342
1.01367
1.01389
1.01405
1.01419
1.01429
1.01437
1.01442
1.01446
1.01449
1.01451
1.01452
1.01452
1.01453
1.01453
1.01453
1.01454
1.01454
1.01454
1.01454
1.01454
1.01454
1.01454
1.01454
1.01454
1.01454
1.01454
1.01454
1.01455
1.01455
1.01456
1.01458
1.0146
1.01462
1.01466
1.01471
1.01477
1.01485
1.01495
1.01508
1.01522
1.0154
1.01559
1.01582
1.01607
1.01635
1.01664
1.01696
1.0173
1.01765
1.01801
1.01838
1.01875
1.01912
1.01949
1.01986
1.02022
1.02058
1.02093
1.02128
1.02162
1.02195
1.02227
1.02259
1.02289
1.02318
1.02347
1.02374
1.02399
1.02423
1.02444
1.02463
1.0248
1.02494
1.02505
1.02513
1.02517
1.02519
1.02518
1.02514
1.02508
1.025
1.0249
1.02478
1.02466
1.02452
1.02439
1.02425
1.02412
1.02399
1.02387
1.02375
1.02365
1.02355
1.02346
1.02338
1.02331
1.02325
1.0232
1.02317
1.02314
1.02312
1.02311
1.02311
1.02312
1.02314
1.02317
1.02322
1.02329
1.02337
1.02347
1.0236
1.02376
1.02395
1.02418
1.02445
1.02477
1.02513
1.02554
1.02599
1.02647
1.02698
1.02751
1.02804
1.02856
1.02905
1.0295
1.0299
1.03023
1.0305
1.0307
1.03084
1.0309
1.03091
1.03087
1.03079
1.03067
1.03052
1.03035
1.03017
1.02998
1.02978
1.02957
1.02936
1.02915
1.02893
1.02872
1.0285
1.02828
1.02806
1.02785
1.02764
1.02745
1.02726
1.02709
1.02694
1.02681
1.0267
1.02662
1.02656
1.02653
1.02653
1.02655
1.0266
1.02667
1.02677
1.02688
1.02701
1.02716
1.02732
1.0275
1.02768
1.02788
1.0281
1.02832
1.02856
1.02882
1.02909
1.02939
1.0297
1.03005
1.03043
1.03086
1.03134
1.03189
1.03252
1.03326
1.03413
1.03518
1.03645
1.03802
1.03997
1.04243
1.04562
1.04993
1.05614
1.06505
1.07854
1.10647
0.958073
0.971993
0.981297
0.986656
0.989337
0.990715
0.991415
0.991731
0.991787
0.991697
0.991507
0.991278
0.99102
0.990774
0.990534
0.990331
0.990149
0.990017
0.989913
0.989862
0.989839
0.989866
0.989916
0.990011
0.99012
0.990268
0.990424
0.990611
0.990798
0.991012
0.991224
0.991461
0.991696
0.991957
0.992222
0.992518
0.992826
0.993172
0.993538
0.993949
0.994388
0.994876
0.995397
0.995967
0.99657
0.997215
0.997887
0.998588
0.999303
1.00003
1.00075
1.00147
1.00216
1.00283
1.00345
1.00404
1.00458
1.00507
1.00551
1.00591
1.00626
1.00656
1.00683
1.00707
1.00728
1.00747
1.00764
1.0078
1.00795
1.0081
1.00826
1.00841
1.00858
1.00876
1.00895
1.00915
1.00938
1.00961
1.00987
1.01014
1.01042
1.01071
1.01101
1.01131
1.01161
1.0119
1.01217
1.01243
1.01267
1.01288
1.01306
1.01322
1.01335
1.01345
1.01353
1.01359
1.01364
1.01367
1.01369
1.01371
1.01373
1.01374
1.01376
1.01379
1.01381
1.01384
1.01388
1.01392
1.01397
1.01402
1.01407
1.01412
1.01418
1.01424
1.01429
1.01434
1.0144
1.01445
1.01449
1.01454
1.01458
1.01463
1.01467
1.0147
1.01474
1.01478
1.01481
1.01485
1.01488
1.01491
1.01494
1.01496
1.01499
1.015
1.01502
1.01502
1.01501
1.01499
1.01495
1.01489
1.01481
1.0147
1.01456
1.01438
1.01416
1.01391
1.01361
1.01327
1.01289
1.01247
1.01201
1.01153
1.01103
1.01051
1.00998
1.00946
1.00895
1.00846
1.00798
1.00754
1.00713
1.00675
1.0064
1.00609
1.00582
1.00558
1.00537
1.00519
1.00505
1.00493
1.00484
1.00478
1.00473
1.0047
1.00469
1.0047
1.00472
1.00476
1.00482
1.0049
1.00501
1.00514
1.00531
1.00551
1.00576
1.00604
1.00637
1.00674
1.00716
1.00762
1.00811
1.00863
1.00918
1.00973
1.01028
1.01082
1.01134
1.01183
1.01229
1.01269
1.01305
1.01337
1.01363
1.01385
1.01402
1.01416
1.01427
1.01435
1.01441
1.01445
1.01448
1.0145
1.01452
1.01453
1.01453
1.01453
1.01454
1.01454
1.01454
1.01454
1.01454
1.01454
1.01454
1.01454
1.01454
1.01454
1.01454
1.01454
1.01455
1.01455
1.01456
1.01457
1.01459
1.01461
1.01464
1.01468
1.01473
1.0148
1.01489
1.01499
1.01512
1.01527
1.01544
1.01564
1.01587
1.01612
1.0164
1.01669
1.01701
1.01734
1.01768
1.01803
1.01839
1.01876
1.01913
1.01949
1.01986
1.02022
1.02057
1.02092
1.02127
1.0216
1.02193
1.02226
1.02257
1.02287
1.02316
1.02345
1.02371
1.02396
1.02419
1.0244
1.02459
1.02475
1.02489
1.02499
1.02507
1.02512
1.02513
1.02512
1.02509
1.02503
1.02495
1.02486
1.02475
1.02463
1.0245
1.02437
1.02424
1.02412
1.02399
1.02387
1.02376
1.02366
1.02356
1.02348
1.0234
1.02333
1.02327
1.02322
1.02318
1.02315
1.02313
1.02312
1.02312
1.02313
1.02316
1.02319
1.02324
1.0233
1.02339
1.02349
1.02363
1.02379
1.02398
1.02422
1.0245
1.02482
1.02518
1.02559
1.02604
1.02652
1.02703
1.02755
1.02807
1.02858
1.02906
1.02949
1.02988
1.03021
1.03047
1.03066
1.03079
1.03086
1.03087
1.03083
1.03075
1.03063
1.03049
1.03033
1.03015
1.02996
1.02977
1.02956
1.02936
1.02915
1.02893
1.02872
1.0285
1.02829
1.02808
1.02787
1.02766
1.02747
1.02729
1.02712
1.02698
1.02685
1.02674
1.02666
1.0266
1.02657
1.02657
1.02659
1.02664
1.02671
1.0268
1.02691
1.02704
1.02719
1.02735
1.02752
1.02771
1.02791
1.02813
1.02836
1.0286
1.02886
1.02914
1.02944
1.02976
1.03011
1.03051
1.03094
1.03144
1.032
1.03266
1.03343
1.03435
1.03545
1.0368
1.03846
1.04055
1.04322
1.04669
1.05126
1.0574
1.06663
1.08292
1.10864
0.974196
0.976984
0.981974
0.985753
0.988129
0.989609
0.990468
0.990921
0.991106
0.99113
0.991046
0.990906
0.990729
0.990548
0.990367
0.99021
0.99007
0.989968
0.989892
0.98986
0.989854
0.989891
0.98995
0.990049
0.990164
0.990312
0.990469
0.990653
0.99084
0.99105
0.991261
0.991494
0.99173
0.991989
0.992257
0.992554
0.992867
0.993216
0.99359
0.994006
0.994452
0.994945
0.995472
0.996044
0.996647
0.997288
0.997953
0.998643
0.999342
1.00005
1.00075
1.00144
1.00211
1.00275
1.00336
1.00392
1.00445
1.00493
1.00537
1.00576
1.00611
1.00643
1.00671
1.00695
1.00717
1.00737
1.00756
1.00773
1.00789
1.00805
1.00821
1.00837
1.00854
1.00872
1.00891
1.00911
1.00933
1.00957
1.00981
1.01008
1.01035
1.01064
1.01093
1.01122
1.01151
1.01179
1.01206
1.01231
1.01254
1.01275
1.01293
1.01309
1.01322
1.01332
1.0134
1.01347
1.01351
1.01355
1.01357
1.01359
1.01361
1.01363
1.01365
1.01367
1.0137
1.01374
1.01378
1.01382
1.01387
1.01392
1.01397
1.01403
1.01409
1.01415
1.01421
1.01427
1.01433
1.01438
1.01444
1.01449
1.01454
1.01458
1.01463
1.01467
1.01471
1.01475
1.01479
1.01482
1.01486
1.01489
1.01491
1.01494
1.01496
1.01497
1.01498
1.01498
1.01496
1.01494
1.01489
1.01483
1.01474
1.01463
1.01448
1.0143
1.01409
1.01383
1.01354
1.01321
1.01283
1.01242
1.01198
1.01151
1.01102
1.01051
1.01
1.00948
1.00898
1.00849
1.00802
1.00757
1.00716
1.00678
1.00643
1.00612
1.00584
1.0056
1.0054
1.00522
1.00508
1.00497
1.00488
1.00481
1.00477
1.00474
1.00473
1.00474
1.00477
1.00481
1.00487
1.00495
1.00506
1.00519
1.00535
1.00555
1.00579
1.00607
1.00639
1.00676
1.00716
1.00761
1.0081
1.00861
1.00914
1.00968
1.01023
1.01076
1.01128
1.01177
1.01222
1.01263
1.013
1.01332
1.01359
1.01381
1.01399
1.01414
1.01425
1.01433
1.0144
1.01444
1.01447
1.0145
1.01451
1.01452
1.01453
1.01453
1.01453
1.01453
1.01453
1.01453
1.01453
1.01453
1.01453
1.01454
1.01454
1.01454
1.01454
1.01454
1.01455
1.01455
1.01456
1.01457
1.01459
1.01462
1.01465
1.0147
1.01476
1.01483
1.01492
1.01503
1.01516
1.01532
1.01549
1.0157
1.01592
1.01617
1.01644
1.01673
1.01704
1.01736
1.0177
1.01804
1.01839
1.01875
1.01911
1.01946
1.01982
1.02018
1.02053
1.02088
1.02122
1.02155
1.02188
1.0222
1.02251
1.02282
1.02311
1.02339
1.02365
1.0239
1.02412
1.02433
1.02451
1.02467
1.0248
1.02491
1.02498
1.02503
1.02505
1.02504
1.02501
1.02496
1.02489
1.02481
1.02471
1.0246
1.02449
1.02437
1.02425
1.02413
1.02401
1.0239
1.02379
1.02369
1.0236
1.02352
1.02344
1.02338
1.02332
1.02327
1.02323
1.0232
1.02318
1.02317
1.02317
1.02318
1.0232
1.02323
1.02328
1.02335
1.02343
1.02354
1.02367
1.02384
1.02404
1.02427
1.02455
1.02487
1.02524
1.02565
1.02609
1.02657
1.02707
1.02758
1.02809
1.02858
1.02905
1.02947
1.02984
1.03016
1.03041
1.0306
1.03072
1.03079
1.03079
1.03076
1.03068
1.03057
1.03043
1.03027
1.0301
1.02991
1.02972
1.02952
1.02932
1.02911
1.0289
1.02869
1.02848
1.02827
1.02806
1.02786
1.02766
1.02748
1.0273
1.02714
1.02699
1.02687
1.02676
1.02668
1.02663
1.0266
1.02659
1.02661
1.02666
1.02673
1.02682
1.02693
1.02706
1.0272
1.02736
1.02754
1.02773
1.02793
1.02815
1.02838
1.02862
1.02888
1.02916
1.02946
1.02979
1.03014
1.03054
1.03098
1.03147
1.03204
1.0327
1.03347
1.03439
1.0355
1.03686
1.03853
1.04062
1.04324
1.04659
1.05098
1.05686
1.06441
1.07268
1.08031
0.98277
0.982282
0.98409
0.986204
0.987966
0.989182
0.98995
0.990406
0.990642
0.990731
0.990716
0.990641
0.990528
0.990403
0.990272
0.990157
0.990054
0.98998
0.989928
0.989912
0.98992
0.989965
0.990032
0.990133
0.99025
0.990395
0.990551
0.99073
0.990914
0.991118
0.991326
0.991554
0.991788
0.992045
0.992314
0.992611
0.992928
0.99328
0.99366
0.99408
0.994534
0.99503
0.995561
0.996132
0.996734
0.997367
0.998021
0.998693
0.999371
1.00005
1.00073
1.00139
1.00202
1.00264
1.00322
1.00377
1.00428
1.00475
1.00518
1.00558
1.00594
1.00626
1.00655
1.00681
1.00705
1.00726
1.00746
1.00764
1.00782
1.00799
1.00816
1.00832
1.0085
1.00868
1.00887
1.00907
1.00929
1.00951
1.00976
1.01001
1.01028
1.01055
1.01083
1.01112
1.0114
1.01167
1.01193
1.01218
1.0124
1.0126
1.01278
1.01293
1.01306
1.01317
1.01325
1.01331
1.01336
1.01339
1.01342
1.01344
1.01346
1.01348
1.0135
1.01353
1.01356
1.0136
1.01364
1.01368
1.01373
1.01379
1.01385
1.01391
1.01398
1.01404
1.01411
1.01417
1.01424
1.0143
1.01437
1.01442
1.01448
1.01454
1.01459
1.01464
1.01468
1.01472
1.01477
1.0148
1.01484
1.01487
1.0149
1.01492
1.01493
1.01494
1.01495
1.01494
1.01492
1.01488
1.01483
1.01476
1.01466
1.01454
1.01439
1.01421
1.01399
1.01374
1.01345
1.01312
1.01276
1.01236
1.01193
1.01147
1.011
1.0105
1.01
1.0095
1.009
1.00851
1.00805
1.0076
1.00719
1.00681
1.00646
1.00615
1.00587
1.00563
1.00543
1.00526
1.00512
1.00501
1.00492
1.00486
1.00482
1.0048
1.0048
1.00481
1.00483
1.00488
1.00494
1.00502
1.00512
1.00525
1.00541
1.00561
1.00584
1.00611
1.00643
1.00679
1.00718
1.00762
1.0081
1.0086
1.00912
1.00965
1.01019
1.01072
1.01123
1.01172
1.01217
1.01258
1.01295
1.01327
1.01355
1.01378
1.01397
1.01412
1.01424
1.01433
1.01439
1.01444
1.01447
1.0145
1.01451
1.01452
1.01453
1.01453
1.01454
1.01454
1.01454
1.01454
1.01454
1.01454
1.01454
1.01454
1.01454
1.01454
1.01455
1.01455
1.01455
1.01456
1.01457
1.01459
1.01461
1.01464
1.01468
1.01473
1.0148
1.01487
1.01497
1.01509
1.01522
1.01538
1.01556
1.01576
1.01599
1.01623
1.0165
1.01678
1.01707
1.01738
1.01771
1.01804
1.01838
1.01872
1.01907
1.01942
1.01977
1.02012
1.02047
1.02081
1.02115
1.02148
1.02181
1.02213
1.02244
1.02274
1.02303
1.02331
1.02357
1.02381
1.02404
1.02424
1.02442
1.02457
1.0247
1.0248
1.02488
1.02493
1.02495
1.02496
1.02494
1.0249
1.02484
1.02477
1.02469
1.02459
1.02449
1.02439
1.02428
1.02417
1.02407
1.02396
1.02386
1.02377
1.02368
1.0236
1.02353
1.02347
1.02341
1.02336
1.02332
1.02329
1.02327
1.02326
1.02326
1.02326
1.02328
1.02332
1.02337
1.02343
1.02352
1.02362
1.02376
1.02392
1.02412
1.02436
1.02464
1.02496
1.02532
1.02572
1.02616
1.02663
1.02712
1.02761
1.0281
1.02858
1.02903
1.02944
1.0298
1.0301
1.03034
1.03052
1.03064
1.0307
1.03071
1.03067
1.0306
1.03049
1.03036
1.0302
1.03003
1.02985
1.02966
1.02946
1.02926
1.02906
1.02886
1.02865
1.02845
1.02824
1.02804
1.02785
1.02766
1.02748
1.02731
1.02715
1.02701
1.02689
1.02679
1.02671
1.02666
1.02663
1.02662
1.02664
1.02669
1.02675
1.02684
1.02695
1.02708
1.02722
1.02738
1.02756
1.02775
1.02795
1.02817
1.0284
1.02864
1.02891
1.02918
1.02948
1.02981
1.03016
1.03055
1.03099
1.03148
1.03204
1.03268
1.03344
1.03434
1.03541
1.03672
1.03833
1.04031
1.04277
1.04582
1.04957
1.05408
1.05918
1.0633
1.06316
0.986484
0.985872
0.986429
0.987407
0.988427
0.989245
0.98983
0.990207
0.990421
0.990518
0.990533
0.990496
0.990424
0.990339
0.990247
0.990164
0.99009
0.990039
0.990007
0.990003
0.990022
0.990072
0.990143
0.990242
0.990358
0.990498
0.990649
0.990821
0.990999
0.991196
0.991399
0.99162
0.991851
0.992105
0.992373
0.992671
0.992991
0.993346
0.993731
0.994156
0.994614
0.995113
0.995646
0.996214
0.99681
0.997432
0.998069
0.99872
0.999372
1.00002
1.00066
1.00129
1.0019
1.00248
1.00303
1.00356
1.00405
1.00452
1.00494
1.00534
1.0057
1.00604
1.00634
1.00662
1.00687
1.00711
1.00732
1.00752
1.00771
1.0079
1.00807
1.00825
1.00843
1.00861
1.0088
1.009
1.00921
1.00944
1.00967
1.00992
1.01017
1.01044
1.01071
1.01098
1.01125
1.01152
1.01177
1.012
1.01222
1.01242
1.01259
1.01274
1.01287
1.01297
1.01305
1.01311
1.01316
1.01319
1.01322
1.01324
1.01326
1.01329
1.01331
1.01334
1.01337
1.0134
1.01345
1.0135
1.01355
1.01361
1.01367
1.01374
1.01381
1.01389
1.01396
1.01404
1.01411
1.01418
1.01426
1.01433
1.01439
1.01446
1.01452
1.01457
1.01463
1.01468
1.01472
1.01476
1.0148
1.01483
1.01486
1.01487
1.01489
1.01489
1.01489
1.01487
1.01484
1.0148
1.01473
1.01465
1.01455
1.01441
1.01426
1.01407
1.01385
1.0136
1.01331
1.01299
1.01264
1.01226
1.01184
1.0114
1.01094
1.01046
1.00998
1.00948
1.009
1.00852
1.00805
1.00761
1.0072
1.00682
1.00647
1.00616
1.00589
1.00565
1.00545
1.00528
1.00514
1.00504
1.00496
1.0049
1.00487
1.00486
1.00486
1.00487
1.0049
1.00494
1.005
1.00508
1.00519
1.00531
1.00547
1.00566
1.00589
1.00616
1.00646
1.00681
1.0072
1.00763
1.00809
1.00858
1.00909
1.00961
1.01014
1.01066
1.01117
1.01165
1.01211
1.01252
1.01289
1.01322
1.0135
1.01374
1.01393
1.01409
1.01421
1.0143
1.01437
1.01443
1.01446
1.01449
1.0145
1.01452
1.01452
1.01453
1.01453
1.01453
1.01453
1.01453
1.01453
1.01453
1.01453
1.01453
1.01454
1.01454
1.01454
1.01454
1.01455
1.01456
1.01458
1.01459
1.01462
1.01465
1.0147
1.01476
1.01483
1.01491
1.01502
1.01514
1.01528
1.01544
1.01562
1.01582
1.01604
1.01628
1.01654
1.01681
1.01709
1.01739
1.01769
1.01801
1.01834
1.01867
1.019
1.01934
1.01968
1.02002
1.02036
1.0207
1.02104
1.02137
1.0217
1.02201
1.02232
1.02262
1.02291
1.02319
1.02344
1.02368
1.0239
1.0241
1.02428
1.02443
1.02456
1.02466
1.02474
1.0248
1.02483
1.02484
1.02483
1.02481
1.02477
1.02471
1.02465
1.02457
1.02449
1.0244
1.02431
1.02422
1.02413
1.02403
1.02394
1.02386
1.02378
1.0237
1.02363
1.02357
1.02351
1.02347
1.02343
1.0234
1.02338
1.02336
1.02336
1.02337
1.02339
1.02342
1.02346
1.02353
1.02361
1.02372
1.02385
1.02401
1.02421
1.02445
1.02472
1.02504
1.02539
1.02579
1.02621
1.02667
1.02714
1.02762
1.02809
1.02855
1.02898
1.02937
1.02971
1.03
1.03023
1.03041
1.03052
1.03058
1.03059
1.03055
1.03048
1.03037
1.03024
1.03009
1.02993
1.02975
1.02956
1.02937
1.02917
1.02897
1.02878
1.02858
1.02838
1.02818
1.02799
1.0278
1.02762
1.02745
1.02729
1.02715
1.02701
1.0269
1.0268
1.02673
1.02667
1.02665
1.02664
1.02666
1.0267
1.02677
1.02685
1.02696
1.02709
1.02723
1.02739
1.02757
1.02776
1.02796
1.02818
1.02841
1.02865
1.02891
1.02919
1.02949
1.02981
1.03016
1.03054
1.03097
1.03144
1.03198
1.0326
1.03332
1.03417
1.03519
1.03642
1.0379
1.03971
1.0419
1.04451
1.04755
1.05078
1.05371
1.05564
1.05479
0.988692
0.988216
0.988251
0.98863
0.989143
0.989623
0.990001
0.990262
0.99042
0.990498
0.990516
0.990495
0.990447
0.990387
0.990322
0.990262
0.990211
0.990176
0.990157
0.990162
0.990187
0.990237
0.990307
0.990402
0.990513
0.990644
0.990788
0.990949
0.991119
0.991306
0.991502
0.991716
0.991943
0.992193
0.992462
0.992759
0.993082
0.993439
0.993829
0.994257
0.994719
0.995219
0.99575
0.996313
0.996899
0.997505
0.998123
0.998748
0.999371
0.999988
1.00059
1.00118
1.00176
1.00231
1.00283
1.00334
1.00381
1.00426
1.00469
1.00509
1.00546
1.0058
1.00612
1.00642
1.00669
1.00694
1.00717
1.00739
1.0076
1.0078
1.00799
1.00817
1.00836
1.00854
1.00874
1.00894
1.00914
1.00936
1.00959
1.00982
1.01007
1.01033
1.01059
1.01085
1.01111
1.01136
1.01161
1.01184
1.01205
1.01224
1.01241
1.01255
1.01267
1.01277
1.01285
1.01291
1.01296
1.01299
1.01302
1.01304
1.01306
1.01308
1.01311
1.01314
1.01317
1.01321
1.01325
1.0133
1.01336
1.01342
1.01349
1.01356
1.01364
1.01372
1.0138
1.01389
1.01397
1.01406
1.01414
1.01422
1.0143
1.01438
1.01445
1.01451
1.01458
1.01463
1.01468
1.01473
1.01477
1.0148
1.01482
1.01484
1.01484
1.01484
1.01483
1.0148
1.01476
1.0147
1.01463
1.01453
1.01441
1.01427
1.01411
1.01391
1.01369
1.01344
1.01316
1.01285
1.01251
1.01214
1.01174
1.01132
1.01088
1.01042
1.00995
1.00948
1.009
1.00853
1.00807
1.00764
1.00723
1.00685
1.0065
1.00619
1.00591
1.00568
1.00548
1.00532
1.00519
1.00509
1.00502
1.00497
1.00494
1.00494
1.00494
1.00496
1.00499
1.00504
1.0051
1.00518
1.00528
1.00541
1.00556
1.00575
1.00597
1.00623
1.00653
1.00687
1.00725
1.00766
1.00811
1.00859
1.00908
1.00959
1.01011
1.01062
1.01112
1.0116
1.01205
1.01247
1.01284
1.01318
1.01346
1.01371
1.01391
1.01407
1.0142
1.0143
1.01437
1.01443
1.01447
1.01449
1.01451
1.01452
1.01453
1.01454
1.01454
1.01454
1.01454
1.01454
1.01454
1.01454
1.01454
1.01454
1.01455
1.01455
1.01455
1.01456
1.01457
1.01458
1.01459
1.01462
1.01465
1.01469
1.01474
1.0148
1.01488
1.01497
1.01508
1.01521
1.01535
1.01552
1.0157
1.0159
1.01611
1.01634
1.01659
1.01685
1.01712
1.0174
1.01769
1.01799
1.0183
1.01861
1.01893
1.01926
1.01959
1.01992
1.02026
1.02059
1.02092
1.02125
1.02157
1.02189
1.0222
1.0225
1.02278
1.02305
1.02331
1.02354
1.02376
1.02396
1.02413
1.02428
1.02441
1.02452
1.0246
1.02466
1.02471
1.02473
1.02474
1.02473
1.02471
1.02468
1.02463
1.02458
1.02451
1.02445
1.02437
1.0243
1.02422
1.02414
1.02406
1.02398
1.02391
1.02384
1.02378
1.02372
1.02367
1.02362
1.02358
1.02355
1.02353
1.02352
1.02351
1.02352
1.02353
1.02356
1.02361
1.02367
1.02375
1.02385
1.02398
1.02414
1.02433
1.02456
1.02483
1.02514
1.02548
1.02586
1.02628
1.02671
1.02716
1.02762
1.02807
1.02851
1.02892
1.02929
1.02962
1.02989
1.03012
1.03028
1.03039
1.03045
1.03046
1.03042
1.03035
1.03025
1.03012
1.02997
1.02981
1.02964
1.02945
1.02927
1.02907
1.02888
1.02869
1.0285
1.02831
1.02812
1.02794
1.02776
1.0276
1.02744
1.02729
1.02715
1.02703
1.02692
1.02683
1.02676
1.02671
1.02668
1.02668
1.0267
1.02674
1.0268
1.02689
1.02699
1.02712
1.02726
1.02742
1.0276
1.02779
1.02799
1.02821
1.02844
1.02868
1.02894
1.02922
1.02952
1.02983
1.03018
1.03055
1.03096
1.03142
1.03194
1.03253
1.03321
1.03401
1.03496
1.03609
1.03743
1.03904
1.04093
1.04308
1.0454
1.04766
1.04939
1.05012
1.04954
0.990249
0.989797
0.989641
0.989729
0.989932
0.990161
0.990359
0.990503
0.990591
0.990631
0.990633
0.990609
0.990569
0.990521
0.99047
0.990424
0.990386
0.990361
0.99035
0.990358
0.990383
0.99043
0.990495
0.990581
0.990682
0.990802
0.990934
0.991082
0.991242
0.991417
0.991605
0.991811
0.992034
0.992279
0.992548
0.992845
0.993171
0.993531
0.993924
0.994354
0.994818
0.995317
0.995844
0.996398
0.996971
0.997559
0.998153
0.998748
0.999339
0.99992
1.00049
1.00104
1.00158
1.00209
1.00259
1.00307
1.00353
1.00397
1.00439
1.00478
1.00516
1.00551
1.00585
1.00616
1.00645
1.00672
1.00698
1.00721
1.00744
1.00765
1.00785
1.00805
1.00824
1.00843
1.00863
1.00882
1.00903
1.00924
1.00946
1.00969
1.00993
1.01018
1.01043
1.01068
1.01093
1.01118
1.01141
1.01163
1.01184
1.01202
1.01219
1.01233
1.01245
1.01254
1.01262
1.01268
1.01272
1.01276
1.01279
1.01281
1.01283
1.01285
1.01287
1.0129
1.01293
1.01297
1.01302
1.01307
1.01313
1.01319
1.01326
1.01334
1.01342
1.01351
1.0136
1.0137
1.01379
1.01389
1.01399
1.01408
1.01417
1.01426
1.01434
1.01442
1.01449
1.01455
1.01461
1.01466
1.0147
1.01473
1.01475
1.01476
1.01476
1.01475
1.01472
1.01468
1.01463
1.01456
1.01447
1.01436
1.01423
1.01407
1.0139
1.0137
1.01347
1.01322
1.01295
1.01265
1.01232
1.01197
1.0116
1.0112
1.01078
1.01035
1.0099
1.00944
1.00898
1.00852
1.00807
1.00764
1.00723
1.00685
1.00651
1.0062
1.00592
1.00569
1.0055
1.00534
1.00522
1.00513
1.00506
1.00502
1.00501
1.005
1.00502
1.00504
1.00508
1.00513
1.00519
1.00528
1.00538
1.0055
1.00565
1.00583
1.00605
1.0063
1.00659
1.00692
1.00729
1.00769
1.00812
1.00858
1.00906
1.00956
1.01006
1.01056
1.01106
1.01153
1.01198
1.01239
1.01277
1.01311
1.0134
1.01365
1.01386
1.01403
1.01416
1.01427
1.01435
1.01441
1.01445
1.01448
1.0145
1.01451
1.01452
1.01452
1.01453
1.01453
1.01453
1.01453
1.01453
1.01453
1.01453
1.01453
1.01454
1.01454
1.01454
1.01455
1.01456
1.01458
1.0146
1.01462
1.01466
1.0147
1.01476
1.01483
1.01491
1.01501
1.01513
1.01526
1.01541
1.01558
1.01576
1.01595
1.01616
1.01638
1.01662
1.01686
1.01711
1.01738
1.01765
1.01794
1.01823
1.01853
1.01883
1.01915
1.01946
1.01979
1.02011
1.02044
1.02076
1.02108
1.0214
1.02172
1.02202
1.02232
1.0226
1.02287
1.02312
1.02335
1.02357
1.02376
1.02393
1.02408
1.02421
1.02432
1.02441
1.02449
1.02454
1.02458
1.02461
1.02462
1.02462
1.0246
1.02458
1.02455
1.02451
1.02446
1.02441
1.02435
1.02429
1.02423
1.02416
1.0241
1.02404
1.02398
1.02392
1.02386
1.02382
1.02377
1.02374
1.02371
1.02369
1.02367
1.02366
1.02367
1.02368
1.02371
1.02374
1.0238
1.02388
1.02397
1.0241
1.02425
1.02443
1.02466
1.02491
1.02521
1.02554
1.02591
1.0263
1.02672
1.02715
1.02758
1.02801
1.02842
1.02881
1.02916
1.02948
1.02974
1.02995
1.03011
1.03021
1.03027
1.03028
1.03024
1.03018
1.03008
1.02995
1.02981
1.02965
1.02948
1.0293
1.02912
1.02893
1.02874
1.02856
1.02838
1.0282
1.02802
1.02785
1.02769
1.02754
1.02739
1.02725
1.02713
1.02701
1.02692
1.02683
1.02677
1.02672
1.0267
1.0267
1.02671
1.02676
1.02682
1.0269
1.02701
1.02713
1.02728
1.02744
1.02761
1.02781
1.02801
1.02823
1.02846
1.0287
1.02896
1.02924
1.02953
1.02984
1.03018
1.03055
1.03095
1.03139
1.03188
1.03244
1.03308
1.03382
1.03469
1.03571
1.03691
1.03831
1.0399
1.04162
1.04336
1.0449
1.04595
1.04618
1.04561
0.991358
0.990917
0.990684
0.990617
0.990645
0.990715
0.990788
0.990842
0.990871
0.990876
0.99086
0.99083
0.990792
0.99075
0.990708
0.990671
0.99064
0.99062
0.990612
0.990619
0.990641
0.990681
0.990737
0.990811
0.990899
0.991003
0.991121
0.991254
0.991401
0.991563
0.991742
0.99194
0.992157
0.992399
0.992667
0.992965
0.993294
0.993657
0.994053
0.994485
0.994949
0.995444
0.995964
0.996506
0.997062
0.997627
0.998194
0.998758
0.999314
0.999859
1.00039
1.0009
1.0014
1.00189
1.00236
1.00281
1.00325
1.00367
1.00408
1.00448
1.00486
1.00522
1.00556
1.00589
1.0062
1.00649
1.00677
1.00702
1.00726
1.00749
1.00771
1.00792
1.00812
1.00832
1.00851
1.00871
1.00892
1.00912
1.00934
1.00956
1.00979
1.01003
1.01028
1.01052
1.01077
1.01101
1.01124
1.01145
1.01166
1.01184
1.012
1.01214
1.01225
1.01235
1.01242
1.01248
1.01252
1.01256
1.01258
1.01261
1.01263
1.01265
1.01267
1.01269
1.01272
1.01276
1.0128
1.01285
1.01291
1.01298
1.01305
1.01313
1.01322
1.01331
1.01341
1.01351
1.01362
1.01373
1.01383
1.01394
1.01404
1.01414
1.01424
1.01432
1.0144
1.01447
1.01454
1.01459
1.01463
1.01466
1.01468
1.01468
1.01468
1.01465
1.01462
1.01456
1.01449
1.0144
1.0143
1.01417
1.01403
1.01386
1.01368
1.01347
1.01324
1.013
1.01273
1.01245
1.01214
1.01181
1.01146
1.01109
1.01069
1.01028
1.00986
1.00942
1.00898
1.00853
1.00809
1.00767
1.00727
1.00689
1.00654
1.00623
1.00596
1.00573
1.00554
1.00539
1.00527
1.00519
1.00514
1.00511
1.0051
1.0051
1.00512
1.00516
1.0052
1.00526
1.00532
1.00541
1.00551
1.00563
1.00578
1.00596
1.00617
1.00641
1.0067
1.00701
1.00736
1.00775
1.00816
1.00861
1.00907
1.00955
1.01004
1.01053
1.01101
1.01148
1.01192
1.01234
1.01272
1.01306
1.01336
1.01361
1.01383
1.01401
1.01415
1.01426
1.01434
1.01441
1.01445
1.01448
1.01451
1.01452
1.01453
1.01454
1.01454
1.01454
1.01454
1.01454
1.01454
1.01454
1.01455
1.01455
1.01455
1.01455
1.01456
1.01457
1.01458
1.0146
1.01462
1.01465
1.01469
1.01474
1.01481
1.01488
1.01497
1.01508
1.0152
1.01534
1.01549
1.01565
1.01583
1.01602
1.01623
1.01644
1.01666
1.01689
1.01713
1.01738
1.01764
1.0179
1.01818
1.01846
1.01875
1.01905
1.01935
1.01966
1.01997
1.02029
1.02061
1.02092
1.02124
1.02155
1.02185
1.02214
1.02242
1.02268
1.02293
1.02316
1.02337
1.02356
1.02373
1.02388
1.02402
1.02413
1.02423
1.02431
1.02438
1.02444
1.02448
1.02451
1.02453
1.02454
1.02454
1.02454
1.02452
1.0245
1.02447
1.02443
1.02439
1.02434
1.02429
1.02424
1.02419
1.02414
1.02409
1.02405
1.02401
1.02397
1.02393
1.02391
1.02388
1.02387
1.02386
1.02386
1.02387
1.02389
1.02392
1.02397
1.02404
1.02413
1.02424
1.02439
1.02456
1.02477
1.02501
1.02529
1.02561
1.02595
1.02633
1.02672
1.02713
1.02754
1.02794
1.02833
1.0287
1.02903
1.02933
1.02957
1.02978
1.02993
1.03003
1.03008
1.03009
1.03006
1.02999
1.0299
1.02978
1.02964
1.02948
1.02932
1.02914
1.02897
1.02879
1.02861
1.02844
1.02827
1.0281
1.02794
1.02778
1.02763
1.02749
1.02736
1.02724
1.02713
1.02703
1.02694
1.02687
1.02681
1.02677
1.02675
1.02675
1.02677
1.02681
1.02687
1.02696
1.02706
1.02719
1.02733
1.02749
1.02767
1.02786
1.02807
1.02829
1.02852
1.02877
1.02903
1.0293
1.0296
1.02991
1.03024
1.0306
1.03098
1.03141
1.03188
1.03241
1.03302
1.03371
1.03451
1.03543
1.03649
1.03769
1.039
1.04036
1.04165
1.04269
1.04329
1.04326
1.0426
0.99214
0.991741
0.991487
0.991344
0.991276
0.991251
0.99124
0.99123
0.991212
0.991185
0.991151
0.991112
0.99107
0.991029
0.99099
0.990956
0.990929
0.99091
0.9909
0.990903
0.990918
0.990947
0.99099
0.991047
0.991119
0.991205
0.991306
0.991421
0.991553
0.991702
0.991869
0.992059
0.992272
0.992511
0.992779
0.993078
0.99341
0.993775
0.994175
0.994607
0.995069
0.995558
0.996069
0.996596
0.997132
0.997672
0.99821
0.998741
0.99926
0.999767
1.00026
1.00074
1.0012
1.00165
1.00209
1.00252
1.00294
1.00334
1.00374
1.00413
1.00451
1.00488
1.00523
1.00557
1.0059
1.0062
1.00649
1.00677
1.00703
1.00727
1.00751
1.00773
1.00794
1.00814
1.00834
1.00854
1.00875
1.00895
1.00917
1.00938
1.00961
1.00985
1.01008
1.01033
1.01057
1.0108
1.01103
1.01125
1.01145
1.01163
1.01179
1.01193
1.01204
1.01214
1.01221
1.01227
1.01231
1.01234
1.01237
1.01239
1.01241
1.01243
1.01245
1.01247
1.0125
1.01253
1.01257
1.01262
1.01268
1.01274
1.01281
1.01289
1.01298
1.01308
1.01318
1.01329
1.0134
1.01352
1.01363
1.01375
1.01386
1.01398
1.01408
1.01418
1.01427
1.01434
1.01441
1.01447
1.01451
1.01454
1.01455
1.01455
1.01453
1.0145
1.01445
1.01438
1.01429
1.01418
1.01406
1.01392
1.01376
1.01358
1.01339
1.01318
1.01296
1.01272
1.01246
1.01219
1.0119
1.0116
1.01127
1.01093
1.01057
1.01019
1.00979
1.00937
1.00895
1.00852
1.00809
1.00768
1.00728
1.00691
1.00656
1.00626
1.00599
1.00576
1.00557
1.00542
1.00531
1.00524
1.00519
1.00517
1.00517
1.00518
1.00521
1.00525
1.00531
1.00537
1.00544
1.00553
1.00563
1.00576
1.0059
1.00608
1.00628
1.00652
1.00679
1.00709
1.00743
1.00779
1.00819
1.00861
1.00906
1.00952
1.00999
1.01046
1.01093
1.01139
1.01183
1.01224
1.01262
1.01297
1.01328
1.01354
1.01377
1.01395
1.0141
1.01422
1.01431
1.01438
1.01443
1.01446
1.01449
1.0145
1.01451
1.01452
1.01452
1.01453
1.01453
1.01453
1.01453
1.01453
1.01453
1.01453
1.01454
1.01454
1.01455
1.01456
1.01457
1.01459
1.01462
1.01466
1.0147
1.01476
1.01483
1.01491
1.01501
1.01512
1.01525
1.01539
1.01554
1.0157
1.01588
1.01607
1.01626
1.01647
1.01668
1.01689
1.01712
1.01735
1.01759
1.01784
1.01809
1.01836
1.01863
1.01891
1.0192
1.0195
1.0198
1.0201
1.02041
1.02072
1.02103
1.02133
1.02162
1.0219
1.02218
1.02244
1.02268
1.0229
1.02311
1.0233
1.02347
1.02362
1.02376
1.02388
1.02399
1.02408
1.02416
1.02424
1.0243
1.02435
1.02439
1.02443
1.02445
1.02447
1.02448
1.02448
1.02447
1.02446
1.02444
1.02441
1.02438
1.02435
1.02431
1.02428
1.02424
1.0242
1.02417
1.02413
1.0241
1.02408
1.02405
1.02404
1.02403
1.02402
1.02403
1.02404
1.02407
1.02411
1.02417
1.02424
1.02435
1.02448
1.02464
1.02483
1.02506
1.02532
1.02562
1.02594
1.02629
1.02666
1.02704
1.02743
1.02781
1.02817
1.02852
1.02883
1.02911
1.02935
1.02954
1.02968
1.02978
1.02983
1.02984
1.02981
1.02975
1.02966
1.02954
1.02941
1.02926
1.0291
1.02894
1.02877
1.0286
1.02844
1.02827
1.02811
1.02796
1.02782
1.02768
1.02754
1.02742
1.02731
1.0272
1.0271
1.02701
1.02694
1.02687
1.02683
1.02679
1.02677
1.02678
1.0268
1.02684
1.02691
1.02699
1.0271
1.02722
1.02737
1.02753
1.02771
1.02791
1.02812
1.02834
1.02857
1.02882
1.02908
1.02936
1.02965
1.02996
1.03029
1.03064
1.03102
1.03143
1.03189
1.03239
1.03296
1.03359
1.03432
1.03515
1.03607
1.03708
1.03815
1.03921
1.04015
1.04084
1.04115
1.041
1.04034
0.992704
0.992348
0.992088
0.99191
0.991795
0.991718
0.991661
0.991614
0.99157
0.991526
0.991483
0.99144
0.9914
0.991362
0.991328
0.991298
0.991273
0.991254
0.991242
0.991239
0.991244
0.991261
0.991288
0.991328
0.99138
0.991446
0.991527
0.991624
0.991739
0.991874
0.99203
0.992212
0.99242
0.992658
0.992926
0.993227
0.993562
0.993931
0.994333
0.994765
0.995224
0.995705
0.996204
0.996713
0.997227
0.99774
0.998247
0.998743
0.999226
0.999694
1.00015
1.00059
1.00102
1.00143
1.00184
1.00225
1.00264
1.00303
1.00342
1.0038
1.00418
1.00455
1.0049
1.00525
1.00559
1.00591
1.00622
1.00651
1.00678
1.00704
1.00729
1.00752
1.00775
1.00796
1.00817
1.00837
1.00858
1.00878
1.009
1.00921
1.00944
1.00967
1.00991
1.01016
1.0104
1.01064
1.01087
1.01108
1.01129
1.01147
1.01163
1.01177
1.01189
1.01198
1.01206
1.01211
1.01216
1.01219
1.01222
1.01224
1.01225
1.01227
1.01228
1.0123
1.01233
1.01236
1.01239
1.01244
1.01249
1.01255
1.01262
1.01269