# vtk DataFile Version 2.0
LBE mesh
ASCII
DATASET STRUCTURED_POINTS
DIMENSIONS 400 100 1
ASPECT_RATIO 1 1 1
ORIGIN 0 0 0
POINT_DATA 40000
SCALARS rho double 1
LOOKUP_TABLE default
1.13014
1.21046
1.23364
1.23809
1.2402
1.2421
1.24351
1.24442
1.24504
1.2455
1.24585
1.24614
1.24637
1.24655
1.24671
1.24684
1.24695
1.24704
1.24712
1.24719
1.24725
1.2473
1.24734
1.24738
1.24741
1.24743
1.24745
1.24747
1.24748
1.2475
1.2475
1.24751
1.24751
1.24751
1.24751
1.24751
1.24751
1.24751
1.24751
1.24751
1.24751
1.24751
1.24751
1.24751
1.24752
1.24752
1.24753
1.24755
1.24756
1.24758
1.24761
1.24764
1.24767
1.24771
1.24775
1.2478
1.24786
1.24793
1.248
1.24808
1.24816
1.24825
1.24836
1.24847
1.24859
1.24871
1.24885
1.249
1.24915
1.24932
1.24949
1.24967
1.24986
1.25006
1.25027
1.25049
1.25072
1.25096
1.2512
1.25145
1.25171
1.25198
1.25226
1.25254
1.25283
1.25313
1.25343
1.25373
1.25405
1.25436
1.25468
1.25501
1.25534
1.25566
1.25599
1.25633
1.25666
1.25699
1.25731
1.25764
1.25796
1.25828
1.2586
1.25891
1.25921
1.25951
1.2598
1.26009
1.26036
1.26063
1.26089
1.26113
1.26137
1.2616
1.26182
1.26202
1.26222
1.2624
1.26257
1.26273
1.26288
1.26302
1.26315
1.26327
1.26337
1.26347
1.26356
1.26364
1.26372
1.26378
1.26384
1.2639
1.26394
1.26399
1.26402
1.26406
1.26409
1.26411
1.26414
1.26416
1.26418
1.2642
1.26421
1.26423
1.26424
1.26426
1.26427
1.26429
1.2643
1.26431
1.26432
1.26434
1.26435
1.26436
1.26438
1.26439
1.26441
1.26442
1.26444
1.26446
1.26447
1.26449
1.26451
1.26453
1.26454
1.26456
1.26458
1.2646
1.26462
1.26464
1.26466
1.26468
1.2647
1.26472
1.26474
1.26476
1.26478
1.2648
1.26481
1.26483
1.26485
1.26487
1.26489
1.26491
1.26493
1.26495
1.26497
1.26499
1.26501
1.26503
1.26505
1.26507
1.26509
1.26511
1.26513
1.26515
1.26517
1.26519
1.26522
1.26524
1.26527
1.2653
1.26532
1.26535
1.26539
1.26542
1.26545
1.26549
1.26553
1.26557
1.26561
1.26566
1.26571
1.26576
1.26582
1.26588
1.26594
1.266
1.26607
1.26615
1.26622
1.26631
1.26639
1.26649
1.26658
1.26668
1.26679
1.2669
1.26702
1.26715
1.26728
1.26741
1.26756
1.26771
1.26786
1.26803
1.2682
1.26838
1.26856
1.26876
1.26896
1.26917
1.26938
1.26961
1.26984
1.27009
1.27034
1.2706
1.27087
1.27114
1.27143
1.27172
1.27203
1.27234
1.27266
1.27299
1.27332
1.27367
1.27402
1.27438
1.27475
1.27512
1.2755
1.27589
1.27628
1.27668
1.27708
1.27748
1.27789
1.27831
1.27872
1.27913
1.27955
1.27996
1.28038
1.28079
1.2812
1.2816
1.282
1.2824
1.28279
1.28317
1.28354
1.28391
1.28427
1.28462
1.28496
1.28529
1.28561
1.28592
1.28622
1.28651
1.28679
1.28706
1.28732
1.28757
1.28781
1.28805
1.28827
1.28849
1.2887
1.2889
1.2891
1.28928
1.28947
1.28964
1.28981
1.28998
1.29014
1.2903
1.29045
1.2906
1.29074
1.29088
1.29101
1.29114
1.29127
1.29139
1.29152
1.29163
1.29175
1.29186
1.29197
1.29207
1.29217
1.29227
1.29237
1.29247
1.29256
1.29266
1.29275
1.29284
1.29294
1.29303
1.29312
1.29322
1.29331
1.29341
1.29351
1.29362
1.29373
1.29385
1.29397
1.2941
1.29423
1.29438
1.29453
1.29469
1.29486
1.29504
1.29524
1.29545
1.29567
1.29591
1.29616
1.29643
1.29671
1.29702
1.29734
1.29768
1.29805
1.29844
1.29884
1.29928
1.29974
1.30022
1.30073
1.30127
1.30184
1.30244
1.30308
1.30374
1.30445
1.30519
1.30597
1.30679
1.30766
1.30857
1.30954
1.31056
1.31165
1.3128
1.31403
1.31534
1.31675
1.31826
1.31991
1.3217
1.32367
1.32585
1.3283
1.33109
1.33431
1.33813
1.34276
1.34873
1.35714
1.36901
1.38536
1.41647
1.20039
1.20963
1.22184
1.23219
1.23752
1.24019
1.24184
1.24304
1.24393
1.2446
1.2451
1.24549
1.24581
1.24607
1.24628
1.24646
1.24661
1.24673
1.24684
1.24694
1.24701
1.24708
1.24714
1.24719
1.24724
1.24727
1.24731
1.24733
1.24735
1.24737
1.24739
1.2474
1.24741
1.24742
1.24742
1.24743
1.24743
1.24743
1.24743
1.24744
1.24744
1.24744
1.24745
1.24745
1.24746
1.24747
1.24748
1.2475
1.24752
1.24754
1.24757
1.2476
1.24764
1.24768
1.24772
1.24778
1.24784
1.2479
1.24798
1.24806
1.24814
1.24824
1.24834
1.24846
1.24858
1.24871
1.24885
1.24899
1.24915
1.24932
1.24949
1.24968
1.24987
1.25007
1.25028
1.2505
1.25073
1.25097
1.25121
1.25147
1.25173
1.252
1.25227
1.25256
1.25285
1.25314
1.25344
1.25375
1.25406
1.25438
1.2547
1.25503
1.25535
1.25568
1.25601
1.25634
1.25667
1.257
1.25733
1.25765
1.25797
1.25829
1.25861
1.25892
1.25922
1.25951
1.2598
1.26009
1.26036
1.26063
1.26088
1.26113
1.26136
1.26159
1.2618
1.26201
1.2622
1.26238
1.26255
1.26271
1.26286
1.263
1.26312
1.26324
1.26335
1.26345
1.26354
1.26362
1.26369
1.26376
1.26382
1.26387
1.26392
1.26396
1.264
1.26403
1.26406
1.26409
1.26412
1.26414
1.26416
1.26418
1.26419
1.26421
1.26423
1.26424
1.26425
1.26427
1.26428
1.2643
1.26431
1.26432
1.26434
1.26435
1.26437
1.26438
1.2644
1.26441
1.26443
1.26445
1.26446
1.26448
1.2645
1.26452
1.26453
1.26455
1.26457
1.26459
1.26461
1.26463
1.26465
1.26467
1.26469
1.26471
1.26473
1.26475
1.26477
1.26479
1.26481
1.26483
1.26485
1.26487
1.26489
1.26491
1.26492
1.26494
1.26496
1.26498
1.265
1.26502
1.26504
1.26506
1.26508
1.2651
1.26512
1.26514
1.26517
1.26519
1.26521
1.26524
1.26527
1.26529
1.26532
1.26535
1.26538
1.26542
1.26545
1.26549
1.26553
1.26557
1.26561
1.26566
1.26571
1.26576
1.26582
1.26588
1.26594
1.26601
1.26608
1.26615
1.26623
1.26631
1.2664
1.26649
1.26659
1.26669
1.2668
1.26691
1.26703
1.26716
1.26729
1.26743
1.26757
1.26772
1.26788
1.26804
1.26821
1.26839
1.26858
1.26877
1.26898
1.26919
1.26941
1.26963
1.26987
1.27011
1.27036
1.27062
1.27089
1.27117
1.27146
1.27175
1.27206
1.27237
1.27269
1.27302
1.27336
1.2737
1.27405
1.27441
1.27478
1.27516
1.27554
1.27592
1.27631
1.27671
1.27711
1.27752
1.27793
1.27834
1.27875
1.27916
1.27958
1.27999
1.2804
1.28081
1.28122
1.28162
1.28202
1.28241
1.2828
1.28318
1.28355
1.28392
1.28427
1.28462
1.28496
1.28529
1.2856
1.28591
1.28621
1.2865
1.28678
1.28705
1.28731
1.28756
1.2878
1.28803
1.28825
1.28847
1.28868
1.28888
1.28908
1.28927
1.28945
1.28962
1.2898
1.28996
1.29012
1.29028
1.29043
1.29058
1.29072
1.29086
1.29099
1.29112
1.29125
1.29138
1.2915
1.29161
1.29173
1.29184
1.29195
1.29205
1.29216
1.29226
1.29236
1.29245
1.29255
1.29264
1.29274
1.29283
1.29292
1.29302
1.29311
1.29321
1.2933
1.2934
1.29351
1.29362
1.29373
1.29385
1.29397
1.2941
1.29424
1.29438
1.29453
1.2947
1.29487
1.29506
1.29526
1.29547
1.29569
1.29593
1.29619
1.29646
1.29675
1.29705
1.29738
1.29773
1.2981
1.29849
1.2989
1.29934
1.2998
1.30029
1.3008
1.30135
1.30192
1.30253
1.30317
1.30384
1.30455
1.30529
1.30608
1.30691
1.30779
1.30871
1.30969
1.31072
1.31182
1.31299
1.31423
1.31556
1.317
1.31854
1.32022
1.32206
1.32408
1.32634
1.32888
1.33179
1.33519
1.33925
1.34426
1.35059
1.35876
1.37059
1.39158
1.42537
1.22057
1.21809
1.22556
1.23184
1.23574
1.23854
1.24057
1.242
1.24303
1.24381
1.24442
1.24491
1.2453
1.24561
1.24588
1.2461
1.24628
1.24644
1.24658
1.24669
1.24679
1.24688
1.24695
1.24702
1.24707
1.24712
1.24716
1.2472
1.24723
1.24725
1.24727
1.24729
1.24731
1.24732
1.24733
1.24734
1.24735
1.24735
1.24736
1.24736
1.24737
1.24738
1.24738
1.24739
1.2474
1.24742
1.24743
1.24745
1.24747
1.2475
1.24752
1.24756
1.2476
1.24764
1.24769
1.24774
1.2478
1.24787
1.24795
1.24803
1.24812
1.24822
1.24832
1.24844
1.24856
1.24869
1.24883
1.24898
1.24914
1.24931
1.24948
1.24967
1.24986
1.25007
1.25028
1.2505
1.25073
1.25097
1.25122
1.25147
1.25173
1.252
1.25228
1.25256
1.25286
1.25315
1.25346
1.25376
1.25408
1.2544
1.25472
1.25504
1.25537
1.2557
1.25603
1.25636
1.25668
1.25701
1.25734
1.25767
1.25799
1.2583
1.25862
1.25893
1.25923
1.25952
1.25981
1.26009
1.26037
1.26063
1.26088
1.26113
1.26136
1.26159
1.2618
1.262
1.26219
1.26238
1.26254
1.2627
1.26285
1.26299
1.26311
1.26323
1.26333
1.26343
1.26352
1.2636
1.26367
1.26374
1.2638
1.26385
1.2639
1.26394
1.26398
1.26401
1.26404
1.26407
1.2641
1.26412
1.26414
1.26416
1.26418
1.26419
1.26421
1.26422
1.26424
1.26425
1.26427
1.26428
1.26429
1.26431
1.26432
1.26434
1.26435
1.26437
1.26438
1.2644
1.26442
1.26443
1.26445
1.26447
1.26449
1.26451
1.26452
1.26454
1.26456
1.26458
1.2646
1.26462
1.26464
1.26466
1.26468
1.2647
1.26472
1.26474
1.26476
1.26478
1.2648
1.26482
1.26484
1.26486
1.26488
1.2649
1.26492
1.26494
1.26496
1.26497
1.26499
1.26501
1.26503
1.26505
1.26507
1.26509
1.26512
1.26514
1.26516
1.26518
1.26521
1.26523
1.26526
1.26529
1.26532
1.26535
1.26538
1.26541
1.26545
1.26548
1.26552
1.26557
1.26561
1.26566
1.26571
1.26576
1.26582
1.26588
1.26594
1.26601
1.26608
1.26615
1.26623
1.26631
1.2664
1.26649
1.26659
1.26669
1.2668
1.26692
1.26704
1.26716
1.26729
1.26743
1.26758
1.26773
1.26789
1.26805
1.26822
1.2684
1.26859
1.26879
1.26899
1.2692
1.26942
1.26965
1.26988
1.27013
1.27038
1.27064
1.27091
1.27119
1.27148
1.27177
1.27208
1.27239
1.27271
1.27304
1.27338
1.27372
1.27408
1.27444
1.27481
1.27518
1.27556
1.27595
1.27634
1.27674
1.27714
1.27755
1.27795
1.27837
1.27878
1.27919
1.27961
1.28002
1.28043
1.28084
1.28124
1.28165
1.28204
1.28243
1.28282
1.2832
1.28357
1.28393
1.28429
1.28463
1.28497
1.28529
1.28561
1.28592
1.28621
1.2865
1.28678
1.28704
1.2873
1.28755
1.28779
1.28802
1.28825
1.28846
1.28867
1.28887
1.28906
1.28925
1.28943
1.28961
1.28978
1.28995
1.29011
1.29026
1.29041
1.29056
1.2907
1.29084
1.29098
1.29111
1.29124
1.29136
1.29148
1.2916
1.29171
1.29182
1.29193
1.29204
1.29214
1.29224
1.29234
1.29244
1.29253
1.29263
1.29272
1.29281
1.29291
1.293
1.2931
1.29319
1.29329
1.29339
1.2935
1.2936
1.29372
1.29383
1.29396
1.29409
1.29423
1.29437
1.29453
1.2947
1.29487
1.29506
1.29526
1.29547
1.2957
1.29594
1.2962
1.29647
1.29676
1.29707
1.2974
1.29775
1.29812
1.29851
1.29893
1.29937
1.29983
1.30032
1.30084
1.30139
1.30197
1.30258
1.30322
1.3039
1.30461
1.30536
1.30615
1.30698
1.30786
1.30879
1.30978
1.31082
1.31192
1.31309
1.31435
1.31569
1.31713
1.31868
1.32038
1.32223
1.32427
1.32654
1.3291
1.33203
1.33542
1.33943
1.34427
1.35034
1.3582
1.36803
1.37869
1.38931
1.22852
1.22749
1.2298
1.23255
1.23563
1.23812
1.23994
1.24131
1.24238
1.24322
1.24389
1.24442
1.24486
1.24522
1.24552
1.24577
1.24599
1.24617
1.24633
1.24646
1.24658
1.24668
1.24677
1.24685
1.24691
1.24697
1.24702
1.24707
1.2471
1.24714
1.24716
1.24719
1.24721
1.24722
1.24724
1.24725
1.24726
1.24727
1.24728
1.24729
1.2473
1.24731
1.24732
1.24733
1.24734
1.24736
1.24738
1.2474
1.24742
1.24745
1.24748
1.24751
1.24755
1.2476
1.24765
1.2477
1.24777
1.24784
1.24791
1.248
1.24809
1.24819
1.24829
1.24841
1.24853
1.24867
1.24881
1.24896
1.24912
1.24929
1.24947
1.24965
1.24985
1.25006
1.25027
1.25049
1.25072
1.25096
1.25121
1.25147
1.25173
1.252
1.25228
1.25257
1.25286
1.25316
1.25346
1.25377
1.25408
1.2544
1.25472
1.25505
1.25538
1.25571
1.25604
1.25637
1.2567
1.25703
1.25736
1.25768
1.258
1.25832
1.25863
1.25894
1.25924
1.25954
1.25983
1.26011
1.26038
1.26064
1.26089
1.26114
1.26137
1.2616
1.26181
1.26201
1.2622
1.26238
1.26254
1.2627
1.26285
1.26298
1.26311
1.26322
1.26332
1.26342
1.26351
1.26359
1.26366
1.26372
1.26378
1.26383
1.26388
1.26392
1.26396
1.264
1.26403
1.26405
1.26408
1.2641
1.26412
1.26414
1.26416
1.26418
1.26419
1.26421
1.26422
1.26424
1.26425
1.26427
1.26428
1.26429
1.26431
1.26432
1.26434
1.26436
1.26437
1.26439
1.2644
1.26442
1.26444
1.26446
1.26448
1.26449
1.26451
1.26453
1.26455
1.26457
1.26459
1.26461
1.26463
1.26465
1.26467
1.26469
1.26471
1.26473
1.26475
1.26477
1.26479
1.26481
1.26483
1.26485
1.26487
1.26489
1.26491
1.26493
1.26495
1.26497
1.26498
1.265
1.26502
1.26504
1.26506
1.26509
1.26511
1.26513
1.26515
1.26518
1.2652
1.26523
1.26525
1.26528
1.26531
1.26534
1.26537
1.2654
1.26544
1.26548
1.26552
1.26556
1.2656
1.26565
1.2657
1.26576
1.26581
1.26587
1.26593
1.266
1.26607
1.26615
1.26623
1.26631
1.2664
1.26649
1.26659
1.26669
1.2668
1.26691
1.26703
1.26716
1.26729
1.26743
1.26758
1.26773
1.26789
1.26805
1.26822
1.2684
1.26859
1.26879
1.26899
1.2692
1.26942
1.26965
1.26989
1.27013
1.27039
1.27065
1.27092
1.2712
1.27149
1.27178
1.27209
1.2724
1.27272
1.27305
1.27339
1.27374
1.27409
1.27446
1.27482
1.2752
1.27558
1.27597
1.27636
1.27676
1.27716
1.27757
1.27798
1.27839
1.2788
1.27922
1.27963
1.28004
1.28046
1.28087
1.28127
1.28167
1.28207
1.28246
1.28284
1.28322
1.28359
1.28395
1.28431
1.28465
1.28498
1.28531
1.28562
1.28593
1.28622
1.28651
1.28678
1.28705
1.2873
1.28755
1.28779
1.28802
1.28824
1.28846
1.28866
1.28886
1.28906
1.28924
1.28943
1.2896
1.28977
1.28994
1.2901
1.29025
1.2904
1.29055
1.29069
1.29083
1.29096
1.2911
1.29122
1.29135
1.29147
1.29158
1.2917
1.29181
1.29192
1.29202
1.29213
1.29223
1.29232
1.29242
1.29252
1.29261
1.2927
1.2928
1.29289
1.29298
1.29308
1.29317
1.29327
1.29337
1.29348
1.29359
1.2937
1.29382
1.29394
1.29407
1.29421
1.29436
1.29451
1.29468
1.29486
1.29504
1.29524
1.29546
1.29569
1.29593
1.29619
1.29646
1.29675
1.29706
1.2974
1.29775
1.29812
1.29851
1.29893
1.29937
1.29984
1.30033
1.30085
1.3014
1.30198
1.30259
1.30324
1.30392
1.30463
1.30538
1.30618
1.30701
1.30789
1.30882
1.30981
1.31085
1.31195
1.31312
1.31438
1.31571
1.31715
1.3187
1.32038
1.32221
1.32423
1.32647
1.32897
1.33181
1.33506
1.33884
1.34327
1.34846
1.35448
1.3612
1.36667
1.3669
1.23296
1.23251
1.23308
1.23462
1.23655
1.23828
1.23977
1.24101
1.24202
1.24283
1.2435
1.24405
1.24451
1.24489
1.24522
1.24549
1.24573
1.24593
1.2461
1.24625
1.24639
1.2465
1.2466
1.24669
1.24676
1.24683
1.24689
1.24694
1.24698
1.24702
1.24706
1.24709
1.24711
1.24713
1.24715
1.24717
1.24718
1.2472
1.24721
1.24722
1.24723
1.24724
1.24725
1.24727
1.24728
1.2473
1.24732
1.24734
1.24736
1.24739
1.24742
1.24746
1.2475
1.24755
1.2476
1.24766
1.24772
1.24779
1.24787
1.24796
1.24805
1.24815
1.24826
1.24838
1.2485
1.24864
1.24878
1.24893
1.24909
1.24926
1.24944
1.24963
1.24983
1.25003
1.25025
1.25047
1.25071
1.25095
1.2512
1.25145
1.25172
1.25199
1.25227
1.25256
1.25285
1.25315
1.25346
1.25377
1.25408
1.25441
1.25473
1.25506
1.25538
1.25572
1.25605
1.25638
1.25671
1.25704
1.25737
1.2577
1.25802
1.25834
1.25865
1.25896
1.25926
1.25956
1.25984
1.26012
1.2604
1.26066
1.26091
1.26116
1.26139
1.26161
1.26182
1.26202
1.26221
1.26239
1.26256
1.26271
1.26285
1.26299
1.26311
1.26322
1.26332
1.26342
1.2635
1.26358
1.26365
1.26372
1.26377
1.26382
1.26387
1.26391
1.26395
1.26398
1.26401
1.26404
1.26406
1.26409
1.26411
1.26413
1.26414
1.26416
1.26418
1.26419
1.26421
1.26422
1.26424
1.26425
1.26426
1.26428
1.26429
1.26431
1.26432
1.26434
1.26436
1.26437
1.26439
1.26441
1.26443
1.26444
1.26446
1.26448
1.2645
1.26452
1.26454
1.26456
1.26458
1.2646
1.26462
1.26464
1.26466
1.26468
1.2647
1.26472
1.26474
1.26476
1.26478
1.2648
1.26482
1.26484
1.26486
1.26488
1.2649
1.26492
1.26493
1.26495
1.26497
1.26499
1.26501
1.26503
1.26505
1.26508
1.2651
1.26512
1.26514
1.26517
1.26519
1.26521
1.26524
1.26527
1.2653
1.26533
1.26536
1.26539
1.26543
1.26547
1.26551
1.26555
1.26559
1.26564
1.26569
1.26575
1.2658
1.26586
1.26592
1.26599
1.26606
1.26614
1.26622
1.2663
1.26639
1.26648
1.26658
1.26668
1.26679
1.26691
1.26703
1.26715
1.26728
1.26742
1.26757
1.26772
1.26788
1.26804
1.26822
1.2684
1.26859
1.26878
1.26899
1.2692
1.26942
1.26965
1.26988
1.27013
1.27038
1.27065
1.27092
1.2712
1.27149
1.27178
1.27209
1.2724
1.27273
1.27306
1.2734
1.27375
1.2741
1.27446
1.27483
1.27521
1.27559
1.27598
1.27638
1.27678
1.27718
1.27759
1.278
1.27841
1.27883
1.27924
1.27966
1.28007
1.28048
1.28089
1.2813
1.2817
1.2821
1.28249
1.28287
1.28325
1.28362
1.28398
1.28433
1.28467
1.28501
1.28533
1.28564
1.28595
1.28624
1.28652
1.2868
1.28706
1.28732
1.28756
1.2878
1.28803
1.28825
1.28846
1.28866
1.28886
1.28905
1.28924
1.28942
1.2896
1.28976
1.28993
1.29009
1.29024
1.29039
1.29054
1.29068
1.29082
1.29095
1.29108
1.29121
1.29134
1.29146
1.29157
1.29169
1.2918
1.2919
1.29201
1.29211
1.29221
1.29231
1.29241
1.2925
1.29259
1.29269
1.29278
1.29287
1.29296
1.29306
1.29315
1.29325
1.29335
1.29345
1.29356
1.29367
1.29379
1.29392
1.29405
1.29418
1.29433
1.29449
1.29465
1.29483
1.29502
1.29522
1.29543
1.29566
1.2959
1.29616
1.29643
1.29673
1.29704
1.29737
1.29772
1.29809
1.29849
1.29891
1.29935
1.29982
1.30031
1.30083
1.30138
1.30196
1.30258
1.30322
1.3039
1.30461
1.30537
1.30616
1.30699
1.30787
1.3088
1.30978
1.31081
1.31191
1.31308
1.31431
1.31564
1.31705
1.31858
1.32023
1.32202
1.32398
1.32613
1.32853
1.3312
1.3342
1.33758
1.34139
1.34558
1.34989
1.35377
1.35646
1.35574
1.23612
1.23557
1.23569
1.23653
1.23764
1.23884
1.24
1.24102
1.24189
1.24264
1.24327
1.2438
1.24425
1.24464
1.24497
1.24526
1.2455
1.24572
1.2459
1.24607
1.24621
1.24633
1.24644
1.24654
1.24662
1.2467
1.24676
1.24682
1.24687
1.24691
1.24695
1.24699
1.24701
1.24704
1.24706
1.24708
1.2471
1.24712
1.24713
1.24715
1.24716
1.24717
1.24719
1.2472
1.24722
1.24724
1.24726
1.24728
1.2473
1.24733
1.24737
1.24741
1.24745
1.2475
1.24755
1.24761
1.24767
1.24774
1.24782
1.24791
1.248
1.2481
1.24821
1.24833
1.24846
1.2486
1.24874
1.24889
1.24906
1.24923
1.24941
1.2496
1.2498
1.25
1.25022
1.25045
1.25068
1.25092
1.25117
1.25143
1.2517
1.25197
1.25226
1.25255
1.25284
1.25314
1.25345
1.25376
1.25408
1.2544
1.25473
1.25506
1.25539
1.25572
1.25606
1.25639
1.25672
1.25705
1.25738
1.25771
1.25804
1.25836
1.25867
1.25898
1.25928
1.25958
1.25987
1.26015
1.26042
1.26069
1.26094
1.26118
1.26141
1.26164
1.26185
1.26205
1.26223
1.26241
1.26257
1.26273
1.26287
1.263
1.26312
1.26323
1.26333
1.26342
1.26351
1.26358
1.26365
1.26371
1.26377
1.26382
1.26386
1.2639
1.26394
1.26397
1.264
1.26403
1.26405
1.26407
1.26409
1.26411
1.26413
1.26415
1.26416
1.26418
1.26419
1.26421
1.26422
1.26423
1.26425
1.26426
1.26428
1.26429
1.26431
1.26433
1.26434
1.26436
1.26438
1.26439
1.26441
1.26443
1.26445
1.26447
1.26449
1.26451
1.26452
1.26454
1.26456
1.26458
1.2646
1.26463
1.26464
1.26467
1.26469
1.26471
1.26473
1.26475
1.26477
1.26479
1.2648
1.26482
1.26484
1.26486
1.26488
1.2649
1.26492
1.26494
1.26496
1.26498
1.265
1.26502
1.26504
1.26506
1.26508
1.26511
1.26513
1.26515
1.26518
1.2652
1.26523
1.26526
1.26529
1.26532
1.26535
1.26538
1.26542
1.26546
1.26549
1.26554
1.26558
1.26563
1.26568
1.26573
1.26579
1.26585
1.26591
1.26598
1.26605
1.26612
1.2662
1.26629
1.26637
1.26647
1.26657
1.26667
1.26678
1.26689
1.26701
1.26714
1.26727
1.26741
1.26755
1.26771
1.26786
1.26803
1.2682
1.26838
1.26857
1.26877
1.26897
1.26919
1.26941
1.26963
1.26987
1.27012
1.27037
1.27063
1.27091
1.27119
1.27148
1.27177
1.27208
1.2724
1.27272
1.27305
1.27339
1.27374
1.2741
1.27446
1.27483
1.27521
1.2756
1.27599
1.27638
1.27679
1.27719
1.2776
1.27801
1.27843
1.27884
1.27926
1.27968
1.28009
1.28051
1.28092
1.28133
1.28173
1.28213
1.28252
1.28291
1.28328
1.28365
1.28401
1.28436
1.28471
1.28504
1.28536
1.28567
1.28597
1.28627
1.28655
1.28682
1.28708
1.28733
1.28758
1.28781
1.28804
1.28826
1.28847
1.28867
1.28887
1.28906
1.28924
1.28942
1.28959
1.28976
1.28993
1.29008
1.29024
1.29039
1.29053
1.29067
1.29081
1.29095
1.29108
1.2912
1.29133
1.29145
1.29156
1.29168
1.29179
1.29189
1.292
1.2921
1.2922
1.29229
1.29239
1.29248
1.29258
1.29267
1.29276
1.29285
1.29294
1.29303
1.29313
1.29322
1.29332
1.29343
1.29353
1.29364
1.29376
1.29388
1.29401
1.29415
1.29429
1.29445
1.29461
1.29479
1.29498
1.29518
1.29539
1.29562
1.29586
1.29612
1.29639
1.29668
1.29699
1.29732
1.29768
1.29805
1.29844
1.29886
1.2993
1.29977
1.30026
1.30079
1.30134
1.30191
1.30253
1.30317
1.30384
1.30456
1.30531
1.3061
1.30693
1.3078
1.30872
1.30969
1.31072
1.3118
1.31295
1.31417
1.31547
1.31685
1.31834
1.31993
1.32166
1.32353
1.32557
1.32781
1.33026
1.33295
1.33587
1.339
1.3422
1.34522
1.34756
1.34877
1.34849
1.23828
1.23769
1.23767
1.23808
1.23875
1.23957
1.24041
1.24121
1.24194
1.24259
1.24316
1.24366
1.24409
1.24446
1.24479
1.24508
1.24533
1.24554
1.24574
1.24591
1.24605
1.24619
1.2463
1.2464
1.24649
1.24657
1.24664
1.24671
1.24676
1.24681
1.24685
1.24689
1.24692
1.24695
1.24698
1.247
1.24702
1.24704
1.24706
1.24707
1.24709
1.2471
1.24712
1.24714
1.24715
1.24717
1.24719
1.24722
1.24725
1.24728
1.24731
1.24735
1.24739
1.24744
1.24749
1.24755
1.24762
1.24769
1.24777
1.24786
1.24795
1.24805
1.24816
1.24828
1.24841
1.24855
1.24869
1.24885
1.24901
1.24918
1.24937
1.24956
1.24976
1.24997
1.25019
1.25041
1.25065
1.25089
1.25114
1.25141
1.25167
1.25195
1.25223
1.25252
1.25282
1.25312
1.25343
1.25375
1.25407
1.25439
1.25472
1.25505
1.25539
1.25572
1.25606
1.2564
1.25673
1.25707
1.2574
1.25773
1.25805
1.25838
1.25869
1.259
1.25931
1.25961
1.2599
1.26018
1.26045
1.26072
1.26097
1.26121
1.26145
1.26167
1.26188
1.26208
1.26226
1.26244
1.2626
1.26275
1.26289
1.26302
1.26314
1.26325
1.26335
1.26344
1.26352
1.26359
1.26366
1.26372
1.26377
1.26382
1.26386
1.2639
1.26393
1.26396
1.26399
1.26402
1.26404
1.26406
1.26408
1.2641
1.26411
1.26413
1.26415
1.26416
1.26418
1.26419
1.2642
1.26422
1.26423
1.26425
1.26426
1.26428
1.26429
1.26431
1.26433
1.26434
1.26436
1.26438
1.2644
1.26441
1.26443
1.26445
1.26447
1.26449
1.26451
1.26453
1.26455
1.26457
1.26459
1.26461
1.26463
1.26465
1.26467
1.26469
1.26471
1.26473
1.26475
1.26477
1.26479
1.26481
1.26483
1.26485
1.26487
1.26489
1.26491
1.26493
1.26495
1.26497
1.26499
1.26501
1.26503
1.26505
1.26507
1.26509
1.26511
1.26514
1.26516
1.26519
1.26521
1.26524
1.26527
1.2653
1.26533
1.26537
1.2654
1.26544
1.26548
1.26552
1.26557
1.26561
1.26566
1.26572
1.26577
1.26583
1.26589
1.26596
1.26603
1.26611
1.26619
1.26627
1.26636
1.26645
1.26655
1.26665
1.26676
1.26687
1.26699
1.26712
1.26725
1.26739
1.26753
1.26768
1.26784
1.26801
1.26818
1.26836
1.26855
1.26875
1.26895
1.26916
1.26938
1.26961
1.26985
1.27009
1.27035
1.27061
1.27088
1.27117
1.27146
1.27175
1.27206
1.27238
1.2727
1.27304
1.27338
1.27373
1.27409
1.27445
1.27482
1.27521
1.27559
1.27598
1.27638
1.27679
1.27719
1.27761
1.27802
1.27844
1.27886
1.27928
1.2797
1.28011
1.28053
1.28094
1.28135
1.28176
1.28216
1.28255
1.28294
1.28332
1.28369
1.28405
1.2844
1.28474
1.28507
1.2854
1.28571
1.28601
1.2863
1.28658
1.28685
1.28711
1.28736
1.2876
1.28783
1.28805
1.28827
1.28848
1.28868
1.28888
1.28906
1.28925
1.28942
1.2896
1.28976
1.28993
1.29008
1.29024
1.29038
1.29053
1.29067
1.29081
1.29094
1.29107
1.2912
1.29132
1.29144
1.29155
1.29167
1.29178
1.29188
1.29199
1.29209
1.29218
1.29228
1.29237
1.29247
1.29256
1.29265
1.29274
1.29283
1.29292
1.29301
1.2931
1.29319
1.29329
1.29339
1.2935
1.29361
1.29372
1.29384
1.29397
1.29411
1.29425
1.2944
1.29457
1.29474
1.29492
1.29512
1.29533
1.29556
1.2958
1.29606
1.29633
1.29662
1.29693
1.29726
1.29761
1.29798
1.29837
1.29879
1.29923
1.2997
1.30019
1.30071
1.30126
1.30183
1.30244
1.30308
1.30375
1.30446
1.30521
1.30599
1.30681
1.30768
1.30859
1.30954
1.31056
1.31162
1.31275
1.31394
1.3152
1.31655
1.31798
1.31951
1.32115
1.32292
1.32482
1.32687
1.32907
1.33142
1.33389
1.3364
1.3388
1.34089
1.34238
1.34297
1.34273
1.23977
1.23927
1.23915
1.23933
1.23975
1.2403
1.2409
1.24152
1.24211
1.24266
1.24316
1.2436
1.244
1.24435
1.24467
1.24494
1.24519
1.24541
1.2456
1.24577
1.24592
1.24606
1.24618
1.24628
1.24638
1.24646
1.24654
1.2466
1.24666
1.24671
1.24676
1.2468
1.24683
1.24687
1.24689
1.24692
1.24694
1.24696
1.24698
1.247
1.24702
1.24703
1.24705
1.24707
1.24709
1.24711
1.24713
1.24716
1.24718
1.24721
1.24725
1.24729
1.24733
1.24738
1.24743
1.24749
1.24756
1.24763
1.24771
1.2478
1.24789
1.248
1.24811
1.24823
1.24836
1.2485
1.24864
1.2488
1.24896
1.24914
1.24932
1.24951
1.24971
1.24992
1.25014
1.25037
1.25061
1.25085
1.25111
1.25137
1.25164
1.25192
1.2522
1.2525
1.2528
1.2531
1.25341
1.25373
1.25406
1.25438
1.25471
1.25505
1.25538
1.25572
1.25606
1.2564
1.25674
1.25708
1.25741
1.25774
1.25807
1.2584
1.25871
1.25903
1.25933
1.25963
1.25993
1.26021
1.26048
1.26075
1.261
1.26125
1.26148
1.26171
1.26191
1.26211
1.2623
1.26247
1.26263
1.26278
1.26292
1.26305
1.26316
1.26327
1.26336
1.26345
1.26353
1.2636
1.26366
1.26372
1.26377
1.26382
1.26386
1.26389
1.26393
1.26396
1.26398
1.26401
1.26403
1.26405
1.26407
1.26409
1.2641
1.26412
1.26413
1.26415
1.26416
1.26417
1.26419
1.2642
1.26422
1.26423
1.26425
1.26426
1.26428
1.26429
1.26431
1.26433
1.26434
1.26436
1.26438
1.2644
1.26442
1.26443
1.26445
1.26447
1.26449
1.26451
1.26453
1.26455
1.26457
1.26459
1.26461
1.26463
1.26465
1.26467
1.26469
1.26471
1.26473
1.26475
1.26477
1.26479
1.26481
1.26483
1.26485
1.26487
1.26489
1.26491
1.26493
1.26495
1.26497
1.26499
1.26501
1.26503
1.26505
1.26508
1.2651
1.26512
1.26515
1.26517
1.2652
1.26522
1.26525
1.26528
1.26532
1.26535
1.26538
1.26542
1.26546
1.2655
1.26555
1.26559
1.26564
1.2657
1.26575
1.26581
1.26587
1.26594
1.26601
1.26609
1.26616
1.26625
1.26633
1.26643
1.26652
1.26663
1.26673
1.26685
1.26697
1.26709
1.26722
1.26736
1.26751
1.26766
1.26781
1.26798
1.26815
1.26833
1.26852
1.26872
1.26892
1.26913
1.26935
1.26958
1.26982
1.27006
1.27032
1.27058
1.27085
1.27114
1.27143
1.27173
1.27203
1.27235
1.27268
1.27301
1.27335
1.27371
1.27407
1.27443
1.27481
1.27519
1.27558
1.27597
1.27637
1.27678
1.27719
1.27761
1.27802
1.27844
1.27887
1.27929
1.27971
1.28013
1.28055
1.28097
1.28138
1.28179
1.28219
1.28259
1.28298
1.28336
1.28373
1.28409
1.28444
1.28479
1.28512
1.28544
1.28575
1.28605
1.28633
1.28661
1.28688
1.28714
1.28738
1.28762
1.28785
1.28808
1.28829
1.2885
1.2887
1.28889
1.28908
1.28926
1.28943
1.2896
1.28977
1.28993
1.29008
1.29024
1.29038
1.29053
1.29067
1.2908
1.29094
1.29107
1.29119
1.29131
1.29143
1.29155
1.29166
1.29177
1.29187
1.29198
1.29207
1.29217
1.29227
1.29236
1.29245
1.29254
1.29263
1.29271
1.2928
1.29289
1.29298
1.29307
1.29316
1.29326
1.29335
1.29346
1.29356
1.29368
1.2938
1.29392
1.29405
1.2942
1.29435
1.29451
1.29468
1.29486
1.29506
1.29527
1.29549
1.29573
1.29598
1.29625
1.29654
1.29685
1.29718
1.29752
1.29789
1.29828
1.2987
1.29913
1.2996
1.30009
1.3006
1.30115
1.30172
1.30232
1.30296
1.30363
1.30433
1.30506
1.30584
1.30665
1.30751
1.3084
1.30934
1.31033
1.31138
1.31248
1.31363
1.31486
1.31615
1.31752
1.31898
1.32052
1.32217
1.32391
1.32577
1.32772
1.32974
1.33179
1.33378
1.33558
1.33704
1.33801
1.33834
1.33801
1.24086
1.24045
1.24029
1.24035
1.2406
1.24097
1.24141
1.24188
1.24235
1.2428
1.24323
1.24362
1.24398
1.2443
1.24459
1.24485
1.24509
1.2453
1.24549
1.24566
1.24581
1.24595
1.24607
1.24618
1.24627
1.24636
1.24644
1.24651
1.24657
1.24662
1.24667
1.24671
1.24675
1.24679
1.24682
1.24684
1.24687
1.24689
1.24691
1.24693
1.24695
1.24697
1.24699
1.247
1.24702
1.24705
1.24707
1.24709
1.24712
1.24715
1.24719
1.24723
1.24727
1.24732
1.24737
1.24743
1.2475
1.24757
1.24765
1.24774
1.24783
1.24794
1.24805
1.24817
1.2483
1.24844
1.24858
1.24874
1.24891
1.24908
1.24927
1.24946
1.24966
1.24987
1.25009
1.25032
1.25056
1.25081
1.25107
1.25133
1.2516
1.25188
1.25217
1.25246
1.25276
1.25307
1.25339
1.25371
1.25403
1.25436
1.2547
1.25504
1.25538
1.25572
1.25606
1.2564
1.25675
1.25709
1.25742
1.25776
1.25809
1.25842
1.25874
1.25905
1.25936
1.25966
1.25996
1.26024
1.26052
1.26079
1.26104
1.26129
1.26152
1.26175
1.26196
1.26216
1.26234
1.26251
1.26267
1.26282
1.26296
1.26308
1.26319
1.2633
1.26339
1.26347
1.26355
1.26362
1.26368
1.26373
1.26378
1.26382
1.26386
1.2639
1.26393
1.26395
1.26398
1.264
1.26402
1.26404
1.26406
1.26407
1.26409
1.2641
1.26412
1.26413
1.26414
1.26416
1.26417
1.26419
1.2642
1.26421
1.26423
1.26424
1.26426
1.26428
1.26429
1.26431
1.26433
1.26434
1.26436
1.26438
1.2644
1.26442
1.26444
1.26446
1.26448
1.2645
1.26452
1.26454
1.26456
1.26458
1.2646
1.26462
1.26464
1.26466
1.26468
1.2647
1.26472
1.26474
1.26476
1.26478
1.2648
1.26482
1.26483
1.26485
1.26487
1.26489
1.26491
1.26493
1.26495
1.26497
1.26499
1.26501
1.26504
1.26506
1.26508
1.2651
1.26513
1.26515
1.26518
1.26521
1.26523
1.26526
1.2653
1.26533
1.26536
1.2654
1.26544
1.26548
1.26553
1.26557
1.26562
1.26567
1.26573
1.26579
1.26585
1.26592
1.26599
1.26606
1.26614
1.26622
1.26631
1.2664
1.26649
1.2666
1.2667
1.26682
1.26693
1.26706
1.26719
1.26733
1.26747
1.26762
1.26778
1.26794
1.26812
1.2683
1.26848
1.26868
1.26888
1.26909
1.26931
1.26954
1.26978
1.27002
1.27028
1.27054
1.27081
1.2711
1.27139
1.27169
1.272
1.27231
1.27264
1.27298
1.27332
1.27367
1.27403
1.2744
1.27478
1.27516
1.27555
1.27595
1.27636
1.27676
1.27718
1.2776
1.27802
1.27844
1.27887
1.2793
1.27972
1.28015
1.28057
1.28099
1.28141
1.28182
1.28223
1.28263
1.28302
1.2834
1.28377
1.28414
1.28449
1.28483
1.28516
1.28548
1.28579
1.28609
1.28638
1.28665
1.28692
1.28717
1.28742
1.28766
1.28788
1.2881
1.28831
1.28852
1.28872
1.28891
1.28909
1.28927
1.28944
1.28961
1.28978
1.28993
1.29009
1.29024
1.29039
1.29053
1.29067
1.2908
1.29094
1.29106
1.29119
1.29131
1.29143
1.29154
1.29165
1.29176
1.29187
1.29197
1.29206
1.29216
1.29225
1.29234
1.29243
1.29252
1.29261
1.29269
1.29278
1.29286
1.29295
1.29304
1.29313
1.29322
1.29331
1.29341
1.29352
1.29363
1.29374
1.29387
1.294
1.29413
1.29428
1.29444
1.29461
1.29479
1.29498
1.29519
1.29541
1.29564
1.29589
1.29616
1.29645
1.29675
1.29708
1.29742
1.29778
1.29817
1.29858
1.29902
1.29948
1.29996
1.30047
1.30101
1.30158
1.30218
1.3028
1.30347
1.30416
1.30489
1.30565
1.30645
1.30729
1.30817
1.30909
1.31006
1.31107
1.31214
1.31326
1.31443
1.31567
1.31697
1.31834
1.31979
1.32131
1.3229
1.32456
1.32626
1.32798
1.32967
1.33125
1.33262
1.33366
1.3343
1.33447
1.33411
1.2417
1.24135
1.24118
1.24118
1.24132
1.24157
1.24188
1.24224
1.24261
1.24298
1.24334
1.24368
1.244
1.24429
1.24456
1.2448
1.24502
1.24522
1.24541
1.24557
1.24572
1.24585
1.24597
1.24608
1.24618
1.24627
1.24635
1.24642
1.24648
1.24654
1.24659
1.24663
1.24667
1.24671
1.24674
1.24677
1.2468
1.24682
1.24684
1.24686
1.24688
1.2469
1.24692
1.24694
1.24696
1.24698
1.247
1.24703
1.24706
1.24709
1.24712
1.24716
1.24721
1.24726
1.24731
1.24737
1.24744
1.24751
1.24759
1.24768
1.24777
1.24788
1.24799
1.24811
1.24824
1.24838
1.24852
1.24868
1.24885
1.24902
1.24921
1.2494
1.24961
1.24982
1.25004
1.25027
1.25051
1.25076
1.25102
1.25128
1.25156
1.25184
1.25213
1.25242
1.25273
1.25304
1.25336
1.25368
1.25401
1.25434
1.25468
1.25502
1.25537
1.25571
1.25606
1.2564
1.25675
1.25709
1.25743
1.25777
1.25811
1.25844
1.25876
1.25908
1.25939
1.2597
1.25999
1.26028
1.26056
1.26083
1.26109
1.26134
1.26157
1.26179
1.262
1.2622
1.26239
1.26256
1.26272
1.26286
1.263
1.26312
1.26323
1.26333
1.26342
1.2635
1.26357
1.26363
1.26369
1.26374
1.26379
1.26383
1.26386
1.2639
1.26392
1.26395
1.26397
1.26399
1.26401
1.26403
1.26405
1.26406
1.26408
1.26409
1.2641
1.26412
1.26413
1.26414
1.26416
1.26417
1.26418
1.2642
1.26421
1.26423
1.26424
1.26426
1.26427
1.26429
1.26431
1.26432
1.26434
1.26436
1.26438
1.2644
1.26442
1.26444
1.26446
1.26448
1.2645
1.26452
1.26454
1.26456
1.26458
1.2646
1.26462
1.26464
1.26466
1.26468
1.2647
1.26472