# vtk DataFile Version 2.0
LBE mesh
ASCII
DATASET STRUCTURED_POINTS
DIMENSIONS 400 100 1
ASPECT_RATIO 1 1 1
ORIGIN 0 0 0
POINT_DATA 40000
SCALARS rho double 1
LOOKUP_TABLE default
1.11793
1.19489
1.2172
1.22162
1.22374
1.22562
1.22698
1.22787
1.22847
1.2289
1.22924
1.22949
1.2297
1.22986
1.22998
1.23008
1.23016
1.23022
1.23027
1.2303
1.23032
1.23034
1.23034
1.23034
1.23032
1.23031
1.23028
1.23025
1.23022
1.23018
1.23014
1.23009
1.23005
1.22999
1.22994
1.22988
1.22983
1.22977
1.22971
1.22964
1.22958
1.22952
1.22946
1.2294
1.22934
1.22928
1.22922
1.22917
1.22912
1.22907
1.22902
1.22898
1.22894
1.22891
1.22888
1.22886
1.22884
1.22884
1.22883
1.22884
1.22885
1.22886
1.22889
1.22893
1.22897
1.22902
1.22908
1.22915
1.22923
1.22932
1.22941
1.22952
1.22963
1.22976
1.22989
1.23004
1.23019
1.23036
1.23053
1.23071
1.2309
1.2311
1.23131
1.23152
1.23175
1.23198
1.23222
1.23247
1.23273
1.23299
1.23326
1.23353
1.23381
1.2341
1.23439
1.23468
1.23498
1.23528
1.23558
1.23588
1.23618
1.23648
1.23678
1.23708
1.23738
1.23767
1.23796
1.23825
1.23853
1.2388
1.23907
1.23934
1.23959
1.23984
1.24008
1.24031
1.24054
1.24075
1.24096
1.24115
1.24134
1.24152
1.24168
1.24185
1.242
1.24214
1.24227
1.2424
1.24252
1.24263
1.24274
1.24284
1.24294
1.24303
1.24311
1.24319
1.24327
1.24335
1.24342
1.24348
1.24355
1.24361
1.24368
1.24374
1.24379
1.24385
1.24391
1.24397
1.24402
1.24408
1.24413
1.24419
1.24425
1.2443
1.24436
1.24442
1.24447
1.24453
1.24459
1.24465
1.24471
1.24477
1.24483
1.2449
1.24496
1.24502
1.24509
1.24515
1.24522
1.24529
1.24536
1.24542
1.24549
1.24556
1.24563
1.2457
1.24577
1.24584
1.24591
1.24598
1.24605
1.24612
1.24619
1.24626
1.24633
1.2464
1.24647
1.24654
1.2466
1.24667
1.24674
1.2468
1.24687
1.24693
1.247
1.24706
1.24712
1.24718
1.24724
1.2473
1.24736
1.24741
1.24747
1.24753
1.24758
1.24764
1.24769
1.24775
1.2478
1.24785
1.24791
1.24796
1.24802
1.24807
1.24813
1.24818
1.24824
1.2483
1.24836
1.24842
1.24849
1.24856
1.24862
1.2487
1.24877
1.24885
1.24893
1.24902
1.24911
1.2492
1.2493
1.2494
1.24951
1.24963
1.24975
1.24988
1.25001
1.25015
1.2503
1.25045
1.25061
1.25078
1.25096
1.25115
1.25134
1.25154
1.25175
1.25197
1.2522
1.25244
1.25268
1.25294
1.2532
1.25347
1.25376
1.25405
1.25434
1.25465
1.25497
1.25529
1.25562
1.25596
1.2563
1.25665
1.25701
1.25737
1.25774
1.25811
1.25848
1.25886
1.25924
1.25962
1.26
1.26038
1.26076
1.26113
1.26151
1.26188
1.26224
1.26261
1.26296
1.26331
1.26365
1.26399
1.26431
1.26463
1.26494
1.26524
1.26553
1.26581
1.26608
1.26635
1.2666
1.26685
1.26708
1.26731
1.26753
1.26775
1.26795
1.26815
1.26835
1.26853
1.26871
1.26889
1.26906
1.26923
1.26939
1.26955
1.26971
1.26986
1.27001
1.27015
1.2703
1.27044
1.27058
1.27071
1.27085
1.27098
1.27111
1.27123
1.27136
1.27148
1.2716
1.27172
1.27184
1.27195
1.27207
1.27218
1.27229
1.27241
1.27252
1.27263
1.27274
1.27285
1.27297
1.27308
1.2732
1.27332
1.27344
1.27357
1.2737
1.27383
1.27398
1.27412
1.27428
1.27444
1.27461
1.27479
1.27498
1.27518
1.27539
1.27562
1.27585
1.27611
1.27637
1.27666
1.27696
1.27728
1.27761
1.27797
1.27835
1.27874
1.27917
1.27961
1.28008
1.28058
1.2811
1.28165
1.28223
1.28284
1.28348
1.28415
1.28486
1.28561
1.28639
1.28722
1.28809
1.289
1.28997
1.29099
1.29207
1.29322
1.29444
1.29574
1.29713
1.29863
1.30026
1.30202
1.30396
1.30611
1.30852
1.31126
1.31444
1.31819
1.32274
1.32863
1.3369
1.34859
1.36477
1.39571
1.18433
1.19386
1.20589
1.21593
1.22111
1.22373
1.22535
1.22652
1.22738
1.22801
1.22849
1.22886
1.22915
1.22938
1.22956
1.22971
1.22982
1.22992
1.22999
1.23005
1.23009
1.23013
1.23014
1.23016
1.23016
1.23015
1.23014
1.23012
1.23009
1.23006
1.23003
1.22999
1.22994
1.2299
1.22985
1.2298
1.22974
1.22969
1.22963
1.22957
1.22951
1.22946
1.2294
1.22934
1.22928
1.22923
1.22917
1.22912
1.22907
1.22903
1.22898
1.22894
1.22891
1.22888
1.22885
1.22883
1.22882
1.22881
1.22881
1.22882
1.22883
1.22885
1.22888
1.22892
1.22896
1.22901
1.22908
1.22915
1.22923
1.22932
1.22942
1.22952
1.22964
1.22977
1.2299
1.23005
1.2302
1.23037
1.23054
1.23072
1.23092
1.23112
1.23132
1.23154
1.23177
1.232
1.23224
1.23249
1.23275
1.23301
1.23328
1.23356
1.23384
1.23412
1.23441
1.2347
1.235
1.2353
1.23559
1.2359
1.2362
1.2365
1.2368
1.23709
1.23739
1.23768
1.23797
1.23825
1.23853
1.23881
1.23908
1.23934
1.23959
1.23984
1.24008
1.24031
1.24053
1.24074
1.24094
1.24114
1.24133
1.2415
1.24167
1.24183
1.24198
1.24212
1.24226
1.24238
1.2425
1.24262
1.24272
1.24282
1.24292
1.24301
1.24309
1.24318
1.24325
1.24333
1.2434
1.24347
1.24353
1.2436
1.24366
1.24372
1.24378
1.24384
1.2439
1.24395
1.24401
1.24407
1.24412
1.24418
1.24423
1.24429
1.24435
1.24441
1.24446
1.24452
1.24458
1.24464
1.2447
1.24476
1.24483
1.24489
1.24495
1.24502
1.24508
1.24515
1.24522
1.24528
1.24535
1.24542
1.24549
1.24556
1.24563
1.2457
1.24577
1.24584
1.24591
1.24598
1.24605
1.24612
1.24619
1.24626
1.24633
1.2464
1.24647
1.24654
1.2466
1.24667
1.24674
1.2468
1.24687
1.24693
1.24699
1.24706
1.24712
1.24718
1.24724
1.2473
1.24736
1.24741
1.24747
1.24753
1.24758
1.24764
1.24769
1.24775
1.2478
1.24785
1.24791
1.24796
1.24802
1.24807
1.24813
1.24819
1.24825
1.2483
1.24837
1.24843
1.24849
1.24856
1.24863
1.2487
1.24878
1.24886
1.24894
1.24903
1.24912
1.24921
1.24931
1.24942
1.24953
1.24964
1.24977
1.24989
1.25003
1.25017
1.25032
1.25047
1.25064
1.25081
1.25098
1.25117
1.25137
1.25157
1.25178
1.252
1.25223
1.25247
1.25271
1.25297
1.25324
1.25351
1.25379
1.25408
1.25438
1.25469
1.255
1.25533
1.25566
1.256
1.25634
1.25669
1.25705
1.25741
1.25777
1.25814
1.25852
1.25889
1.25927
1.25965
1.26003
1.26041
1.26079
1.26116
1.26153
1.2619
1.26227
1.26263
1.26298
1.26333
1.26366
1.264
1.26432
1.26464
1.26494
1.26524
1.26553
1.26581
1.26608
1.26634
1.26659
1.26684
1.26708
1.2673
1.26752
1.26774
1.26794
1.26814
1.26833
1.26852
1.2687
1.26888
1.26905
1.26922
1.26938
1.26954
1.26969
1.26985
1.27
1.27014
1.27029
1.27043
1.27056
1.2707
1.27083
1.27097
1.27109
1.27122
1.27135
1.27147
1.27159
1.27171
1.27183
1.27194
1.27206
1.27217
1.27229
1.2724
1.27251
1.27262
1.27274
1.27285
1.27296
1.27308
1.2732
1.27332
1.27344
1.27357
1.2737
1.27384
1.27398
1.27413
1.27429
1.27445
1.27462
1.2748
1.275
1.2752
1.27541
1.27564
1.27588
1.27614
1.27641
1.27669
1.27699
1.27732
1.27766
1.27802
1.2784
1.2788
1.27922
1.27967
1.28015
1.28064
1.28117
1.28172
1.28231
1.28292
1.28357
1.28425
1.28496
1.28571
1.28651
1.28734
1.28822
1.28914
1.29012
1.29115
1.29224
1.2934
1.29464
1.29596
1.29738
1.29891
1.30056
1.30237
1.30437
1.30659
1.3091
1.31196
1.3153
1.31929
1.32423
1.33045
1.3385
1.35017
1.37086
1.40412
1.20421
1.20209
1.20941
1.21555
1.21937
1.22212
1.22409
1.22549
1.22649
1.22724
1.22783
1.22828
1.22864
1.22893
1.22916
1.22935
1.22951
1.22963
1.22973
1.22981
1.22987
1.22992
1.22996
1.22998
1.22999
1.23
1.22999
1.22998
1.22997
1.22994
1.22991
1.22988
1.22984
1.2298
1.22976
1.22971
1.22966
1.22961
1.22956
1.2295
1.22945
1.22939
1.22934
1.22928
1.22923
1.22918
1.22912
1.22907
1.22903
1.22898
1.22894
1.22891
1.22887
1.22885
1.22882
1.2288
1.22879
1.22879
1.22879
1.2288
1.22881
1.22883
1.22886
1.2289
1.22895
1.229
1.22907
1.22914
1.22922
1.22931
1.22941
1.22952
1.22964
1.22977
1.22991
1.23005
1.23021
1.23038
1.23055
1.23073
1.23093
1.23113
1.23134
1.23156
1.23178
1.23202
1.23226
1.23251
1.23277
1.23303
1.2333
1.23358
1.23386
1.23414
1.23443
1.23472
1.23502
1.23532
1.23561
1.23592
1.23622
1.23652
1.23681
1.23711
1.23741
1.2377
1.23798
1.23827
1.23855
1.23882
1.23909
1.23935
1.2396
1.23985
1.24008
1.24031
1.24053
1.24074
1.24095
1.24114
1.24132
1.2415
1.24167
1.24182
1.24197
1.24211
1.24225
1.24237
1.24249
1.2426
1.24271
1.24281
1.24291
1.243
1.24308
1.24316
1.24324
1.24331
1.24339
1.24345
1.24352
1.24359
1.24365
1.24371
1.24377
1.24383
1.24389
1.24394
1.244
1.24406
1.24411
1.24417
1.24423
1.24428
1.24434
1.2444
1.24446
1.24452
1.24458
1.24464
1.2447
1.24476
1.24482
1.24489
1.24495
1.24502
1.24508
1.24515
1.24521
1.24528
1.24535
1.24542
1.24549
1.24556
1.24563
1.2457
1.24577
1.24584
1.24591
1.24598
1.24605
1.24612
1.24619
1.24626
1.24633
1.2464
1.24647
1.24654
1.2466
1.24667
1.24674
1.2468
1.24687
1.24693
1.24699
1.24706
1.24712
1.24718
1.24724
1.2473
1.24736
1.24741
1.24747
1.24753
1.24758
1.24764
1.24769
1.24775
1.2478
1.24786
1.24791
1.24797
1.24802
1.24808
1.24813
1.24819
1.24825
1.24831
1.24837
1.24843
1.2485
1.24857
1.24864
1.24871
1.24879
1.24887
1.24895
1.24904
1.24913
1.24922
1.24932
1.24943
1.24954
1.24966
1.24978
1.24991
1.25004
1.25019
1.25033
1.25049
1.25065
1.25083
1.251
1.25119
1.25139
1.25159
1.2518
1.25203
1.25225
1.25249
1.25274
1.253
1.25326
1.25354
1.25382
1.25411
1.25441
1.25472
1.25504
1.25536
1.25569
1.25603
1.25637
1.25672
1.25708
1.25744
1.25781
1.25818
1.25855
1.25893
1.25931
1.25968
1.26006
1.26044
1.26082
1.26119
1.26156
1.26193
1.26229
1.26265
1.263
1.26335
1.26369
1.26402
1.26434
1.26465
1.26496
1.26525
1.26554
1.26582
1.26609
1.26635
1.2666
1.26684
1.26708
1.2673
1.26752
1.26773
1.26794
1.26814
1.26833
1.26851
1.26869
1.26887
1.26904
1.26921
1.26937
1.26953
1.26969
1.26984
1.26999
1.27013
1.27028
1.27042
1.27056
1.27069
1.27083
1.27096
1.27109
1.27121
1.27134
1.27146
1.27158
1.2717
1.27182
1.27194
1.27205
1.27217
1.27228
1.27239
1.27251
1.27262
1.27273
1.27284
1.27296
1.27308
1.27319
1.27331
1.27344
1.27357
1.2737
1.27384
1.27398
1.27413
1.27429
1.27445
1.27463
1.27481
1.275
1.27521
1.27542
1.27565
1.27589
1.27615
1.27642
1.27671
1.27701
1.27734
1.27768
1.27804
1.27842
1.27883
1.27926
1.27971
1.28018
1.28069
1.28122
1.28177
1.28236
1.28298
1.28363
1.28431
1.28503
1.28578
1.28658
1.28742
1.2883
1.28923
1.29021
1.29125
1.29235
1.29351
1.29476
1.29609
1.29751
1.29905
1.30072
1.30254
1.30455
1.30679
1.30931
1.31219
1.31553
1.31948
1.32424
1.33022
1.33796
1.34764
1.35815
1.36857
1.2122
1.21122
1.21351
1.21624
1.21926
1.2217
1.22347
1.22481
1.22585
1.22666
1.2273
1.2278
1.22821
1.22854
1.22881
1.22903
1.22922
1.22937
1.22949
1.22959
1.22967
1.22973
1.22978
1.22982
1.22984
1.22985
1.22986
1.22986
1.22985
1.22983
1.22981
1.22978
1.22975
1.22971
1.22967
1.22963
1.22958
1.22954
1.22949
1.22944
1.22938
1.22933
1.22928
1.22923
1.22917
1.22912
1.22907
1.22903
1.22898
1.22894
1.2289
1.22887
1.22883
1.22881
1.22879
1.22877
1.22876
1.22876
1.22876
1.22877
1.22878
1.22881
1.22884
1.22888
1.22893
1.22899
1.22905
1.22913
1.22921
1.2293
1.2294
1.22951
1.22963
1.22976
1.2299
1.23005
1.23021
1.23038
1.23055
1.23074
1.23093
1.23113
1.23134
1.23156
1.23179
1.23203
1.23227
1.23252
1.23278
1.23304
1.23332
1.23359
1.23387
1.23416
1.23445
1.23474
1.23504
1.23534
1.23564
1.23594
1.23624
1.23654
1.23684
1.23713
1.23743
1.23772
1.23801
1.23829
1.23857
1.23884
1.23911
1.23937
1.23962
1.23986
1.2401
1.24033
1.24055
1.24076
1.24096
1.24115
1.24133
1.24151
1.24167
1.24183
1.24198
1.24212
1.24225
1.24237
1.24249
1.2426
1.24271
1.24281
1.2429
1.24299
1.24307
1.24316
1.24323
1.24331
1.24338
1.24345
1.24351
1.24358
1.24364
1.2437
1.24376
1.24382
1.24388
1.24394
1.24399
1.24405
1.24411
1.24417
1.24422
1.24428
1.24434
1.2444
1.24446
1.24452
1.24457
1.24464
1.2447
1.24476
1.24482
1.24489
1.24495
1.24502
1.24508
1.24515
1.24522
1.24528
1.24535
1.24542
1.24549
1.24556
1.24563
1.2457
1.24577
1.24584
1.24591
1.24598
1.24605
1.24612
1.24619
1.24626
1.24633
1.2464
1.24647
1.24654
1.24661
1.24667
1.24674
1.24681
1.24687
1.24693
1.247
1.24706
1.24712
1.24718
1.24724
1.2473
1.24736
1.24742
1.24747
1.24753
1.24759
1.24764
1.2477
1.24775
1.24781
1.24786
1.24791
1.24797
1.24802
1.24808
1.24814
1.2482
1.24825
1.24831
1.24838
1.24844
1.2485
1.24857
1.24864
1.24872
1.24879
1.24887
1.24896
1.24904
1.24914
1.24923
1.24933
1.24944
1.24955
1.24967
1.24979
1.24992
1.25006
1.2502
1.25035
1.2505
1.25067
1.25084
1.25102
1.25121
1.2514
1.25161
1.25182
1.25204
1.25227
1.25251
1.25276
1.25302
1.25329
1.25356
1.25384
1.25414
1.25444
1.25475
1.25506
1.25539
1.25572
1.25606
1.2564
1.25676
1.25711
1.25748
1.25784
1.25821
1.25859
1.25896
1.25934
1.25972
1.2601
1.26048
1.26085
1.26123
1.2616
1.26197
1.26233
1.26269
1.26304
1.26338
1.26372
1.26405
1.26437
1.26468
1.26498
1.26528
1.26556
1.26584
1.2661
1.26636
1.26661
1.26685
1.26709
1.26731
1.26753
1.26774
1.26794
1.26814
1.26833
1.26851
1.26869
1.26887
1.26904
1.26921
1.26937
1.26953
1.26968
1.26983
1.26998
1.27013
1.27027
1.27041
1.27055
1.27069
1.27082
1.27095
1.27108
1.27121
1.27133
1.27146
1.27158
1.2717
1.27182
1.27193
1.27205
1.27216
1.27228
1.27239
1.2725
1.27261
1.27273
1.27284
1.27295
1.27307
1.27319
1.27331
1.27343
1.27356
1.27369
1.27383
1.27397
1.27412
1.27428
1.27445
1.27462
1.2748
1.275
1.2752
1.27542
1.27565
1.27589
1.27615
1.27642
1.27671
1.27702
1.27734
1.27768
1.27805
1.27843
1.27884
1.27927
1.27972
1.2802
1.2807
1.28123
1.28179
1.28238
1.283
1.28365
1.28434
1.28506
1.28582
1.28661
1.28745
1.28834
1.28927
1.29025
1.29129
1.29239
1.29355
1.29479
1.29612
1.29754
1.29907
1.30073
1.30254
1.30453
1.30673
1.30919
1.31199
1.31519
1.3189
1.32326
1.32837
1.3343
1.34092
1.3463
1.34651
1.2166
1.21614
1.21673
1.21825
1.22015
1.22185
1.22331
1.22452
1.22549
1.22628
1.22692
1.22744
1.22787
1.22822
1.22851
1.22876
1.22896
1.22913
1.22927
1.22939
1.22948
1.22956
1.22962
1.22966
1.2297
1.22972
1.22973
1.22974
1.22973
1.22972
1.22971
1.22969
1.22966
1.22963
1.22959
1.22955
1.22951
1.22947
1.22942
1.22937
1.22932
1.22927
1.22922
1.22917
1.22912
1.22907
1.22902
1.22898
1.22893
1.22889
1.22886
1.22882
1.22879
1.22877
1.22875
1.22873
1.22873
1.22872
1.22873
1.22874
1.22875
1.22878
1.22881
1.22886
1.2289
1.22896
1.22903
1.22911
1.22919
1.22928
1.22939
1.2295
1.22962
1.22975
1.22989
1.23004
1.2302
1.23037
1.23055
1.23073
1.23093
1.23113
1.23134
1.23157
1.23179
1.23203
1.23228
1.23253
1.23279
1.23305
1.23333
1.2336
1.23389
1.23417
1.23447
1.23476
1.23506
1.23536
1.23566
1.23596
1.23626
1.23656
1.23686
1.23716
1.23745
1.23775
1.23803
1.23832
1.23859
1.23887
1.23913
1.23939
1.23964
1.23989
1.24012
1.24035
1.24057
1.24078
1.24098
1.24117
1.24135
1.24152
1.24169
1.24184
1.24199
1.24213
1.24226
1.24238
1.2425
1.24261
1.24271
1.24281
1.2429
1.24299
1.24308
1.24316
1.24323
1.24331
1.24338
1.24345
1.24351
1.24358
1.24364
1.2437
1.24376
1.24382
1.24388
1.24394
1.24399
1.24405
1.24411
1.24416
1.24422
1.24428
1.24434
1.2444
1.24446
1.24452
1.24458
1.24464
1.2447
1.24476
1.24482
1.24489
1.24495
1.24502
1.24508
1.24515
1.24522
1.24529
1.24536
1.24542
1.24549
1.24556
1.24563
1.2457
1.24577
1.24585
1.24592
1.24599
1.24606
1.24613
1.2462
1.24627
1.24634
1.24641
1.24648
1.24655
1.24661
1.24668
1.24675
1.24681
1.24688
1.24694
1.247
1.24707
1.24713
1.24719
1.24725
1.24731
1.24737
1.24742
1.24748
1.24754
1.24759
1.24765
1.2477
1.24776
1.24781
1.24787
1.24792
1.24798
1.24803
1.24809
1.24814
1.2482
1.24826
1.24832
1.24838
1.24844
1.24851
1.24858
1.24865
1.24872
1.2488
1.24888
1.24896
1.24905
1.24914
1.24924
1.24934
1.24945
1.24956
1.24967
1.2498
1.24993
1.25006
1.25021
1.25036
1.25051
1.25068
1.25085
1.25103
1.25122
1.25142
1.25162
1.25183
1.25206
1.25229
1.25253
1.25278
1.25304
1.2533
1.25358
1.25386
1.25416
1.25446
1.25477
1.25508
1.25541
1.25574
1.25608
1.25643
1.25678
1.25714
1.25751
1.25787
1.25824
1.25862
1.259
1.25938
1.25976
1.26013
1.26051
1.26089
1.26127
1.26164
1.262
1.26237
1.26272
1.26307
1.26342
1.26375
1.26408
1.2644
1.26471
1.26501
1.26531
1.26559
1.26586
1.26613
1.26639
1.26663
1.26687
1.2671
1.26733
1.26754
1.26775
1.26795
1.26815
1.26834
1.26852
1.2687
1.26887
1.26904
1.26921
1.26937
1.26953
1.26968
1.26983
1.26998
1.27013
1.27027
1.27041
1.27055
1.27069
1.27082
1.27095
1.27108
1.27121
1.27133
1.27146
1.27158
1.2717
1.27181
1.27193
1.27205
1.27216
1.27227
1.27238
1.2725
1.27261
1.27272
1.27283
1.27295
1.27306
1.27318
1.2733
1.27342
1.27355
1.27368
1.27382
1.27396
1.27411
1.27427
1.27443
1.27461
1.27479
1.27498
1.27519
1.2754
1.27563
1.27587
1.27613
1.27641
1.27669
1.277
1.27733
1.27767
1.27803
1.27842
1.27882
1.27925
1.27971
1.28019
1.28069
1.28122
1.28178
1.28237
1.28299
1.28364
1.28433
1.28505
1.28581
1.2866
1.28744
1.28832
1.28925
1.29023
1.29126
1.29236
1.29351
1.29474
1.29606
1.29746
1.29897
1.30059
1.30236
1.30429
1.30641
1.30877
1.3114
1.31435
1.31767
1.32142
1.32555
1.32979
1.3336
1.33625
1.33554
1.21969
1.21916
1.21929
1.22012
1.22122
1.2224
1.22353
1.22452
1.22536
1.22608
1.22669
1.22719
1.22762
1.22798
1.22828
1.22853
1.22875
1.22893
1.22908
1.22921
1.22931
1.2294
1.22947
1.22952
1.22956
1.22959
1.22961
1.22963
1.22963
1.22962
1.22961
1.22959
1.22957
1.22954
1.22951
1.22948
1.22944
1.2294
1.22935
1.22931
1.22926
1.22921
1.22916
1.22911
1.22907
1.22902
1.22897
1.22893
1.22889
1.22885
1.22881
1.22878
1.22875
1.22873
1.22871
1.2287
1.22869
1.22869
1.22869
1.2287
1.22872
1.22875
1.22878
1.22883
1.22888
1.22894
1.229
1.22908
1.22917
1.22926
1.22937
1.22948
1.2296
1.22974
1.22988
1.23003
1.23019
1.23036
1.23054
1.23072
1.23092
1.23113
1.23134
1.23156
1.23179
1.23203
1.23228
1.23253
1.23279
1.23306
1.23333
1.23361
1.2339
1.23419
1.23448
1.23478
1.23508
1.23538
1.23568
1.23598
1.23628
1.23659
1.23689
1.23719
1.23748
1.23778
1.23806
1.23835
1.23863
1.2389
1.23917
1.23943
1.23968
1.23992
1.24016
1.24039
1.2406
1.24081
1.24101
1.2412
1.24138
1.24155
1.24171
1.24187
1.24201
1.24215
1.24228
1.2424
1.24251
1.24262
1.24272
1.24282
1.24291
1.243
1.24308
1.24316
1.24324
1.24331
1.24338
1.24345
1.24351
1.24358
1.24364
1.2437
1.24376
1.24382
1.24388
1.24394
1.24399
1.24405
1.24411
1.24417
1.24422
1.24428
1.24434
1.2444
1.24446
1.24452
1.24458
1.24464
1.2447
1.24477
1.24483
1.24489
1.24496
1.24502
1.24509
1.24516
1.24522
1.24529
1.24536
1.24543
1.2455
1.24557
1.24564
1.24571
1.24578
1.24585
1.24592
1.246
1.24607
1.24614
1.24621
1.24628
1.24635
1.24642
1.24649
1.24655
1.24662
1.24669
1.24676
1.24682
1.24689
1.24695
1.24701
1.24708
1.24714
1.2472
1.24726
1.24732
1.24737
1.24743
1.24749
1.24754
1.2476
1.24766
1.24771
1.24776
1.24782
1.24787
1.24793
1.24798
1.24804
1.24809
1.24815
1.24821
1.24826
1.24833
1.24839
1.24845
1.24852
1.24858
1.24865
1.24873
1.2488
1.24888
1.24897
1.24906
1.24915
1.24924
1.24934
1.24945
1.24956
1.24968
1.2498
1.24993
1.25007
1.25021
1.25036
1.25052
1.25068
1.25086
1.25104
1.25123
1.25142
1.25163
1.25184
1.25207
1.2523
1.25254
1.25279
1.25305
1.25331
1.25359
1.25388
1.25417
1.25447
1.25478
1.2551
1.25543
1.25576
1.2561
1.25645
1.25681
1.25717
1.25753
1.2579
1.25827
1.25865
1.25903
1.25941
1.25979
1.26017
1.26055
1.26093
1.26131
1.26168
1.26205
1.26241
1.26277
1.26312
1.26346
1.2638
1.26413
1.26444
1.26475
1.26505
1.26535
1.26563
1.2659
1.26616
1.26642
1.26666
1.2669
1.26713
1.26735
1.26756
1.26777
1.26797
1.26816
1.26835
1.26853
1.26871
1.26888
1.26905
1.26921
1.26937
1.26953
1.26969
1.26984
1.26999
1.27013
1.27027
1.27041
1.27055
1.27069
1.27082
1.27095
1.27108
1.27121
1.27133
1.27146
1.27158
1.2717
1.27181
1.27193
1.27204
1.27216
1.27227
1.27238
1.27249
1.2726
1.27271
1.27283
1.27294
1.27305
1.27317
1.27329
1.27341
1.27354
1.27367
1.2738
1.27395
1.27409
1.27425
1.27441
1.27458
1.27477
1.27496
1.27516
1.27538
1.27561
1.27585
1.2761
1.27638
1.27666
1.27697
1.27729
1.27764
1.278
1.27838
1.27879
1.27922
1.27967
1.28015
1.28065
1.28119
1.28174
1.28233
1.28295
1.2836
1.28429
1.285
1.28576
1.28655
1.28739
1.28826
1.28919
1.29016
1.29118
1.29226
1.2934
1.29461
1.2959
1.29727
1.29874
1.30032
1.30202
1.30387
1.30588
1.30808
1.31049
1.31313
1.31601
1.31908
1.32223
1.32521
1.3275
1.32869
1.32841
1.22181
1.22124
1.22123
1.22164
1.2223
1.22311
1.22393
1.22471
1.22542
1.22604
1.22658
1.22705
1.22746
1.22781
1.2281
1.22836
1.22858
1.22876
1.22892
1.22905
1.22916
1.22926
1.22933
1.2294
1.22944
1.22948
1.22951
1.22952
1.22953
1.22953
1.22952
1.22951
1.22949
1.22947
1.22944
1.22941
1.22937
1.22933
1.22929
1.22925
1.2292
1.22915
1.22911
1.22906
1.22901
1.22897
1.22892
1.22888
1.22884
1.2288
1.22877
1.22874
1.22871
1.22869
1.22867
1.22866
1.22865
1.22865
1.22865
1.22867
1.22869
1.22871
1.22875
1.22879
1.22884
1.2289
1.22897
1.22905
1.22914
1.22924
1.22934
1.22946
1.22958
1.22971
1.22986
1.23001
1.23017
1.23034
1.23052
1.23071
1.23091
1.23111
1.23133
1.23155
1.23179
1.23203
1.23227
1.23253
1.23279
1.23306
1.23334
1.23362
1.23391
1.2342
1.23449
1.23479
1.23509
1.2354
1.2357
1.23601
1.23631
1.23661
1.23692
1.23722
1.23751
1.23781
1.2381
1.23839
1.23867
1.23894
1.23921
1.23947
1.23972
1.23997
1.2402
1.24043
1.24064
1.24085
1.24105
1.24124
1.24142
1.24159
1.24175
1.2419
1.24204
1.24218
1.2423
1.24242
1.24253
1.24264
1.24274
1.24284
1.24293
1.24301
1.2431
1.24317
1.24325
1.24332
1.24339
1.24346
1.24352
1.24359
1.24365
1.24371
1.24377
1.24383
1.24388
1.24394
1.244
1.24406
1.24411
1.24417
1.24423
1.24429
1.24435
1.24441
1.24446
1.24452
1.24459
1.24465
1.24471
1.24477
1.24484
1.2449
1.24497
1.24503
1.2451
1.24517
1.24523
1.2453
1.24537
1.24544
1.24551
1.24558
1.24565
1.24572
1.24579
1.24587
1.24594
1.24601
1.24608
1.24615
1.24622
1.24629
1.24636
1.24643
1.2465
1.24657
1.24663
1.2467
1.24677
1.24683
1.2469
1.24696
1.24702
1.24709
1.24715
1.24721
1.24727
1.24733
1.24738
1.24744
1.2475
1.24755
1.24761
1.24766
1.24772
1.24777
1.24783
1.24788
1.24794
1.24799
1.24804
1.2481
1.24816
1.24821
1.24827
1.24833
1.24839
1.24846
1.24852
1.24859
1.24866
1.24873
1.24881
1.24889
1.24897
1.24906
1.24915
1.24925
1.24935
1.24945
1.24956
1.24968
1.2498
1.24993
1.25007
1.25021
1.25036
1.25052
1.25068
1.25086
1.25104
1.25123
1.25142
1.25163
1.25184
1.25207
1.2523
1.25254
1.25279
1.25305
1.25332
1.2536
1.25388
1.25418
1.25448
1.25479
1.25511
1.25544
1.25578
1.25612
1.25647
1.25683
1.25719
1.25755
1.25793
1.2583
1.25868
1.25906
1.25944
1.25983
1.26021
1.26059
1.26097
1.26135
1.26173
1.2621
1.26246
1.26282
1.26317
1.26351
1.26385
1.26418
1.26449
1.2648
1.2651
1.26539
1.26567
1.26594
1.2662
1.26646
1.2667
1.26693
1.26716
1.26738
1.26759
1.26779
1.26799
1.26818
1.26837
1.26855
1.26872
1.2689
1.26906
1.26923
1.26938
1.26954
1.26969
1.26984
1.26999
1.27014
1.27028
1.27042
1.27056
1.27069
1.27083
1.27096
1.27109
1.27121
1.27134
1.27146
1.27158
1.2717
1.27182
1.27193
1.27205
1.27216
1.27227
1.27238
1.27249
1.2726
1.27271
1.27282
1.27293
1.27304
1.27316
1.27328
1.2734
1.27352
1.27365
1.27378
1.27392
1.27407
1.27422
1.27439
1.27456
1.27474
1.27493
1.27513
1.27534
1.27557
1.27581
1.27606
1.27633
1.27662
1.27692
1.27725
1.27759
1.27795
1.27833
1.27874
1.27916
1.27961
1.28009
1.28059
1.28112
1.28168
1.28226
1.28288
1.28353
1.28421
1.28492
1.28567
1.28646
1.28729
1.28816
1.28907
1.29003
1.29104
1.2921
1.29322
1.2944
1.29566
1.29699
1.29841
1.29992
1.30154
1.30328
1.30516
1.30717
1.30934
1.31165
1.31408
1.31654
1.3189
1.32095
1.32242
1.323
1.32276
1.22328
1.22279
1.22269
1.22287
1.22328
1.22382
1.22441
1.22501
1.22558
1.22611
1.22658
1.227
1.22738
1.2277
1.22799
1.22823
1.22845
1.22863
1.22879
1.22893
1.22904
1.22914
1.22922
1.22928
1.22934
1.22938
1.22941
1.22943
1.22944
1.22944
1.22944
1.22943
1.22941
1.22939
1.22937
1.22934
1.2293
1.22927
1.22923
1.22919
1.22914
1.2291
1.22905
1.22901
1.22896
1.22892
1.22888
1.22884
1.22879
1.22876
1.22872
1.22869
1.22867
1.22864
1.22863
1.22862
1.22861
1.22861
1.22861
1.22863
1.22865
1.22868
1.22871
1.22876
1.22881
1.22887
1.22894
1.22902
1.22911
1.22921
1.22931
1.22943
1.22955
1.22969
1.22983
1.22999
1.23015
1.23032
1.2305
1.23069
1.23089
1.2311
1.23132
1.23154
1.23178
1.23202
1.23227
1.23253
1.23279
1.23306
1.23334
1.23363
1.23391
1.23421
1.23451
1.23481
1.23511
1.23542
1.23572
1.23603
1.23634
1.23664
1.23695
1.23725
1.23755
1.23785
1.23814
1.23843
1.23871
1.23899
1.23925
1.23952
1.23977
1.24001
1.24025
1.24048
1.24069
1.2409
1.2411
1.24128
1.24146
1.24163
1.24179
1.24194
1.24208
1.24221
1.24234
1.24245
1.24256
1.24267
1.24277
1.24286
1.24295
1.24303
1.24311
1.24319
1.24326
1.24334
1.2434
1.24347
1.24353
1.2436
1.24366
1.24372
1.24378
1.24383
1.24389
1.24395
1.24401
1.24406
1.24412
1.24418
1.24424
1.2443
1.24435
1.24441
1.24447
1.24453
1.24459
1.24466
1.24472
1.24478
1.24485
1.24491
1.24498
1.24504
1.24511
1.24518
1.24525
1.24531
1.24538
1.24545
1.24552
1.24559
1.24567
1.24574
1.24581
1.24588
1.24595
1.24602
1.24609
1.24616
1.24623
1.2463
1.24637
1.24644
1.24651
1.24658
1.24665
1.24672
1.24678
1.24685
1.24691
1.24698
1.24704
1.2471
1.24716
1.24722
1.24728
1.24734
1.2474
1.24745
1.24751
1.24757
1.24762
1.24768
1.24773
1.24778
1.24784
1.24789
1.24795
1.248
1.24805
1.24811
1.24816
1.24822
1.24828
1.24834
1.2484
1.24846
1.24853
1.24859
1.24866
1.24874
1.24881
1.24889
1.24897
1.24906
1.24915
1.24925
1.24935
1.24945
1.24957
1.24968
1.2498
1.24993
1.25007
1.25021
1.25036
1.25052
1.25068
1.25086
1.25104
1.25122
1.25142
1.25163
1.25184
1.25207
1.2523
1.25254
1.25279
1.25305
1.25332
1.2536
1.25388
1.25418
1.25448
1.2548
1.25512
1.25545
1.25579
1.25613
1.25648
1.25684
1.2572
1.25757
1.25795
1.25833
1.25871
1.25909
1.25948
1.25986
1.26025
1.26063
1.26102
1.2614
1.26177
1.26215
1.26251
1.26287
1.26323
1.26357
1.26391
1.26423
1.26455
1.26486
1.26516
1.26545
1.26573
1.266
1.26625
1.2665
1.26674
1.26698
1.2672
1.26742
1.26762
1.26783
1.26802
1.26821
1.26839
1.26857
1.26874
1.26891
1.26908
1.26924
1.2694
1.26955
1.26971
1.26986
1.27
1.27015
1.27029
1.27043
1.27057
1.2707
1.27083
1.27096
1.27109
1.27122
1.27134
1.27147
1.27159
1.27171
1.27182
1.27194
1.27205
1.27216
1.27227
1.27238
1.27249
1.2726
1.2727
1.27281
1.27292
1.27303
1.27315
1.27326
1.27338
1.2735
1.27363
1.27376
1.2739
1.27404
1.27419
1.27435
1.27452
1.2747
1.27488
1.27508
1.27529
1.27552
1.27576
1.27601
1.27628
1.27656
1.27686
1.27718
1.27752
1.27788
1.27826
1.27866
1.27909
1.27954
1.28001
1.28051
1.28103
1.28159
1.28217
1.28278
1.28342
1.2841
1.28481
1.28555
1.28633
1.28715
1.288
1.2889
1.28985
1.29084
1.29188
1.29297
1.29412
1.29534
1.29662
1.29798
1.29942
1.30095
1.30257
1.30429
1.30611
1.30803
1.31002
1.31203
1.31398
1.31576
1.31719
1.31814
1.31846
1.31813
1.22436
1.22396
1.22381
1.22388
1.22412
1.22448
1.22491
1.22537
1.22582
1.22625
1.22666
1.22702
1.22736
1.22766
1.22792
1.22815
1.22836
1.22854
1.22869
1.22883
1.22894
1.22904
1.22912
1.22919
1.22925
1.22929
1.22932
1.22935
1.22936
1.22937
1.22937
1.22936
1.22935
1.22933
1.2293
1.22928
1.22924
1.22921
1.22917
1.22913
1.22909
1.22905
1.22901
1.22896
1.22892
1.22887
1.22883
1.22879
1.22875
1.22872
1.22868
1.22865
1.22863
1.2286
1.22859
1.22858
1.22857
1.22857
1.22858
1.22859
1.22861
1.22864
1.22868
1.22872
1.22877
1.22884
1.22891
1.22899
1.22908
1.22917
1.22928
1.2294
1.22953
1.22966
1.22981
1.22996
1.23012
1.2303
1.23048
1.23067
1.23087
1.23108
1.2313
1.23152
1.23176
1.232
1.23226
1.23252
1.23278
1.23306
1.23334
1.23362
1.23392
1.23421
1.23451
1.23482
1.23512
1.23543
1.23574
1.23605
1.23636
1.23667
1.23698
1.23728
1.23759
1.23789
1.23818
1.23847
1.23876
1.23903
1.2393
1.23957
1.23982
1.24007
1.24031
1.24053
1.24075
1.24096
1.24115
1.24134
1.24151
1.24168
1.24184
1.24198
1.24212
1.24225
1.24238
1.24249
1.2426
1.2427
1.2428
1.24289
1.24298
1.24306
1.24314
1.24321
1.24328
1.24335
1.24342
1.24349
1.24355
1.24361
1.24367
1.24373
1.24379
1.24385
1.2439
1.24396
1.24402
1.24408
1.24413
1.24419
1.24425
1.24431
1.24437
1.24443
1.24448
1.24455
1.24461
1.24467
1.24473
1.2448
1.24486
1.24492
1.24499
1.24506
1.24512
1.24519
1.24526
1.24533
1.2454
1.24547
1.24554
1.24561
1.24568
1.24575
1.24582
1.2459
1.24597
1.24604
1.24611
1.24618
1.24625
1.24632
1.24639
1.24646
1.24653
1.2466
1.24667
1.24673
1.2468
1.24686
1.24693
1.24699
1.24706
1.24712
1.24718
1.24724
1.2473
1.24736
1.24741
1.24747
1.24753
1.24758
1.24764
1.24769
1.24774
1.2478
1.24785
1.2479
1.24796
1.24801
1.24806
1.24812
1.24817
1.24823
1.24829
1.24835
1.24841
1.24847
1.24853
1.2486
1.24867
1.24874
1.24882
1.2489
1.24898
1.24906
1.24915
1.24925
1.24935
1.24945
1.24956
1.24968
1.2498
1.24993
1.25007
1.25021
1.25036
1.25051
1.25068
1.25085
1.25103
1.25122
1.25141
1.25162
1.25183
1.25206
1.25229
1.25253
1.25278
1.25304
1.25331
1.25359
1.25388
1.25417
1.25448
1.2548
1.25512
1.25545
1.25579
1.25613
1.25649
1.25685
1.25722
1.25759
1.25796
1.25835
1.25873
1.25912
1.25951
1.2599
1.26029
1.26067
1.26106
1.26144
1.26182
1.2622
1.26257
1.26293
1.26328
1.26363
1.26397
1.2643
1.26462
1.26492
1.26522
1.26551
1.26579
1.26605
1.26631
1.26656
1.26679
1.26702
1.26724
1.26746
1.26766
1.26786
1.26805
1.26824
1.26842
1.2686
1.26877
1.26894
1.2691
1.26926
1.26942
1.26957
1.26972
1.26987
1.27001
1.27016
1.2703
1.27044
1.27058
1.27071
1.27084
1.27098
1.2711
1.27123
1.27135
1.27148
1.2716
1.27171
1.27183
1.27194
1.27205
1.27217
1.27227
1.27238
1.27249
1.27259
1.2727
1.27281
1.27292
1.27302
1.27313
1.27325
1.27336
1.27348
1.27361
1.27374
1.27387
1.27401
1.27416
1.27431
1.27448
1.27465
1.27484
1.27503
1.27524
1.27546
1.2757
1.27595
1.27621
1.27649
1.27679
1.27711
1.27744
1.2778
1.27817
1.27857
1.27899
1.27944
1.27991
1.2804
1.28092
1.28147
1.28205
1.28265
1.28329
1.28396
1.28466
1.28539
1.28616
1.28696
1.28781
1.28869
1.28961
1.29058
1.29159
1.29266
1.29377
1.29494
1.29617
1.29746
1.29882
1.30025
1.30174
1.30331
1.30494
1.30662
1.30832
1.30997
1.31152
1.31286
1.31389
1.31452
1.31468
1.31432
1.22519
1.22486
1.2247
1.2247
1.22484
1.22508
1.22539
1.22573
1.22609
1.22644
1.22678
1.22709
1.22739
1.22765
1.22789
1.22811
1.2283
1.22847
1.22862
1.22875
1.22886
1.22896
1.22904
1.22911
1.22917
1.22921
1.22925
1.22927
1.22929
1.2293
1.2293
1.22929
1.22928
1.22927
1.22924
1.22922
1.22919
1.22916
1.22912
1.22908
1.22904
1.229
1.22896
1.22891
1.22887
1.22883
1.22879
1.22875
1.22871
1.22867
1.22864
1.22861
1.22858
1.22856
1.22855
1.22853
1.22853
1.22853
1.22854
1.22855
1.22857
1.2286
1.22864
1.22868
1.22874
1.2288
1.22887
1.22895
1.22904
1.22914
1.22925
1.22937
1.22949
1.22963
1.22978
1.22993
1.2301
1.23027
1.23045
1.23065
1.23085
1.23106
1.23128
1.23151
1.23174
1.23199
1.23224
1.2325
1.23277
1.23305
1.23333
1.23362
1.23392
1.23422
1.23452
1.23483
1.23514
1.23545
1.23576
1.23608
1.23639
1.2367
1.23701
1.23732
1.23763
1.23793
1.23823
1.23852
1.23881
1.23909
1.23936
1.23963
1.23988
1.24013
1.24037
1.2406
1.24081
1.24102
1.24121
1.2414
1.24157
1.24174
1.24189
1.24204
1.24217
1.2423
1.24242
1.24253
1.24264
1.24274
1.24283
1.24292
1.24301
1.24309
1.24317
1.24324
1.24331
1.24338
1.24344
1.24351
1.24357
1.24363
1.24369
1.24375
1.24381
1.24386
1.24392
1.24398
1.24403
1.24409
1.24415
1.2442
1.24426
1.24432
1.24438
1.24444
1.2445
1.24456
1.24462
1.24468
1.24475
1.24481
1.24487
1.24494
1.24501
1.24507
1.24514
1.24521
1.24528
1.24535
1.24542
1.24549
1.24556
1.24563
1.2457
1.24577
1.24584