# vtk DataFile Version 2.0
LBE mesh
ASCII
DATASET STRUCTURED_POINTS
DIMENSIONS 400 100 1
ASPECT_RATIO 1 1 1
ORIGIN 0 0 0
POINT_DATA 40000
SCALARS rho double 1
LOOKUP_TABLE default
1.01829
1.06824
1.08332
1.0874
1.08962
1.09128
1.09244
1.0932
1.09371
1.09409
1.09437
1.09458
1.09474
1.09486
1.09495
1.09501
1.09505
1.09507
1.09508
1.09507
1.09505
1.09502
1.09499
1.09494
1.09488
1.09482
1.09475
1.09467
1.09459
1.0945
1.0944
1.0943
1.0942
1.09408
1.09397
1.09384
1.09372
1.09358
1.09345
1.09331
1.09317
1.09302
1.09287
1.09272
1.09257
1.09241
1.09225
1.0921
1.09194
1.09179
1.09163
1.09148
1.09133
1.09119
1.09104
1.09091
1.09077
1.09064
1.09052
1.09041
1.0903
1.0902
1.0901
1.09002
1.08994
1.08987
1.08981
1.08976
1.08972
1.08969
1.08967
1.08966
1.08966
1.08966
1.08968
1.0897
1.08974
1.08978
1.08983
1.08989
1.08995
1.09003
1.09011
1.0902
1.09029
1.09039
1.0905
1.09061
1.09072
1.09084
1.09096
1.09109
1.09122
1.09135
1.09148
1.09161
1.09175
1.09188
1.09201
1.09214
1.09227
1.0924
1.09253
1.09265
1.09277
1.09289
1.093
1.09311
1.09321
1.0933
1.0934
1.09348
1.09356
1.09363
1.09369
1.09374
1.09379
1.09383
1.09386
1.09388
1.0939
1.0939
1.0939
1.09389
1.09388
1.09386
1.09383
1.0938
1.09376
1.09371
1.09366
1.09361
1.09355
1.0935
1.09343
1.09337
1.0933
1.09323
1.09316
1.09309
1.09302
1.09295
1.09288
1.09281
1.09275
1.09268
1.09261
1.09255
1.09249
1.09243
1.09237
1.09232
1.09227
1.09222
1.09217
1.09213
1.0921
1.09206
1.09203
1.09201
1.09199
1.09197
1.09196
1.09195
1.09195
1.09195
1.09195
1.09196
1.09197
1.09198
1.092
1.09202
1.09205
1.09207
1.0921
1.09213
1.09217
1.0922
1.09224
1.09228
1.09231
1.09235
1.09239
1.09243
1.09247
1.09251
1.09255
1.09258
1.09262
1.09266
1.09269
1.09273
1.09276
1.09279
1.09282
1.09285
1.09288
1.09291
1.09293
1.09296
1.09298
1.093
1.09302
1.09304
1.09306
1.09308
1.09309
1.09311
1.09312
1.09313
1.09314
1.09315
1.09316
1.09317
1.09317
1.09317
1.09317
1.09317
1.09316
1.09316
1.09315
1.09313
1.09312
1.0931
1.09308
1.09306
1.09304
1.09301
1.09298
1.09295
1.09291
1.09287
1.09283
1.09279
1.09275
1.09271
1.09266
1.09262
1.09257
1.09252
1.09248
1.09243
1.09239
1.09235
1.09231
1.09228
1.09224
1.09222
1.09219
1.09218
1.09217
1.09216
1.09216
1.09217
1.09219
1.09221
1.09225
1.09229
1.09234
1.0924
1.09247
1.09255
1.09264
1.09274
1.09285
1.09297
1.0931
1.09323
1.09338
1.09353
1.09368
1.09384
1.09401
1.09418
1.09436
1.09453
1.09471
1.09488
1.09506
1.09523
1.0954
1.09557
1.09573
1.09589
1.09604
1.09619
1.09633
1.09646
1.09658
1.0967
1.0968
1.0969
1.097
1.09708
1.09716
1.09723
1.09729
1.09735
1.0974
1.09744
1.09748
1.09752
1.09755
1.09758
1.0976
1.09762
1.09764
1.09765
1.09766
1.09767
1.09768
1.09768
1.09768
1.09768
1.09768
1.09767
1.09766
1.09764
1.09763
1.0976
1.09758
1.09755
1.09752
1.09748
1.09744
1.0974
1.09735
1.09729
1.09724
1.09718
1.09711
1.09705
1.09698
1.09691
1.09684
1.09676
1.09669
1.09662
1.09655
1.09648
1.09641
1.09635
1.09629
1.09624
1.09619
1.09615
1.09612
1.0961
1.09609
1.09609
1.0961
1.09612
1.09616
1.09621
1.09628
1.09637
1.09647
1.0966
1.09675
1.09692
1.09711
1.09733
1.09757
1.09784
1.09814
1.09847
1.09883
1.09923
1.09966
1.10012
1.10062
1.10116
1.10174
1.10237
1.10303
1.10374
1.10451
1.10532
1.10618
1.1071
1.10808
1.10913
1.11024
1.11144
1.11271
1.11409
1.11557
1.11718
1.11893
1.12087
1.12303
1.12547
1.12828
1.13159
1.13561
1.14078
1.1479
1.15787
1.17351
1.2071
1.05343
1.06547
1.07598
1.08347
1.08745
1.08965
1.09106
1.09206
1.09279
1.09333
1.09373
1.09403
1.09426
1.09444
1.09457
1.09468
1.09475
1.0948
1.09483
1.09485
1.09484
1.09483
1.09481
1.09477
1.09473
1.09468
1.09461
1.09455
1.09447
1.09439
1.0943
1.0942
1.0941
1.09399
1.09388
1.09376
1.09364
1.09351
1.09338
1.09324
1.0931
1.09296
1.09281
1.09266
1.09251
1.09236
1.09221
1.09205
1.0919
1.09175
1.0916
1.09145
1.0913
1.09116
1.09102
1.09088
1.09075
1.09062
1.0905
1.09039
1.09029
1.09019
1.0901
1.09001
1.08994
1.08987
1.08981
1.08977
1.08973
1.0897
1.08968
1.08967
1.08967
1.08968
1.08969
1.08972
1.08975
1.0898
1.08985
1.08991
1.08998
1.09005
1.09013
1.09022
1.09032
1.09042
1.09052
1.09063
1.09075
1.09087
1.09099
1.09111
1.09124
1.09137
1.0915
1.09163
1.09177
1.0919
1.09203
1.09216
1.09229
1.09242
1.09254
1.09266
1.09278
1.0929
1.09301
1.09311
1.09321
1.09331
1.0934
1.09348
1.09355
1.09362
1.09368
1.09373
1.09378
1.09382
1.09384
1.09387
1.09388
1.09388
1.09388
1.09387
1.09386
1.09384
1.09381
1.09377
1.09373
1.09369
1.09364
1.09359
1.09353
1.09347
1.09341
1.09335
1.09328
1.09321
1.09315
1.09308
1.09301
1.09294
1.09287
1.0928
1.09273
1.09267
1.0926
1.09254
1.09248
1.09242
1.09236
1.09231
1.09226
1.09221
1.09217
1.09213
1.09209
1.09206
1.09203
1.09201
1.09199
1.09197
1.09196
1.09195
1.09195
1.09195
1.09196
1.09196
1.09198
1.09199
1.09201
1.09203
1.09206
1.09208
1.09211
1.09214
1.09218
1.09221
1.09225
1.09228
1.09232
1.09236
1.0924
1.09244
1.09248
1.09252
1.09255
1.09259
1.09263
1.09266
1.0927
1.09273
1.09277
1.0928
1.09283
1.09286
1.09289
1.09291
1.09294
1.09296
1.09299
1.09301
1.09303
1.09305
1.09307
1.09308
1.0931
1.09311
1.09313
1.09314
1.09315
1.09316
1.09317
1.09317
1.09317
1.09318
1.09318
1.09317
1.09317
1.09316
1.09315
1.09314
1.09313
1.09311
1.09309
1.09307
1.09304
1.09302
1.09299
1.09295
1.09292
1.09288
1.09284
1.0928
1.09276
1.09272
1.09267
1.09263
1.09258
1.09254
1.09249
1.09245
1.09241
1.09237
1.09233
1.0923
1.09226
1.09224
1.09222
1.0922
1.09219
1.09219
1.09219
1.0922
1.09222
1.09224
1.09228
1.09232
1.09237
1.09244
1.09251
1.09259
1.09268
1.09278
1.09289
1.09301
1.09314
1.09327
1.09341
1.09356
1.09372
1.09388
1.09405
1.09422
1.09439
1.09456
1.09474
1.09491
1.09509
1.09526
1.09543
1.09559
1.09575
1.09591
1.09606
1.0962
1.09634
1.09647
1.09659
1.0967
1.09681
1.09691
1.097
1.09708
1.09716
1.09723
1.09729
1.09735
1.0974
1.09744
1.09748
1.09752
1.09755
1.09758
1.0976
1.09762
1.09764
1.09765
1.09766
1.09767
1.09767
1.09768
1.09768
1.09768
1.09767
1.09766
1.09765
1.09764
1.09762
1.0976
1.09757
1.09754
1.09751
1.09747
1.09743
1.09738
1.09733
1.09728
1.09722
1.09716
1.0971
1.09703
1.09696
1.09689
1.09682
1.09675
1.09668
1.09661
1.09654
1.09647
1.0964
1.09634
1.09629
1.09623
1.09619
1.09615
1.09612
1.0961
1.09609
1.09609
1.0961
1.09613
1.09617
1.09623
1.0963
1.09639
1.0965
1.09663
1.09678
1.09695
1.09715
1.09737
1.09762
1.09789
1.0982
1.09853
1.0989
1.0993
1.09973
1.1002
1.10071
1.10125
1.10184
1.10247
1.10314
1.10386
1.10463
1.10545
1.10632
1.10725
1.10824
1.1093
1.11043
1.11164
1.11293
1.11433
1.11584
1.11748
1.11929
1.12128
1.12352
1.12607
1.12902
1.13254
1.13687
1.14231
1.14944
1.15997
1.17806
1.20596
1.0711
1.07186
1.07792
1.08286
1.08609
1.08839
1.09003
1.09119
1.09204
1.09268
1.09316
1.09354
1.09383
1.09405
1.09423
1.09437
1.09447
1.09455
1.0946
1.09463
1.09465
1.09465
1.09464
1.09462
1.09458
1.09454
1.09449
1.09443
1.09436
1.09428
1.0942
1.09411
1.09401
1.09391
1.0938
1.09368
1.09356
1.09344
1.09331
1.09318
1.09304
1.0929
1.09276
1.09261
1.09246
1.09231
1.09216
1.09201
1.09186
1.09171
1.09156
1.09141
1.09127
1.09113
1.09099
1.09086
1.09073
1.0906
1.09049
1.09038
1.09027
1.09018
1.09009
1.09001
1.08993
1.08987
1.08981
1.08977
1.08973
1.0897
1.08969
1.08968
1.08968
1.08969
1.08971
1.08973
1.08977
1.08981
1.08987
1.08993
1.09
1.09007
1.09015
1.09024
1.09034
1.09044
1.09054
1.09066
1.09077
1.09089
1.09101
1.09114
1.09126
1.09139
1.09153
1.09166
1.09179
1.09192
1.09205
1.09218
1.09231
1.09244
1.09256
1.09268
1.0928
1.09291
1.09302
1.09313
1.09322
1.09332
1.0934
1.09349
1.09356
1.09362
1.09368
1.09374
1.09378
1.09381
1.09384
1.09386
1.09387
1.09388
1.09387
1.09386
1.09385
1.09382
1.09379
1.09376
1.09372
1.09367
1.09363
1.09357
1.09352
1.09346
1.0934
1.09333
1.09327
1.0932
1.09313
1.09307
1.093
1.09293
1.09286
1.09279
1.09273
1.09266
1.0926
1.09254
1.09248
1.09242
1.09237
1.09231
1.09226
1.09222
1.09218
1.09214
1.0921
1.09207
1.09205
1.09202
1.092
1.09199
1.09198
1.09197
1.09197
1.09197
1.09197
1.09198
1.09199
1.09201
1.09203
1.09205
1.09208
1.0921
1.09213
1.09216
1.0922
1.09223
1.09227
1.09231
1.09234
1.09238
1.09242
1.09246
1.0925
1.09254
1.09257
1.09261
1.09265
1.09268
1.09272
1.09275
1.09278
1.09282
1.09285
1.09288
1.0929
1.09293
1.09296
1.09298
1.093
1.09303
1.09305
1.09307
1.09308
1.0931
1.09312
1.09313
1.09315
1.09316
1.09317
1.09318
1.09318
1.09319
1.09319
1.09319
1.09319
1.09319
1.09319
1.09318
1.09317
1.09316
1.09314
1.09313
1.09311
1.09309
1.09306
1.09303
1.093
1.09297
1.09294
1.0929
1.09286
1.09282
1.09278
1.09274
1.09269
1.09265
1.0926
1.09256
1.09251
1.09247
1.09243
1.09239
1.09235
1.09232
1.09229
1.09226
1.09224
1.09223
1.09222
1.09221
1.09222
1.09223
1.09225
1.09228
1.09231
1.09236
1.09241
1.09247
1.09255
1.09263
1.09272
1.09282
1.09293
1.09305
1.09318
1.09331
1.09346
1.0936
1.09376
1.09392
1.09409
1.09426
1.09443
1.0946
1.09478
1.09495
1.09512
1.09529
1.09546
1.09562
1.09578
1.09594
1.09609
1.09623
1.09636
1.09649
1.09661
1.09672
1.09683
1.09692
1.09701
1.09709
1.09717
1.09724
1.0973
1.09735
1.0974
1.09745
1.09749
1.09752
1.09755
1.09758
1.0976
1.09762
1.09764
1.09765
1.09766
1.09767
1.09768
1.09768
1.09768
1.09768
1.09767
1.09766
1.09765
1.09763
1.09762
1.09759
1.09757
1.09754
1.0975
1.09746
1.09742
1.09737
1.09732
1.09727
1.09721
1.09715
1.09709
1.09702
1.09695
1.09688
1.09681
1.09674
1.09667
1.0966
1.09653
1.09646
1.09639
1.09633
1.09628
1.09623
1.09618
1.09615
1.09612
1.0961
1.09609
1.09609
1.09611
1.09613
1.09618
1.09623
1.09631
1.0964
1.09651
1.09664
1.09679
1.09697
1.09717
1.09739
1.09764
1.09792
1.09822
1.09856
1.09893
1.09933
1.09977
1.10024
1.10075
1.1013
1.10189
1.10252
1.1032
1.10393
1.1047
1.10552
1.1064
1.10733
1.10833
1.1094
1.11053
1.11175
1.11305
1.11446
1.11598
1.11763
1.11944
1.12145
1.1237
1.12626
1.12921
1.13268
1.13687
1.1421
1.14885
1.15737
1.16661
1.17478
1.07947
1.07882
1.08093
1.08348
1.08601
1.08801
1.0895
1.09063
1.0915
1.09218
1.09271
1.09313
1.09346
1.09372
1.09393
1.09409
1.09422
1.09432
1.09439
1.09444
1.09447
1.09448
1.09448
1.09447
1.09445
1.09441
1.09437
1.09431
1.09425
1.09418
1.0941
1.09402
1.09392
1.09382
1.09372
1.09361
1.09349
1.09337
1.09324
1.09312
1.09298
1.09284
1.0927
1.09256
1.09241
1.09227
1.09212
1.09197
1.09182
1.09167
1.09153
1.09138
1.09124
1.0911
1.09096
1.09083
1.09071
1.09058
1.09047
1.09036
1.09026
1.09016
1.09008
1.09
1.08993
1.08986
1.08981
1.08977
1.08973
1.08971
1.08969
1.08968
1.08968
1.0897
1.08972
1.08974
1.08978
1.08983
1.08988
1.08994
1.09001
1.09009
1.09017
1.09026
1.09036
1.09046
1.09057
1.09068
1.09079
1.09091
1.09104
1.09116
1.09129
1.09142
1.09155
1.09168
1.09181
1.09195
1.09208
1.09221
1.09234
1.09246
1.09258
1.09271
1.09282
1.09293
1.09304
1.09315
1.09324
1.09334
1.09342
1.0935
1.09357
1.09364
1.0937
1.09375
1.09379
1.09382
1.09385
1.09387
1.09388
1.09388
1.09387
1.09386
1.09384
1.09382
1.09379
1.09375
1.09371
1.09367
1.09362
1.09357
1.09351
1.09345
1.09339
1.09333
1.09326
1.0932
1.09313
1.09306
1.09299
1.09293
1.09286
1.09279
1.09273
1.09267
1.0926
1.09254
1.09249
1.09243
1.09238
1.09233
1.09228
1.09223
1.09219
1.09216
1.09212
1.09209
1.09207
1.09205
1.09203
1.09201
1.092
1.092
1.092
1.092
1.092
1.09201
1.09203
1.09204
1.09206
1.09208
1.09211
1.09214
1.09217
1.0922
1.09223
1.09227
1.0923
1.09234
1.09238
1.09241
1.09245
1.09249
1.09253
1.09257
1.09261
1.09264
1.09268
1.09272
1.09275
1.09278
1.09282
1.09285
1.09288
1.09291
1.09293
1.09296
1.09299
1.09301
1.09303
1.09306
1.09308
1.0931
1.09312
1.09313
1.09315
1.09316
1.09318
1.09319
1.0932
1.09321
1.09321
1.09322
1.09322
1.09322
1.09322
1.09322
1.09322
1.09321
1.0932
1.09319
1.09317
1.09316
1.09314
1.09311
1.09309
1.09306
1.09303
1.093
1.09297
1.09293
1.09289
1.09285
1.09281
1.09276
1.09272
1.09268
1.09263
1.09259
1.09254
1.0925
1.09246
1.09242
1.09238
1.09235
1.09232
1.09229
1.09227
1.09226
1.09225
1.09225
1.09225
1.09226
1.09228
1.09231
1.09235
1.09239
1.09245
1.09251
1.09259
1.09267
1.09276
1.09286
1.09297
1.09309
1.09322
1.09336
1.0935
1.09365
1.09381
1.09397
1.09413
1.0943
1.09447
1.09465
1.09482
1.09499
1.09517
1.09534
1.0955
1.09566
1.09582
1.09597
1.09612
1.09626
1.09639
1.09652
1.09664
1.09675
1.09685
1.09695
1.09703
1.09711
1.09719
1.09725
1.09731
1.09737
1.09742
1.09746
1.0975
1.09753
1.09756
1.09759
1.09761
1.09763
1.09764
1.09766
1.09767
1.09768
1.09768
1.09768
1.09768
1.09768
1.09768
1.09767
1.09765
1.09764
1.09762
1.09759
1.09757
1.09754
1.0975
1.09746
1.09742
1.09737
1.09732
1.09726
1.09721
1.09714
1.09708
1.09701
1.09694
1.09687
1.0968
1.09673
1.09666
1.09659
1.09652
1.09645
1.09639
1.09633
1.09627
1.09622
1.09618
1.09614
1.09611
1.09609
1.09608
1.09609
1.0961
1.09613
1.09617
1.09623
1.09631
1.0964
1.09651
1.09664
1.09679
1.09697
1.09717
1.09739
1.09764
1.09792
1.09823
1.09857
1.09894
1.09934
1.09978
1.10025
1.10076
1.10132
1.10191
1.10254
1.10322
1.10394
1.10472
1.10554
1.10642
1.10736
1.10836
1.10942
1.11055
1.11177
1.11307
1.11446
1.11598
1.11762
1.11941
1.12139
1.12359
1.12607
1.12889
1.13216
1.13598
1.14045
1.14563
1.15133
1.15596
1.156
1.0835
1.08301
1.08369
1.08507
1.08668
1.08813
1.08937
1.09038
1.0912
1.09186
1.09239
1.09282
1.09317
1.09345
1.09368
1.09386
1.094
1.09411
1.0942
1.09426
1.09431
1.09433
1.09434
1.09434
1.09432
1.0943
1.09426
1.09421
1.09415
1.09409
1.09401
1.09393
1.09384
1.09375
1.09365
1.09354
1.09343
1.09331
1.09319
1.09306
1.09293
1.09279
1.09265
1.09251
1.09237
1.09222
1.09208
1.09193
1.09178
1.09164
1.09149
1.09135
1.09121
1.09107
1.09094
1.09081
1.09068
1.09056
1.09045
1.09034
1.09024
1.09015
1.09006
1.08999
1.08992
1.08986
1.08981
1.08976
1.08973
1.08971
1.08969
1.08968
1.08969
1.0897
1.08972
1.08975
1.08979
1.08984
1.08989
1.08995
1.09002
1.0901
1.09019
1.09028
1.09037
1.09048
1.09058
1.0907
1.09081
1.09094
1.09106
1.09119
1.09131
1.09145
1.09158
1.09171
1.09184
1.09197
1.0921
1.09224
1.09236
1.09249
1.09261
1.09273
1.09285
1.09296
1.09307
1.09317
1.09327
1.09336
1.09345
1.09353
1.0936
1.09366
1.09372
1.09377
1.09381
1.09384
1.09387
1.09388
1.09389
1.09389
1.09388
1.09387
1.09385
1.09383
1.09379
1.09376
1.09372
1.09367
1.09362
1.09357
1.09351
1.09345
1.09339
1.09333
1.09326
1.0932
1.09313
1.09307
1.093
1.09293
1.09287
1.0928
1.09274
1.09268
1.09262
1.09256
1.0925
1.09245
1.0924
1.09235
1.0923
1.09226
1.09222
1.09218
1.09215
1.09212
1.0921
1.09208
1.09206
1.09205
1.09204
1.09204
1.09204
1.09204
1.09205
1.09206
1.09207
1.09209
1.09211
1.09213
1.09215
1.09218
1.09221
1.09224
1.09228
1.09231
1.09235
1.09238
1.09242
1.09246
1.0925
1.09254
1.09257
1.09261
1.09265
1.09269
1.09272
1.09276
1.09279
1.09283
1.09286
1.09289
1.09292
1.09295
1.09298
1.09301
1.09303
1.09306
1.09308
1.0931
1.09312
1.09314
1.09316
1.09318
1.09319
1.09321
1.09322
1.09323
1.09324
1.09325
1.09326
1.09326
1.09327
1.09327
1.09327
1.09326
1.09326
1.09325
1.09324
1.09323
1.09321
1.0932
1.09318
1.09315
1.09313
1.0931
1.09307
1.09304
1.093
1.09297
1.09293
1.09289
1.09284
1.0928
1.09276
1.09271
1.09267
1.09262
1.09258
1.09253
1.09249
1.09245
1.09242
1.09238
1.09235
1.09233
1.09231
1.09229
1.09229
1.09228
1.09229
1.0923
1.09232
1.09235
1.09238
1.09243
1.09249
1.09255
1.09263
1.09271
1.0928
1.0929
1.09302
1.09314
1.09326
1.0934
1.09355
1.0937
1.09385
1.09401
1.09418
1.09435
1.09452
1.0947
1.09487
1.09504
1.09521
1.09538
1.09555
1.09571
1.09587
1.09602
1.09616
1.0963
1.09643
1.09656
1.09667
1.09678
1.09688
1.09698
1.09706
1.09714
1.09721
1.09728
1.09734
1.09739
1.09744
1.09748
1.09751
1.09755
1.09758
1.0976
1.09762
1.09764
1.09766
1.09767
1.09768
1.09769
1.09769
1.09769
1.09769
1.09769
1.09768
1.09767
1.09766
1.09765
1.09762
1.0976
1.09757
1.09754
1.09751
1.09747
1.09742
1.09737
1.09732
1.09726
1.09721
1.09714
1.09708
1.09701
1.09694
1.09687
1.0968
1.09672
1.09665
1.09658
1.09651
1.09644
1.09638
1.09632
1.09626
1.09621
1.09617
1.09613
1.0961
1.09608
1.09607
1.09608
1.09609
1.09612
1.09616
1.09622
1.09629
1.09638
1.09649
1.09663
1.09678
1.09695
1.09715
1.09737
1.09762
1.0979
1.09821
1.09855
1.09891
1.09932
1.09975
1.10023
1.10074
1.10129
1.10188
1.10251
1.10319
1.10391
1.10468
1.10551
1.10638
1.10731
1.10831
1.10936
1.11049
1.11169
1.11297
1.11435
1.11584
1.11744
1.11918
1.12109
1.12319
1.12553
1.12813
1.13106
1.13433
1.13793
1.14162
1.14492
1.14715
1.14656
1.08612
1.08568
1.08587
1.0866
1.08757
1.08858
1.08954
1.09038
1.0911
1.0917
1.0922
1.09262
1.09296
1.09324
1.09348
1.09367
1.09382
1.09394
1.09404
1.09411
1.09416
1.0942
1.09422
1.09422
1.09421
1.09419
1.09416
1.09411
1.09406
1.094
1.09393
1.09385
1.09377
1.09368
1.09358
1.09348
1.09337
1.09325
1.09313
1.09301
1.09288
1.09274
1.09261
1.09247
1.09233
1.09218
1.09204
1.0919
1.09175
1.09161
1.09146
1.09132
1.09118
1.09105
1.09092
1.09079
1.09067
1.09055
1.09044
1.09033
1.09023
1.09014
1.09005
1.08998
1.08991
1.08985
1.0898
1.08976
1.08973
1.08971
1.08969
1.08969
1.08969
1.0897
1.08973
1.08976
1.0898
1.08985
1.0899
1.08997
1.09004
1.09012
1.0902
1.09029
1.09039
1.0905
1.0906
1.09072
1.09084
1.09096
1.09108
1.09121
1.09134
1.09147
1.0916
1.09174
1.09187
1.092
1.09214
1.09227
1.0924
1.09252
1.09265
1.09277
1.09288
1.093
1.09311
1.09321
1.09331
1.0934
1.09348
1.09356
1.09363
1.0937
1.09375
1.0938
1.09384
1.09387
1.09389
1.09391
1.09391
1.09391
1.0939
1.09389
1.09387
1.09384
1.09381
1.09377
1.09373
1.09368
1.09363
1.09358
1.09352
1.09346
1.0934
1.09334
1.09327
1.09321
1.09314
1.09308
1.09301
1.09295
1.09288
1.09282
1.09276
1.0927
1.09264
1.09258
1.09253
1.09248
1.09243
1.09238
1.09234
1.09229
1.09226
1.09222
1.09219
1.09217
1.09214
1.09213
1.09211
1.0921
1.09209
1.09209
1.09209
1.09209
1.0921
1.09211
1.09212
1.09214
1.09216
1.09219
1.09221
1.09224
1.09227
1.0923
1.09233
1.09237
1.09241
1.09244
1.09248
1.09252
1.09256
1.09259
1.09263
1.09267
1.09271
1.09274
1.09278
1.09282
1.09285
1.09288
1.09292
1.09295
1.09298
1.09301
1.09303
1.09306
1.09309
1.09311
1.09313
1.09316
1.09318
1.0932
1.09322
1.09323
1.09325
1.09326
1.09328
1.09329
1.0933
1.09331
1.09331
1.09332
1.09332
1.09332
1.09332
1.09332
1.09331
1.09331
1.0933
1.09328
1.09327
1.09325
1.09323
1.09321
1.09318
1.09315
1.09312
1.09309
1.09305
1.09301
1.09297
1.09293
1.09289
1.09285
1.0928
1.09276
1.09271
1.09267
1.09262
1.09258
1.09254
1.0925
1.09246
1.09243
1.0924
1.09237
1.09235
1.09233
1.09233
1.09232
1.09233
1.09234
1.09236
1.09239
1.09243
1.09247
1.09253
1.09259
1.09267
1.09275
1.09285
1.09295
1.09306
1.09318
1.09331
1.09345
1.09359
1.09375
1.0939
1.09407
1.09423
1.0944
1.09458
1.09475
1.09492
1.0951
1.09527
1.09544
1.0956
1.09577
1.09592
1.09607
1.09622
1.09635
1.09648
1.09661
1.09672
1.09683
1.09693
1.09702
1.0971
1.09718
1.09724
1.09731
1.09736
1.09741
1.09746
1.0975
1.09754
1.09757
1.09759
1.09762
1.09764
1.09766
1.09767
1.09768
1.09769
1.0977
1.09771
1.09771
1.09771
1.0977
1.0977
1.09769
1.09767
1.09766
1.09764
1.09761
1.09758
1.09755
1.09751
1.09747
1.09743
1.09738
1.09733
1.09727
1.09721
1.09714
1.09708
1.09701
1.09694
1.09687
1.09679
1.09672
1.09665
1.09658
1.09651
1.09644
1.09637
1.09631
1.09625
1.0962
1.09616
1.09612
1.09609
1.09607
1.09606
1.09606
1.09608
1.0961
1.09614
1.0962
1.09627
1.09636
1.09647
1.0966
1.09675
1.09692
1.09712
1.09734
1.09759
1.09786
1.09817
1.0985
1.09887
1.09927
1.0997
1.10017
1.10068
1.10123
1.10181
1.10244
1.10312
1.10384
1.1046
1.10542
1.10629
1.10721
1.10819
1.10923
1.11034
1.11152
1.11278
1.11413
1.11557
1.11711
1.11878
1.12059
1.12256
1.1247
1.12703
1.12956
1.13225
1.13499
1.13757
1.13956
1.14056
1.14033
1.08795
1.08752
1.08752
1.0879
1.08849
1.08918
1.08989
1.09055
1.09115
1.09167
1.09212
1.09251
1.09283
1.09311
1.09334
1.09353
1.09368
1.09381
1.09391
1.09399
1.09405
1.09408
1.09411
1.09412
1.09411
1.0941
1.09407
1.09403
1.09398
1.09392
1.09386
1.09379
1.0937
1.09362
1.09352
1.09342
1.09331
1.0932
1.09308
1.09296
1.09283
1.0927
1.09257
1.09243
1.09229
1.09215
1.09201
1.09187
1.09172
1.09158
1.09144
1.0913
1.09116
1.09103
1.0909
1.09077
1.09065
1.09053
1.09042
1.09032
1.09022
1.09013
1.09004
1.08997
1.0899
1.08984
1.0898
1.08976
1.08972
1.0897
1.08969
1.08969
1.08969
1.08971
1.08973
1.08976
1.0898
1.08985
1.08991
1.08997
1.09004
1.09013
1.09021
1.09031
1.0904
1.09051
1.09062
1.09074
1.09085
1.09098
1.0911
1.09123
1.09137
1.0915
1.09163
1.09177
1.0919
1.09204
1.09217
1.0923
1.09243
1.09256
1.09268
1.09281
1.09292
1.09304
1.09315
1.09325
1.09335
1.09344
1.09353
1.0936
1.09368
1.09374
1.09379
1.09384
1.09388
1.09391
1.09393
1.09394
1.09395
1.09394
1.09393
1.09392
1.09389
1.09386
1.09383
1.09379
1.09375
1.0937
1.09365
1.09359
1.09353
1.09348
1.09341
1.09335
1.09329
1.09323
1.09316
1.0931
1.09303
1.09297
1.09291
1.09285
1.09279
1.09273
1.09267
1.09262
1.09256
1.09251
1.09246
1.09242
1.09238
1.09234
1.0923
1.09227
1.09224
1.09222
1.0922
1.09218
1.09217
1.09216
1.09215
1.09215
1.09215
1.09216
1.09216
1.09218
1.09219
1.09221
1.09223
1.09225
1.09228
1.09231
1.09234
1.09237
1.0924
1.09244
1.09247
1.09251
1.09255
1.09259
1.09262
1.09266
1.0927
1.09274
1.09278
1.09281
1.09285
1.09288
1.09292
1.09295
1.09298
1.09302
1.09305
1.09307
1.0931
1.09313
1.09316
1.09318
1.0932
1.09322
1.09325
1.09327
1.09328
1.0933
1.09332
1.09333
1.09334
1.09336
1.09337
1.09337
1.09338
1.09339
1.09339
1.09339
1.09339
1.09338
1.09338
1.09337
1.09336
1.09335
1.09333
1.09331
1.09329
1.09327
1.09324
1.09321
1.09318
1.09315
1.09311
1.09307
1.09303
1.09299
1.09294
1.0929
1.09285
1.09281
1.09276
1.09272
1.09267
1.09263
1.09258
1.09254
1.0925
1.09247
1.09244
1.09241
1.09239
1.09238
1.09237
1.09237
1.09237
1.09238
1.0924
1.09243
1.09247
1.09251
1.09257
1.09263
1.09271
1.09279
1.09289
1.09299
1.09311
1.09323
1.09336
1.0935
1.09364
1.0938
1.09396
1.09412
1.09429
1.09446
1.09463
1.09481
1.09498
1.09516
1.09533
1.0955
1.09567
1.09583
1.09598
1.09613
1.09628
1.09641
1.09654
1.09666
1.09677
1.09688
1.09697
1.09706
1.09714
1.09722
1.09728
1.09734
1.0974
1.09745
1.09749
1.09753
1.09756
1.09759
1.09762
1.09764
1.09766
1.09768
1.09769
1.0977
1.09771
1.09772
1.09772
1.09772
1.09772
1.09772
1.09771
1.0977
1.09769
1.09767
1.09765
1.09763
1.0976
1.09756
1.09753
1.09748
1.09744
1.09739
1.09733
1.09728
1.09722
1.09715
1.09708
1.09701
1.09694
1.09687
1.0968
1.09672
1.09665
1.09657
1.0965
1.09643
1.09637
1.09631
1.09625
1.0962
1.09615
1.09611
1.09608
1.09606
1.09605
1.09605
1.09606
1.09608
1.09612
1.09617
1.09624
1.09633
1.09644
1.09656
1.09671
1.09688
1.09707
1.09729
1.09753
1.0978
1.0981
1.09843
1.09879
1.09919
1.09962
1.10008
1.10058
1.10113
1.10171
1.10233
1.103
1.10371
1.10447
1.10527
1.10613
1.10704
1.108
1.10903
1.11011
1.11127
1.11249
1.11379
1.11517
1.11665
1.11823
1.11991
1.12172
1.12364
1.12569
1.12782
1.12998
1.13204
1.13382
1.13508
1.13559
1.13538
1.08926
1.08887
1.08879
1.08897
1.08933
1.0898
1.09031
1.09082
1.0913
1.09174
1.09213
1.09247
1.09277
1.09303
1.09325
1.09343
1.09358
1.09371
1.09381
1.09389
1.09395
1.09399
1.09402
1.09403
1.09403
1.09401
1.09399
1.09396
1.09391
1.09386
1.09379
1.09372
1.09364
1.09356
1.09347
1.09337
1.09326
1.09315
1.09304
1.09292
1.09279
1.09266
1.09253
1.0924
1.09226
1.09212
1.09198
1.09184
1.0917
1.09156
1.09142
1.09128
1.09114
1.09101
1.09088
1.09076
1.09063
1.09052
1.09041
1.09031
1.09021
1.09012
1.09004
1.08996
1.0899
1.08984
1.08979
1.08975
1.08972
1.0897
1.08969
1.08969
1.08969
1.08971
1.08973
1.08977
1.08981
1.08986
1.08992
1.08998
1.09006
1.09014
1.09022
1.09032
1.09042
1.09053
1.09064
1.09075
1.09088
1.091
1.09113
1.09126
1.09139
1.09153
1.09166
1.0918
1.09193
1.09207
1.0922
1.09234
1.09247
1.0926
1.09272
1.09285
1.09297
1.09308
1.09319
1.0933
1.0934
1.09349
1.09357
1.09365
1.09372
1.09379
1.09384
1.09389
1.09392
1.09395
1.09397
1.09398
1.09399
1.09398
1.09397
1.09395
1.09393
1.0939
1.09386
1.09382
1.09377
1.09372
1.09367
1.09362
1.09356
1.0935
1.09344
1.09338
1.09331
1.09325
1.09319
1.09313
1.09306
1.093
1.09294
1.09288
1.09282
1.09277
1.09271
1.09266
1.09261
1.09256
1.09251
1.09247
1.09243
1.09239
1.09236
1.09233
1.09231
1.09228
1.09226
1.09225
1.09224
1.09223
1.09222
1.09222
1.09223
1.09223
1.09224
1.09225
1.09227
1.09229
1.09231
1.09233
1.09236
1.09239
1.09242
1.09245
1.09249
1.09252
1.09256
1.09259
1.09263
1.09267
1.09271
1.09275
1.09278
1.09282
1.09286
1.09289
1.09293
1.09297
1.093
1.09303
1.09307
1.0931
1.09313
1.09316
1.09318
1.09321
1.09324
1.09326
1.09328
1.09331
1.09333
1.09335
1.09337
1.09338
1.0934
1.09341
1.09343
1.09344
1.09345
1.09345
1.09346
1.09347
1.09347
1.09347
1.09347
1.09346
1.09346
1.09345
1.09344
1.09342
1.09341
1.09339
1.09337
1.09334
1.09331
1.09328
1.09325
1.09322
1.09318
1.09314
1.0931
1.09305
1.09301
1.09296
1.09292
1.09287
1.09282
1.09277
1.09273
1.09268
1.09264
1.0926
1.09256
1.09252
1.09249
1.09246
1.09244
1.09243
1.09242
1.09241
1.09242
1.09243
1.09245
1.09247
1.09251
1.09256
1.09261
1.09268
1.09275
1.09284
1.09294
1.09304
1.09315
1.09328
1.09341
1.09355
1.0937
1.09385
1.09401
1.09418
1.09435
1.09452
1.09469
1.09487
1.09505
1.09522
1.0954
1.09557
1.09573
1.09589
1.09605
1.0962
1.09634
1.09648
1.0966
1.09672
1.09683
1.09693
1.09703
1.09711
1.09719
1.09726
1.09733
1.09739
1.09744
1.09748
1.09752
1.09756
1.09759
1.09762
1.09764
1.09767
1.09768
1.0977
1.09771
1.09772
1.09773
1.09774
1.09774
1.09774
1.09774
1.09774
1.09773
1.09772
1.09771
1.09769
1.09767
1.09764
1.09761
1.09758
1.09754
1.0975
1.09745
1.0974
1.09735
1.09729
1.09723
1.09716
1.09709
1.09702
1.09695
1.09687
1.0968
1.09672
1.09665
1.09658
1.0965
1.09643
1.09637
1.0963
1.09624
1.09619
1.09614
1.0961
1.09607
1.09605
1.09603
1.09603
1.09604
1.09606
1.09609
1.09614
1.09621
1.09629
1.09639
1.09652
1.09666
1.09682
1.09701
1.09722
1.09746
1.09772
1.09802
1.09834
1.0987
1.09909
1.09951
1.09997
1.10046
1.101
1.10157
1.10218
1.10284
1.10354
1.10429
1.10508
1.10592
1.10681
1.10776
1.10876
1.10981
1.11093
1.11211
1.11336
1.11467
1.11607
1.11754
1.1191
1.12073
1.12244
1.1242
1.12598
1.12769
1.12924
1.13049
1.13132
1.1316
1.13132
1.09023
1.08989
1.08978
1.08985
1.09007
1.09038
1.09075
1.09113
1.09152
1.09188
1.09221
1.09251
1.09277
1.093
1.09321
1.09338
1.09352
1.09364
1.09374
1.09382
1.09388
1.09392
1.09395
1.09396
1.09396
1.09395
1.09393
1.0939
1.09385
1.0938
1.09374
1.09367
1.0936
1.09351
1.09342
1.09333
1.09322
1.09312
1.093
1.09288
1.09276
1.09263
1.0925
1.09237
1.09223
1.0921
1.09196
1.09182
1.09168
1.09154
1.0914
1.09126
1.09113
1.091
1.09087
1.09074
1.09062
1.09051
1.0904
1.0903
1.0902
1.09011
1.09003
1.08996
1.08989
1.08984
1.08979
1.08975
1.08972
1.0897
1.08969
1.08969
1.08969
1.08971
1.08974
1.08977
1.08981
1.08986
1.08992
1.08999
1.09006
1.09014
1.09023
1.09033
1.09043
1.09054
1.09065
1.09077
1.09089
1.09102
1.09115
1.09128
1.09142
1.09155
1.09169
1.09183
1.09197
1.0921
1.09224
1.09238
1.09251
1.09264
1.09277
1.09289
1.09301
1.09313
1.09324
1.09335
1.09345
1.09354
1.09363
1.09371
1.09378
1.09384
1.0939
1.09394
1.09398
1.09401
1.09402
1.09403
1.09404
1.09403
1.09402
1.09399
1.09397
1.09393
1.0939
1.09385
1.09381
1.09376
1.0937
1.09365
1.09359
1.09353
1.09347
1.09341
1.09335
1.09329
1.09322
1.09316
1.0931
1.09304
1.09298
1.09292
1.09287
1.09281
1.09276
1.09271
1.09266
1.09261
1.09257
1.09253
1.09249
1.09246
1.09243
1.0924
1.09238
1.09235
1.09234
1.09232
1.09231
1.09231
1.0923
1.0923
1.09231
1.09232
1.09233
1.09234
1.09236
1.09238
1.0924
1.09242
1.09245
1.09248
1.09251
1.09254
1.09258
1.09261
1.09265
1.09269
1.09272
1.09276
1.0928
1.09284
1.09287
1.09291
1.09295
1.09299
1.09302
1.09306
1.09309
1.09312
1.09316
1.09319
1.09322
1.09325
1.09328
1.0933
1.09333
1.09335
1.09338
1.0934
1.09342
1.09344
1.09346
1.09347
1.09349
1.0935
1.09352
1.09353
1.09354
1.09355
1.09355
1.09356
1.09356
1.09356
1.09356
1.09355
1.09354
1.09354
1.09352
1.09351
1.09349
1.09347
1.09345
1.09342
1.09339
1.09336
1.09333
1.09329
1.09325
1.09321
1.09317
1.09313
1.09308
1.09303
1.09298
1.09294
1.09289
1.09284
1.09279
1.09274
1.0927
1.09266
1.09262
1.09258
1.09255
1.09252
1.09249
1.09248
1.09247
1.09246
1.09246
1.09247
1.09249
1.09252
1.09256
1.0926
1.09266
1.09272
1.0928
1.09288
1.09298
1.09309
1.0932
1.09332
1.09346
1.0936
1.09375
1.0939
1.09407
1.09423
1.0944
1.09458
1.09476
1.09493
1.09511
1.09529
1.09546
1.09564
1.0958
1.09596
1.09612
1.09627
1.09641
1.09654
1.09667
1.09679
1.0969
1.097
1.09709
1.09717
1.09725
1.09732
1.09738
1.09743
1.09748
1.09752
1.09756
1.0976
1.09763
1.09765
1.09767
1.09769
1.09771
1.09773
1.09774
1.09775
1.09776
1.09776
1.09777
1.09777
1.09777
1.09776
1.09775
1.09774
1.09773
1.09771
1.09769
1.09767
1.09764
1.0976
1.09756
1.09752
1.09747
1.09742
1.09736
1.0973
1.09724
1.09717
1.0971
1.09703
1.09696
1.09688
1.09681
1.09673
1.09665
1.09658
1.09651
1.09643
1.09637
1.0963
1.09624
1.09619
1.09614
1.09609
1.09606
1.09603
1.09602
1.09601
1.09601
1.09603
1.09606
1.09611
1.09617
1.09625
1.09634
1.09646
1.0966
1.09675
1.09694
1.09714
1.09737
1.09763
1.09792
1.09823
1.09858
1.09896
1.09937
1.09982
1.10031
1.10083
1.10139
1.102
1.10264
1.10333
1.10406
1.10484
1.10566
1.10653
1.10745
1.10842
1.10944
1.11051
1.11165
1.11283
1.11408
1.11539
1.11675
1.11817
1.11964
1.12114
1.12265
1.12412
1.12548
1.12666
1.12756
1.12811
1.12827
1.12796
1.09098
1.0907
1.09057
1.09058
1.0907
1.09091
1.09117
1.09146
1.09176
1.09205
1.09233
1.09258
1.09282
1.09302
1.0932
1.09336
1.09349
1.0936
1.09369
1.09377
1.09383
1.09387
1.0939
1.09391
1.09391
1.0939
1.09388
1.09385
1.09381
1.09376
1.0937
1.09363
1.09356
1.09348
1.09339
1.09329
1.09319
1.09309
1.09297
1.09286
1.09274
1.09261
1.09248
1.09235
1.09222
1.09208
1.09194
1.0918
1.09167
1.09153
1.09139
1.09125
1.09112
1.09099
1.09086
1.09074
1.09062
1.09051
1.0904
1.0903
1.0902
1.09011
1.09003
1.08996
1.0899
1.08984
1.08979
1.08976
1.08973
1.08971
1.0897
1.08969
1.0897
1.08972
1.08974
1.08978
1.08982
1.08987
1.08993
1.09
1.09007
1.09016
1.09025
1.09034
1.09045
1.09055
1.09067
1.09079
1.09091
1.09104
1.09117
1.09131
1.09144
1.09158
1.09172
1.09186
1.092
1.09214
1.09228
1.09241
1.09255
1.09268
1.09281
1.09294
1.09306
1.09318
1.09329
1.0934
1.0935
1.09359
1.09368
1.09376
1.09384
1.0939
1.09395
1.094
1.09404
1.09406
1.09408
1.09409
1.09409
1.09408
1.09407
1.09404
1.09401
1.09398
1.09394
1.0939
1.09385
1.0938
1.09374
1.09369
1.09363
1.09357
1.09351
1.09345
1.09339
1.09333
1.09327
1.09321
1.09315
1.09309
1.09303
1.09297
1.09292
1.09287
1.09282
1.09277
1.09272
1.09268
1.09264
1.0926
1.09257
1.09254
1.09251
1.09248
1.09246
1.09244
1.09242
1.09241
1.0924
1.0924
1.0924
1.0924
1.09241
1.09241
1.09243
1.09244
1.09246
1.09248
1.0925
1.09253
1.09256
1.09258
1.09262
1.09265
1.09268
1.09272
1.09275
1.09279
1.09283
1.09287