# vtk DataFile Version 2.0
LBE mesh
ASCII
DATASET STRUCTURED_POINTS
DIMENSIONS 400 100 1
ASPECT_RATIO 1 1 1
ORIGIN 0 0 0
POINT_DATA 40000
SCALARS rho double 1
LOOKUP_TABLE default
1.19628
1.29499
1.32291
1.32752
1.32958
1.33163
1.33318
1.33417
1.33484
1.33533
1.33571
1.33602
1.33626
1.33645
1.33661
1.33674
1.33684
1.33693
1.33699
1.33705
1.33709
1.33711
1.33713
1.33714
1.33714
1.33713
1.33712
1.3371
1.33707
1.33704
1.337
1.33696
1.33691
1.33686
1.3368
1.33675
1.33669
1.33663
1.33656
1.3365
1.33643
1.33636
1.3363
1.33623
1.33617
1.3361
1.33604
1.33598
1.33592
1.33587
1.33582
1.33577
1.33573
1.33569
1.33566
1.33563
1.33561
1.33559
1.33559
1.33558
1.33559
1.33561
1.33563
1.33566
1.3357
1.33575
1.3358
1.33587
1.33594
1.33603
1.33612
1.33622
1.33633
1.33645
1.33658
1.33672
1.33687
1.33703
1.33719
1.33736
1.33755
1.33774
1.33793
1.33814
1.33835
1.33857
1.3388
1.33904
1.33928
1.33952
1.33977
1.34003
1.34029
1.34055
1.34082
1.34109
1.34137
1.34164
1.34191
1.34219
1.34247
1.34274
1.34301
1.34328
1.34355
1.34381
1.34407
1.34432
1.34457
1.34481
1.34505
1.34528
1.3455
1.34571
1.34591
1.3461
1.34628
1.34645
1.34662
1.34677
1.34691
1.34704
1.34715
1.34726
1.34736
1.34745
1.34753
1.3476
1.34766
1.34771
1.34775
1.34779
1.34782
1.34784
1.34786
1.34787
1.34787
1.34787
1.34787
1.34786
1.34785
1.34783
1.34781
1.34779
1.34776
1.34774
1.34771
1.34768
1.34765
1.34761
1.34758
1.34754
1.34751
1.34747
1.34743
1.34739
1.34735
1.34731
1.34727
1.34723
1.34719
1.34715
1.34711
1.34707
1.34703
1.34699
1.34695
1.34691
1.34687
1.34683
1.34679
1.34675
1.34671
1.34666
1.34662
1.34658
1.34654
1.3465
1.34646
1.34642
1.34638
1.34634
1.34631
1.34627
1.34623
1.34619
1.34615
1.34612
1.34608
1.34604
1.34601
1.34597
1.34594
1.34591
1.34587
1.34584
1.34581
1.34578
1.34576
1.34573
1.34571
1.34568
1.34566
1.34565
1.34563
1.34562
1.3456
1.34559
1.34559
1.34558
1.34558
1.34559
1.34559
1.3456
1.34562
1.34563
1.34565
1.34568
1.34571
1.34574
1.34578
1.34583
1.34588
1.34593
1.34599
1.34606
1.34613
1.34621
1.34629
1.34639
1.34648
1.34659
1.3467
1.34682
1.34695
1.34708
1.34722
1.34737
1.34753
1.34769
1.34786
1.34805
1.34824
1.34843
1.34864
1.34885
1.34908
1.34931
1.34955
1.3498
1.35005
1.35032
1.35059
1.35087
1.35116
1.35146
1.35176
1.35207
1.35239
1.35271
1.35304
1.35338
1.35372
1.35407
1.35442
1.35477
1.35513
1.35549
1.35585
1.35621
1.35657
1.35694
1.3573
1.35766
1.35801
1.35837
1.35872
1.35906
1.3594
1.35973
1.36005
1.36037
1.36068
1.36098
1.36127
1.36155
1.36182
1.36208
1.36233
1.36257
1.3628
1.36302
1.36323
1.36343
1.36362
1.36381
1.36398
1.36415
1.36431
1.36446
1.3646
1.36474
1.36488
1.365
1.36513
1.36525
1.36536
1.36547
1.36558
1.36568
1.36578
1.36588
1.36598
1.36607
1.36616
1.36625
1.36634
1.36642
1.36651
1.36659
1.36667
1.36675
1.36683
1.36691
1.36699
1.36706
1.36714
1.36721
1.36729
1.36736
1.36744
1.36752
1.3676
1.36767
1.36776
1.36784
1.36793
1.36802
1.36811
1.36821
1.36832
1.36843
1.36854
1.36867
1.3688
1.36894
1.3691
1.36926
1.36943
1.36962
1.36982
1.37003
1.37026
1.3705
1.37077
1.37104
1.37134
1.37166
1.372
1.37236
1.37274
1.37314
1.37357
1.37403
1.37451
1.37502
1.37556
1.37613
1.37673
1.37737
1.37803
1.37874
1.37948
1.38026
1.38109
1.38196
1.38288
1.38384
1.38487
1.38595
1.3871
1.38832
1.38962
1.39101
1.39249
1.3941
1.39584
1.39774
1.39982
1.40213
1.40472
1.40767
1.41109
1.41512
1.42004
1.4264
1.43525
1.44771
1.466
1.50322
1.28745
1.29514
1.30841
1.32047
1.3266
1.32955
1.33134
1.33265
1.33362
1.33434
1.33488
1.33531
1.33564
1.33592
1.33614
1.33632
1.33647
1.33659
1.33669
1.33677
1.33683
1.33688
1.33691
1.33694
1.33695
1.33696
1.33695
1.33694
1.33692
1.3369
1.33687
1.33683
1.33679
1.33675
1.3367
1.33665
1.33659
1.33653
1.33647
1.33641
1.33635
1.33629
1.33623
1.33616
1.3361
1.33604
1.33598
1.33593
1.33587
1.33582
1.33577
1.33573
1.33569
1.33565
1.33562
1.3356
1.33558
1.33557
1.33556
1.33556
1.33557
1.33559
1.33561
1.33565
1.33569
1.33574
1.3358
1.33586
1.33594
1.33603
1.33612
1.33622
1.33634
1.33646
1.33659
1.33673
1.33688
1.33704
1.3372
1.33738
1.33756
1.33775
1.33795
1.33816
1.33837
1.33859
1.33882
1.33905
1.33929
1.33954
1.33979
1.34005
1.34031
1.34057
1.34084
1.34111
1.34138
1.34166
1.34193
1.34221
1.34248
1.34275
1.34302
1.34329
1.34356
1.34382
1.34408
1.34433
1.34458
1.34482
1.34505
1.34528
1.34549
1.3457
1.3459
1.34609
1.34627
1.34644
1.3466
1.34675
1.34689
1.34702
1.34713
1.34724
1.34734
1.34743
1.3475
1.34757
1.34763
1.34768
1.34773
1.34776
1.34779
1.34781
1.34783
1.34784
1.34785
1.34785
1.34784
1.34783
1.34782
1.34781
1.34779
1.34777
1.34774
1.34772
1.34769
1.34766
1.34763
1.34759
1.34756
1.34752
1.34749
1.34745
1.34741
1.34738
1.34734
1.3473
1.34726
1.34722
1.34718
1.34714
1.3471
1.34706
1.34702
1.34698
1.34694
1.3469
1.34686
1.34682
1.34678
1.34674
1.3467
1.34666
1.34662
1.34658
1.34654
1.3465
1.34646
1.34642
1.34638
1.34634
1.3463
1.34626
1.34622
1.34618
1.34615
1.34611
1.34607
1.34604
1.346
1.34597
1.34593
1.3459
1.34587
1.34584
1.34581
1.34578
1.34575
1.34573
1.34571
1.34568
1.34566
1.34565
1.34563
1.34562
1.3456
1.3456
1.34559
1.34559
1.34559
1.34559
1.3456
1.34561
1.34562
1.34564
1.34566
1.34569
1.34572
1.34575
1.34579
1.34584
1.34589
1.34594
1.34601
1.34607
1.34615
1.34623
1.34631
1.3464
1.3465
1.34661
1.34672
1.34684
1.34697
1.3471
1.34724
1.34739
1.34755
1.34772
1.34789
1.34807
1.34826
1.34846
1.34867
1.34888
1.34911
1.34934
1.34958
1.34983
1.35009
1.35035
1.35063
1.35091
1.3512
1.35149
1.3518
1.35211
1.35243
1.35275
1.35308
1.35342
1.35376
1.3541
1.35445
1.35481
1.35516
1.35552
1.35588
1.35624
1.35661
1.35697
1.35733
1.35769
1.35804
1.35839
1.35874
1.35908
1.35942
1.35975
1.36007
1.36038
1.36069
1.36099
1.36127
1.36155
1.36182
1.36208
1.36233
1.36257
1.36279
1.36301
1.36322
1.36342
1.36361
1.36379
1.36397
1.36413
1.36429
1.36445
1.36459
1.36473
1.36486
1.36499
1.36511
1.36523
1.36535
1.36546
1.36556
1.36567
1.36577
1.36587
1.36596
1.36606
1.36615
1.36624
1.36633
1.36641
1.3665
1.36658
1.36666
1.36674
1.36682
1.3669
1.36698
1.36705
1.36713
1.36721
1.36728
1.36736
1.36743
1.36751
1.36759
1.36767
1.36775
1.36784
1.36793
1.36802
1.36811
1.36821
1.36832
1.36843
1.36855
1.36868
1.36881
1.36896
1.36911
1.36928
1.36945
1.36964
1.36984
1.37006
1.37029
1.37054
1.3708
1.37108
1.37138
1.3717
1.37204
1.37241
1.37279
1.3732
1.37364
1.3741
1.37458
1.3751
1.37564
1.37621
1.37682
1.37746
1.37813
1.37884
1.37959
1.38038
1.38121
1.38209
1.38302
1.38399
1.38503
1.38612
1.38728
1.38852
1.38983
1.39124
1.39276
1.3944
1.39617
1.39812
1.40026
1.40265
1.40534
1.40843
1.41202
1.41632
1.42164
1.42834
1.43707
1.44986
1.47222
1.50752
1.30924
1.30484
1.31319
1.32028
1.32458
1.32767
1.32992
1.3315
1.33263
1.33348
1.33414
1.33467
1.33508
1.33542
1.3357
1.33593
1.33611
1.33627
1.33639
1.3365
1.33658
1.33665
1.3367
1.33674
1.33677
1.33679
1.33679
1.33679
1.33678
1.33676
1.33674
1.33671
1.33668
1.33664
1.33659
1.33655
1.3365
1.33644
1.33639
1.33633
1.33627
1.33621
1.33616
1.3361
1.33604
1.33598
1.33592
1.33587
1.33582
1.33577
1.33572
1.33568
1.33564
1.33561
1.33558
1.33556
1.33554
1.33553
1.33553
1.33553
1.33554
1.33556
1.33559
1.33562
1.33567
1.33572
1.33578
1.33585
1.33593
1.33602
1.33611
1.33622
1.33633
1.33646
1.33659
1.33673
1.33688
1.33704
1.33721
1.33738
1.33757
1.33776
1.33796
1.33817
1.33838
1.3386
1.33883
1.33907
1.33931
1.33956
1.33981
1.34007
1.34033
1.34059
1.34086
1.34113
1.3414
1.34167
1.34195
1.34222
1.3425
1.34277
1.34304
1.34331
1.34357
1.34383
1.34409
1.34434
1.34459
1.34483
1.34506
1.34528
1.3455
1.34571
1.3459
1.34609
1.34627
1.34644
1.3466
1.34675
1.34688
1.34701
1.34713
1.34723
1.34733
1.34741
1.34749
1.34756
1.34762
1.34767
1.34771
1.34774
1.34777
1.34779
1.34781
1.34782
1.34783
1.34783
1.34782
1.34781
1.3478
1.34779
1.34777
1.34775
1.34772
1.3477
1.34767
1.34764
1.34761
1.34758
1.34754
1.34751
1.34747
1.34744
1.3474
1.34736
1.34732
1.34729
1.34725
1.34721
1.34717
1.34713
1.34709
1.34705
1.34701
1.34697
1.34693
1.34689
1.34685
1.34681
1.34677
1.34673
1.34669
1.34665
1.34661
1.34657
1.34653
1.34649
1.34645
1.34641
1.34637
1.34633
1.34629
1.34626
1.34622
1.34618
1.34614
1.34611
1.34607
1.34603
1.346
1.34596
1.34593
1.3459
1.34587
1.34584
1.34581
1.34578
1.34575
1.34573
1.3457
1.34568
1.34566
1.34565
1.34563
1.34562
1.34561
1.3456
1.34559
1.34559
1.34559
1.34559
1.3456
1.34561
1.34562
1.34564
1.34567
1.34569
1.34572
1.34576
1.3458
1.34585
1.3459
1.34595
1.34601
1.34608
1.34616
1.34624
1.34632
1.34642
1.34651
1.34662
1.34673
1.34685
1.34698
1.34712
1.34726
1.34741
1.34757
1.34774
1.34791
1.34809
1.34829
1.34849
1.34869
1.34891
1.34913
1.34937
1.34961
1.34986
1.35012
1.35038
1.35066
1.35094
1.35123
1.35153
1.35183
1.35214
1.35246
1.35278
1.35312
1.35345
1.35379
1.35414
1.35449
1.35484
1.3552
1.35556
1.35592
1.35628
1.35664
1.357
1.35736
1.35772
1.35807
1.35842
1.35877
1.35911
1.35944
1.35977
1.36009
1.3604
1.36071
1.361
1.36129
1.36157
1.36183
1.36209
1.36234
1.36257
1.3628
1.36302
1.36322
1.36342
1.36361
1.36379
1.36397
1.36413
1.36429
1.36444
1.36458
1.36472
1.36485
1.36498
1.3651
1.36522
1.36534
1.36545
1.36555
1.36566
1.36576
1.36586
1.36595
1.36605
1.36614
1.36623
1.36632
1.3664
1.36649
1.36657
1.36665
1.36673
1.36681
1.36689
1.36697
1.36705
1.36712
1.3672
1.36727
1.36735
1.36743
1.36751
1.36758
1.36766
1.36775
1.36783
1.36792
1.36801
1.36811
1.36821
1.36832
1.36843
1.36855
1.36868
1.36881
1.36896
1.36911
1.36928
1.36946
1.36965
1.36985
1.37007
1.3703
1.37055
1.37082
1.3711
1.3714
1.37173
1.37207
1.37244
1.37282
1.37324
1.37367
1.37414
1.37463
1.37514
1.37569
1.37627
1.37688
1.37752
1.3782
1.37891
1.37966
1.38046
1.38129
1.38217
1.3831
1.38409
1.38513
1.38623
1.38739
1.38864
1.38996
1.39138
1.39291
1.39455
1.39634
1.3983
1.40046
1.40287
1.40558
1.40868
1.41227
1.41652
1.42166
1.4281
1.43644
1.44692
1.45831
1.46903
1.31698
1.31571
1.31816
1.32103
1.32445
1.32723
1.32923
1.33074
1.33191
1.33283
1.33356
1.33414
1.33461
1.33499
1.33531
1.33557
1.33579
1.33597
1.33612
1.33625
1.33635
1.33644
1.33651
1.33656
1.3366
1.33662
1.33664
1.33665
1.33665
1.33664
1.33662
1.3366
1.33657
1.33653
1.33649
1.33645
1.33641
1.33636
1.3363
1.33625
1.3362
1.33614
1.33608
1.33603
1.33597
1.33591
1.33586
1.33581
1.33576
1.33571
1.33567
1.33563
1.33559
1.33556
1.33554
1.33552
1.3355
1.33549
1.33549
1.3355
1.33551
1.33553
1.33556
1.3356
1.33564
1.3357
1.33576
1.33583
1.33591
1.336
1.3361
1.33621
1.33632
1.33645
1.33658
1.33672
1.33688
1.33704
1.3372
1.33738
1.33757
1.33776
1.33796
1.33817
1.33839
1.33861
1.33884
1.33908
1.33932
1.33957
1.33982
1.34008
1.34034
1.34061
1.34087
1.34115
1.34142
1.34169
1.34197
1.34224
1.34252
1.34279
1.34306
1.34333
1.34359
1.34385
1.34411
1.34436
1.34461
1.34484
1.34507
1.3453
1.34551
1.34572
1.34592
1.34611
1.34628
1.34645
1.34661
1.34675
1.34689
1.34701
1.34713
1.34723
1.34733
1.34741
1.34748
1.34755
1.34761
1.34766
1.3477
1.34773
1.34776
1.34778
1.3478
1.34781
1.34781
1.34781
1.34781
1.3478
1.34778
1.34777
1.34775
1.34773
1.34771
1.34768
1.34765
1.34762
1.34759
1.34756
1.34753
1.34749
1.34746
1.34742
1.34739
1.34735
1.34731
1.34727
1.34723
1.3472
1.34716
1.34712
1.34708
1.34704
1.347
1.34696
1.34692
1.34688
1.34684
1.3468
1.34676
1.34672
1.34668
1.34664
1.3466
1.34656
1.34652
1.34648
1.34644
1.3464
1.34637
1.34633
1.34629
1.34625
1.34621
1.34617
1.34614
1.3461
1.34606
1.34603
1.34599
1.34596
1.34593
1.34589
1.34586
1.34583
1.3458
1.34578
1.34575
1.34572
1.3457
1.34568
1.34566
1.34564
1.34563
1.34561
1.3456
1.3456
1.34559
1.34559
1.34559
1.34559
1.3456
1.34561
1.34563
1.34564
1.34567
1.34569
1.34573
1.34576
1.3458
1.34585
1.3459
1.34596
1.34602
1.34609
1.34616
1.34624
1.34633
1.34642
1.34652
1.34663
1.34674
1.34686
1.34699
1.34713
1.34727
1.34742
1.34758
1.34775
1.34793
1.34811
1.3483
1.3485
1.34871
1.34893
1.34915
1.34939
1.34963
1.34988
1.35014
1.3504
1.35068
1.35096
1.35125
1.35155
1.35186
1.35217
1.35249
1.35281
1.35315
1.35348
1.35382
1.35417
1.35452
1.35488
1.35523
1.35559
1.35595
1.35631
1.35668
1.35704
1.3574
1.35775
1.35811
1.35846
1.3588
1.35914
1.35948
1.3598
1.36012
1.36044
1.36074
1.36103
1.36132
1.36159
1.36186
1.36211
1.36236
1.36259
1.36282
1.36303
1.36324
1.36343
1.36362
1.3638
1.36397
1.36413
1.36429
1.36444
1.36458
1.36472
1.36485
1.36498
1.3651
1.36522
1.36533
1.36544
1.36555
1.36565
1.36575
1.36585
1.36595
1.36604
1.36613
1.36622
1.36631
1.3664
1.36648
1.36656
1.36665
1.36673
1.36681
1.36688
1.36696
1.36704
1.36711
1.36719
1.36727
1.36734
1.36742
1.3675
1.36758
1.36766
1.36774
1.36782
1.36791
1.368
1.3681
1.3682
1.36831
1.36842
1.36854
1.36867
1.36881
1.36895
1.36911
1.36927
1.36945
1.36964
1.36985
1.37007
1.3703
1.37055
1.37082
1.3711
1.37141
1.37173
1.37208
1.37244
1.37283
1.37325
1.37368
1.37415
1.37464
1.37516
1.37571
1.37629
1.3769
1.37754
1.37822
1.37894
1.3797
1.38049
1.38133
1.38221
1.38314
1.38413
1.38517
1.38627
1.38743
1.38868
1.39
1.39141
1.39293
1.39457
1.39635
1.39829
1.40043
1.40279
1.40545
1.40845
1.4119
1.4159
1.42059
1.4261
1.43249
1.43958
1.44535
1.44548
1.32167
1.32124
1.32175
1.32338
1.32551
1.32741
1.32905
1.33041
1.33152
1.33241
1.33313
1.33373
1.33422
1.33463
1.33498
1.33526
1.33551
1.33571
1.33588
1.33602
1.33614
1.33624
1.33632
1.33638
1.33643
1.33647
1.3365
1.33651
1.33652
1.33651
1.3365
1.33648
1.33646
1.33643
1.3364
1.33636
1.33632
1.33627
1.33622
1.33617
1.33612
1.33607
1.33601
1.33596
1.3359
1.33585
1.3358
1.33575
1.3357
1.33565
1.33561
1.33557
1.33554
1.33551
1.33549
1.33547
1.33545
1.33545
1.33545
1.33546
1.33547
1.33549
1.33552
1.33556
1.33561
1.33566
1.33573
1.3358
1.33588
1.33598
1.33608
1.33618
1.3363
1.33643
1.33657
1.33671
1.33686
1.33703
1.3372
1.33737
1.33756
1.33776
1.33796
1.33817
1.33839
1.33861
1.33884
1.33908
1.33932
1.33957
1.33983
1.34009
1.34035
1.34062
1.34089
1.34116
1.34143
1.34171
1.34199
1.34226
1.34254
1.34281
1.34308
1.34335
1.34361
1.34388
1.34413
1.34438
1.34463
1.34487
1.3451
1.34532
1.34554
1.34574
1.34594
1.34613
1.3463
1.34647
1.34662
1.34677
1.3469
1.34703
1.34714
1.34724
1.34733
1.34742
1.34749
1.34755
1.34761
1.34766
1.3477
1.34773
1.34776
1.34778
1.34779
1.3478
1.3478
1.3478
1.34779
1.34779
1.34777
1.34776
1.34774
1.34772
1.34769
1.34767
1.34764
1.34761
1.34758
1.34755
1.34752
1.34748
1.34745
1.34741
1.34738
1.34734
1.3473
1.34726
1.34722
1.34719
1.34715
1.34711
1.34707
1.34703
1.34699
1.34695
1.34691
1.34687
1.34683
1.34679
1.34675
1.34672
1.34668
1.34664
1.3466
1.34656
1.34652
1.34648
1.34644
1.3464
1.34636
1.34632
1.34628
1.34625
1.34621
1.34617
1.34613
1.3461
1.34606
1.34603
1.34599
1.34596
1.34592
1.34589
1.34586
1.34583
1.3458
1.34577
1.34575
1.34572
1.3457
1.34568
1.34566
1.34564
1.34562
1.34561
1.3456
1.34559
1.34559
1.34559
1.34559
1.34559
1.3456
1.34561
1.34562
1.34564
1.34567
1.34569
1.34572
1.34576
1.3458
1.34585
1.3459
1.34596
1.34602
1.34609
1.34616
1.34624
1.34633
1.34642
1.34652
1.34663
1.34675
1.34687
1.347
1.34713
1.34728
1.34743
1.34759
1.34776
1.34793
1.34812
1.34831
1.34851
1.34872
1.34894
1.34916
1.3494
1.34964
1.34989
1.35015
1.35042
1.3507
1.35098
1.35127
1.35157
1.35188
1.35219
1.35251
1.35284
1.35317
1.35351
1.35385
1.3542
1.35455
1.35491
1.35526
1.35563
1.35599
1.35635
1.35671
1.35707
1.35743
1.35779
1.35815
1.3585
1.35884
1.35918
1.35952
1.35984
1.36016
1.36047
1.36078
1.36107
1.36135
1.36163
1.36189
1.36214
1.36239
1.36262
1.36284
1.36305
1.36326
1.36345
1.36364
1.36381
1.36398
1.36415
1.3643
1.36445
1.36459
1.36472
1.36486
1.36498
1.3651
1.36522
1.36533
1.36544
1.36555
1.36565
1.36575
1.36585
1.36594
1.36604
1.36613
1.36622
1.36631
1.36639
1.36648
1.36656
1.36664
1.36672
1.3668
1.36688
1.36696
1.36703
1.36711
1.36718
1.36726
1.36734
1.36741
1.36749
1.36757
1.36765
1.36773
1.36781
1.3679
1.36799
1.36809
1.36819
1.36829
1.36841
1.36853
1.36865
1.36879
1.36894
1.36909
1.36926
1.36943
1.36963
1.36983
1.37005
1.37028
1.37053
1.3708
1.37109
1.37139
1.37172
1.37206
1.37243
1.37282
1.37323
1.37367
1.37414
1.37463
1.37515
1.3757
1.37628
1.37689
1.37754
1.37822
1.37893
1.37969
1.38048
1.38132
1.3822
1.38313
1.38411
1.38514
1.38624
1.3874
1.38863
1.38994
1.39134
1.39284
1.39446
1.3962
1.39809
1.40017
1.40245
1.40498
1.40781
1.41099
1.41457
1.4186
1.42304
1.4276
1.43169
1.43449
1.43373
1.32514
1.32453
1.32462
1.32553
1.32673
1.32804
1.3293
1.33042
1.33138
1.33219
1.33288
1.33346
1.33394
1.33436
1.33471
1.33501
1.33526
1.33548
1.33566
1.33582
1.33595
1.33606
1.33615
1.33622
1.33628
1.33633
1.33636
1.33638
1.33639
1.33639
1.33639
1.33638
1.33636
1.33633
1.3363
1.33627
1.33623
1.33619
1.33614
1.33609
1.33604
1.33599
1.33594
1.33589
1.33583
1.33578
1.33573
1.33568
1.33564
1.33559
1.33555
1.33552
1.33548
1.33546
1.33543
1.33542
1.3354
1.3354
1.3354
1.33541
1.33543
1.33545
1.33548
1.33552
1.33557
1.33563
1.33569
1.33577
1.33585
1.33594
1.33605
1.33616
1.33628
1.33641
1.33654
1.33669
1.33684
1.33701
1.33718
1.33736
1.33755
1.33775
1.33795
1.33816
1.33838
1.33861
1.33884
1.33908
1.33932
1.33958
1.33983
1.34009
1.34036
1.34063
1.3409
1.34117
1.34145
1.34173
1.342
1.34228
1.34256
1.34283
1.3431
1.34338
1.34364
1.3439
1.34416
1.34441
1.34466
1.3449
1.34513
1.34535
1.34557
1.34577
1.34597
1.34616
1.34633
1.3465
1.34665
1.34679
1.34693
1.34705
1.34716
1.34726
1.34735
1.34743
1.3475
1.34756
1.34762
1.34766
1.3477
1.34773
1.34776
1.34777
1.34779
1.34779
1.3478
1.34779
1.34779
1.34778
1.34777
1.34775
1.34773
1.34771
1.34768
1.34766
1.34763
1.3476
1.34757
1.34754
1.34751
1.34747
1.34744
1.3474
1.34737
1.34733
1.34729
1.34725
1.34722
1.34718
1.34714
1.3471
1.34706
1.34702
1.34698
1.34695
1.34691
1.34687
1.34683
1.34679
1.34675
1.34671
1.34667
1.34663
1.34659
1.34655
1.34651
1.34647
1.34643
1.3464
1.34636
1.34632
1.34628
1.34624
1.3462
1.34617
1.34613
1.34609
1.34606
1.34602
1.34599
1.34595
1.34592
1.34589
1.34586
1.34583
1.3458
1.34577
1.34574
1.34572
1.34569
1.34567
1.34565
1.34564
1.34562
1.34561
1.3456
1.34559
1.34558
1.34558
1.34558
1.34559
1.34559
1.34561
1.34562
1.34564
1.34566
1.34569
1.34572
1.34576
1.3458
1.34585
1.3459
1.34595
1.34602
1.34609
1.34616
1.34624
1.34633
1.34642
1.34652
1.34663
1.34674
1.34687
1.347
1.34713
1.34728
1.34743
1.34759
1.34776
1.34793
1.34812
1.34831
1.34851
1.34872
1.34894
1.34917
1.3494
1.34965
1.3499
1.35016
1.35043
1.35071
1.35099
1.35128
1.35158
1.35189
1.35221
1.35253
1.35286
1.35319
1.35353
1.35387
1.35422
1.35458
1.35493
1.35529
1.35566
1.35602
1.35639
1.35675
1.35711
1.35748
1.35783
1.35819
1.35854
1.35889
1.35923
1.35956
1.35989
1.36021
1.36052
1.36082
1.36112
1.3614
1.36167
1.36193
1.36218
1.36242
1.36266
1.36288
1.36309
1.36329
1.36348
1.36366
1.36384
1.364
1.36416
1.36432
1.36446
1.3646
1.36474
1.36486
1.36499
1.36511
1.36522
1.36533
1.36544
1.36555
1.36565
1.36575
1.36585
1.36594
1.36603
1.36613
1.36622
1.3663
1.36639
1.36647
1.36656
1.36664
1.36672
1.3668
1.36687
1.36695
1.36703
1.3671
1.36718
1.36725
1.36733
1.3674
1.36748
1.36756
1.36763
1.36772
1.3678
1.36789
1.36798
1.36807
1.36817
1.36827
1.36839
1.3685
1.36863
1.36877
1.36891
1.36906
1.36923
1.36941
1.3696
1.3698
1.37002
1.37025
1.3705
1.37077
1.37105
1.37136
1.37168
1.37203
1.37239
1.37278
1.3732
1.37363
1.3741
1.37459
1.37511
1.37566
1.37624
1.37685
1.37749
1.37817
1.37888
1.37964
1.38043
1.38126
1.38214
1.38306
1.38403
1.38506
1.38615
1.38729
1.38851
1.3898
1.39117
1.39264
1.39421
1.3959
1.39772
1.39971
1.40186
1.40423
1.40682
1.40966
1.41276
1.41606
1.41945
1.42264
1.4251
1.42635
1.42605
1.3275
1.32683
1.32679
1.32723
1.32795
1.32884
1.32976
1.33063
1.33143
1.33214
1.33276
1.3333
1.33376
1.33417
1.33451
1.33481
1.33507
1.33529
1.33548
1.33564
1.33578
1.3359
1.336
1.33608
1.33614
1.33619
1.33623
1.33626
1.33628
1.33628
1.33628
1.33627
1.33626
1.33624
1.33621
1.33618
1.33614
1.3361
1.33606
1.33602
1.33597
1.33592
1.33587
1.33582
1.33577
1.33572
1.33567
1.33562
1.33558
1.33553
1.33549
1.33546
1.33543
1.3354
1.33538
1.33536
1.33535
1.33535
1.33535
1.33536
1.33538
1.3354
1.33543
1.33548
1.33553
1.33558
1.33565
1.33573
1.33581
1.33591
1.33601
1.33612
1.33625
1.33638
1.33651
1.33666
1.33682
1.33698
1.33716
1.33734
1.33753
1.33773
1.33793
1.33815
1.33837
1.3386
1.33883
1.33907
1.33932
1.33957
1.33983
1.3401
1.34036
1.34064
1.34091
1.34119
1.34146
1.34174
1.34202
1.3423
1.34258
1.34286
1.34313
1.3434
1.34367
1.34393
1.34419
1.34445
1.34469
1.34493
1.34517
1.34539
1.34561
1.34581
1.34601
1.3462
1.34637
1.34653
1.34669
1.34683
1.34696
1.34708
1.34719
1.34729
1.34737
1.34745
1.34752
1.34758
1.34763
1.34768
1.34771
1.34774
1.34776
1.34778
1.34779
1.3478
1.3478
1.34779
1.34779
1.34778
1.34776
1.34774
1.34772
1.3477
1.34768
1.34765
1.34762
1.34759
1.34756
1.34753
1.3475
1.34746
1.34743
1.34739
1.34736
1.34732
1.34728
1.34725
1.34721
1.34717
1.34713
1.34709
1.34706
1.34702
1.34698
1.34694
1.3469
1.34686
1.34682
1.34678
1.34674
1.34671
1.34667
1.34663
1.34659
1.34655
1.34651
1.34647
1.34643
1.34639
1.34635
1.34631
1.34628
1.34624
1.3462
1.34616
1.34613
1.34609
1.34605
1.34602
1.34598
1.34595
1.34592
1.34588
1.34585
1.34582
1.34579
1.34577
1.34574
1.34571
1.34569
1.34567
1.34565
1.34563
1.34562
1.3456
1.34559
1.34558
1.34558
1.34558
1.34558
1.34558
1.34559
1.3456
1.34561
1.34563
1.34566
1.34568
1.34571
1.34575
1.34579
1.34584
1.34589
1.34595
1.34601
1.34608
1.34615
1.34623
1.34632
1.34641
1.34652
1.34662
1.34674
1.34686
1.34699
1.34713
1.34727
1.34742
1.34758
1.34775
1.34793
1.34811
1.34831
1.34851
1.34872
1.34894
1.34916
1.3494
1.34965
1.3499
1.35016
1.35043
1.35071
1.35099
1.35129
1.35159
1.3519
1.35221
1.35254
1.35287
1.3532
1.35355
1.35389
1.35424
1.3546
1.35496
1.35532
1.35569
1.35605
1.35642
1.35679
1.35715
1.35752
1.35788
1.35824
1.35859
1.35894
1.35928
1.35962
1.35995
1.36027
1.36058
1.36088
1.36117
1.36145
1.36172
1.36198
1.36223
1.36247
1.3627
1.36292
1.36313
1.36333
1.36352
1.3637
1.36387
1.36403
1.36419
1.36434
1.36448
1.36462
1.36475
1.36488
1.365
1.36512
1.36523
1.36534
1.36545
1.36555
1.36565
1.36575
1.36585
1.36594
1.36604
1.36613
1.36621
1.3663
1.36639
1.36647
1.36655
1.36663
1.36671
1.36679
1.36687
1.36695
1.36702
1.3671
1.36717
1.36724
1.36732
1.36739
1.36747
1.36754
1.36762
1.3677
1.36778
1.36787
1.36796
1.36805
1.36815
1.36825
1.36836
1.36848
1.3686
1.36873
1.36888
1.36903
1.36919
1.36937
1.36956
1.36976
1.36997
1.37021
1.37045
1.37072
1.371
1.3713
1.37163
1.37197
1.37234
1.37272
1.37314
1.37357
1.37404
1.37453
1.37504
1.37559
1.37617
1.37677
1.37742
1.37809
1.3788
1.37955
1.38033
1.38116
1.38203
1.38294
1.3839
1.38492
1.38599
1.38711
1.3883
1.38957
1.3909
1.39232
1.39384
1.39546
1.3972
1.39907
1.40108
1.40324
1.40557
1.40806
1.41067
1.41331
1.41585
1.41805
1.41961
1.42022
1.41996
1.3291
1.32854
1.32841
1.3286
1.32904
1.32964
1.3303
1.33097
1.33162
1.33221
1.33275
1.33324
1.33367
1.33404
1.33437
1.33467
1.33492
1.33514
1.33533
1.3355
1.33564
1.33576
1.33586
1.33594
1.33601
1.33607
1.33611
1.33615
1.33617
1.33618
1.33618
1.33618
1.33616
1.33615
1.33612
1.33609
1.33606
1.33602
1.33598
1.33594
1.33589
1.33585
1.3358
1.33575
1.3357
1.33565
1.3356
1.33556
1.33551
1.33547
1.33543
1.3354
1.33537
1.33534
1.33532
1.33531
1.3353
1.33529
1.3353
1.33531
1.33532
1.33535
1.33538
1.33543
1.33548
1.33554
1.33561
1.33568
1.33577
1.33587
1.33597
1.33609
1.33621
1.33634
1.33648
1.33663
1.33679
1.33696
1.33713
1.33732
1.33751
1.33771
1.33791
1.33813
1.33835
1.33858
1.33882
1.33906
1.33931
1.33957
1.33983
1.3401
1.34037
1.34064
1.34092
1.3412
1.34148
1.34176
1.34204
1.34232
1.3426
1.34288
1.34316
1.34343
1.3437
1.34397
1.34423
1.34448
1.34473
1.34498
1.34521
1.34544
1.34565
1.34586
1.34605
1.34624
1.34642
1.34658
1.34673
1.34687
1.347
1.34712
1.34722
1.34732
1.34741
1.34748
1.34755
1.34761
1.34765
1.3477
1.34773
1.34776
1.34777
1.34779
1.3478
1.3478
1.3478
1.3478
1.34779
1.34778
1.34776
1.34774
1.34772
1.3477
1.34767
1.34765
1.34762
1.34759
1.34756
1.34752
1.34749
1.34746
1.34742
1.34739
1.34735
1.34731
1.34728
1.34724
1.3472
1.34716
1.34713
1.34709
1.34705
1.34701
1.34697
1.34693
1.3469
1.34686
1.34682
1.34678
1.34674
1.3467
1.34666
1.34662
1.34658
1.34654
1.34651
1.34647
1.34643
1.34639
1.34635
1.34631
1.34627
1.34624
1.3462
1.34616
1.34612
1.34609
1.34605
1.34602
1.34598
1.34595
1.34591
1.34588
1.34585
1.34582
1.34579
1.34576
1.34573
1.34571
1.34569
1.34566
1.34564
1.34563
1.34561
1.3456
1.34559
1.34558
1.34557
1.34557
1.34557
1.34557
1.34558
1.34559
1.34561
1.34562
1.34565
1.34567
1.34571
1.34574
1.34578
1.34583
1.34588
1.34594
1.346
1.34607
1.34614
1.34622
1.34631
1.3464
1.3465
1.34661
1.34673
1.34685
1.34698
1.34711
1.34726
1.34741
1.34757
1.34774
1.34792
1.3481
1.3483
1.3485
1.34871
1.34893
1.34916
1.34939
1.34964
1.34989
1.35015
1.35042
1.3507
1.35099
1.35129
1.35159
1.3519
1.35222
1.35254
1.35288
1.35321
1.35356
1.35391
1.35426
1.35462
1.35498
1.35535
1.35571
1.35608
1.35645
1.35682
1.35719
1.35756
1.35792
1.35828
1.35864
1.35899
1.35934
1.35967
1.36
1.36033
1.36064
1.36094
1.36123
1.36151
1.36178
1.36204
1.36229
1.36253
1.36276
1.36297
1.36318
1.36337
1.36356
1.36374
1.36391
1.36407
1.36422
1.36437
1.36451
1.36464
1.36477
1.3649
1.36502
1.36513
1.36524
1.36535
1.36546
1.36556
1.36566
1.36576
1.36585
1.36595
1.36604
1.36613
1.36622
1.3663
1.36639
1.36647
1.36655
1.36663
1.36671
1.36679
1.36687
1.36694
1.36702
1.36709
1.36717
1.36724
1.36731
1.36738
1.36746
1.36753
1.36761
1.36768
1.36776
1.36785
1.36793
1.36802
1.36812
1.36822
1.36833
1.36844
1.36856
1.3687
1.36884
1.36899
1.36915
1.36932
1.36951
1.3697
1.36992
1.37015
1.37039
1.37066
1.37094
1.37124
1.37156
1.3719
1.37226
1.37265
1.37306
1.37349
1.37395
1.37444
1.37495
1.37549
1.37607
1.37667
1.37731
1.37798
1.37868
1.37942
1.3802
1.38101
1.38187
1.38277
1.38372
1.38472
1.38576
1.38687
1.38803
1.38925
1.39055
1.39192
1.39337
1.39491
1.39654
1.39828
1.40013
1.40209
1.40415
1.40628
1.40844
1.41054
1.41245
1.41398
1.415
1.41533
1.41496
1.33028
1.32982
1.32964
1.32971
1.32997
1.33037
1.33085
1.33136
1.33187
1.33237
1.33283
1.33325
1.33364
1.33398
1.33429
1.33457
1.33481
1.33502
1.33521
1.33537
1.33552
1.33564
1.33574
1.33583
1.3359
1.33596
1.33601
1.33604
1.33607
1.33608
1.33609
1.33609
1.33608
1.33606
1.33604
1.33601
1.33598
1.33595
1.33591
1.33587
1.33582
1.33578
1.33573
1.33568
1.33564
1.33559
1.33554
1.3355
1.33545
1.33541
1.33537
1.33534
1.33531
1.33528
1.33526
1.33525
1.33524
1.33524
1.33524
1.33525
1.33527
1.3353
1.33533
1.33538
1.33543
1.33549
1.33556
1.33564
1.33572
1.33582
1.33593
1.33604
1.33617
1.3363
1.33644
1.3366
1.33676
1.33692
1.3371
1.33729
1.33748
1.33768
1.33789
1.33811
1.33833
1.33856
1.3388
1.33905
1.3393
1.33956
1.33982
1.34009
1.34037
1.34064
1.34092
1.3412
1.34149
1.34177
1.34206
1.34234
1.34262
1.34291
1.34319
1.34346
1.34373
1.344
1.34427
1.34452
1.34478
1.34502
1.34526
1.34548
1.3457
1.34591
1.34611
1.34629
1.34647
1.34663
1.34678
1.34692
1.34705
1.34716
1.34727
1.34736
1.34744
1.34752
1.34758
1.34764
1.34768
1.34772
1.34775
1.34777
1.34779
1.3478
1.34781
1.34781
1.34781
1.3478
1.34779
1.34778
1.34776
1.34774
1.34772
1.3477
1.34767
1.34764
1.34761
1.34758
1.34755
1.34752
1.34749
1.34745
1.34742
1.34738
1.34735
1.34731
1.34727
1.34724
1.3472
1.34716
1.34712
1.34708
1.34705
1.34701
1.34697
1.34693
1.34689
1.34685
1.34681
1.34678
1.34674
1.3467
1.34666
1.34662
1.34658
1.34654
1.3465
1.34646
1.34643
1.34639
1.34635
1.34631
1.34627
1.34623
1.3462
1.34616
1.34612
1.34608
1.34605
1.34601
1.34598
1.34594
1.34591
1.34588
1.34584
1.34581
1.34578
1.34576
1.34573
1.3457
1.34568
1.34566
1.34564
1.34562
1.3456
1.34559
1.34558
1.34557
1.34556
1.34556
1.34556
1.34557
1.34557
1.34558
1.3456
1.34561
1.34564
1.34566
1.34569
1.34573
1.34577
1.34582
1.34587
1.34592
1.34598
1.34605
1.34613
1.34621
1.34629
1.34639
1.34649
1.34659
1.34671
1.34683
1.34696
1.3471
1.34724
1.34739
1.34755
1.34772
1.3479
1.34808
1.34828
1.34848
1.34869
1.34891
1.34914
1.34938
1.34962
1.34988
1.35014
1.35041
1.35069
1.35098
1.35128
1.35158
1.35189
1.35221
1.35254
1.35287
1.35321
1.35356
1.35391
1.35427
1.35463
1.355
1.35537
1.35574
1.35611
1.35648
1.35686
1.35723
1.3576
1.35797
1.35833
1.35869
1.35905
1.35939
1.35974
1.36007
1.36039
1.3607
1.36101
1.3613
1.36158
1.36185
1.36211
1.36236
1.36259
1.36282
1.36303
1.36323
1.36343
1.36361
1.36378
1.36395
1.36411
1.36426
1.3644
1.36454
1.36467
1.3648
1.36492
1.36504
1.36515
1.36526
1.36537
1.36547
1.36557
1.36567
1.36577
1.36586
1.36595
1.36604
1.36613
1.36622
1.36631
1.36639
1.36647
1.36656
1.36664
1.36671
1.36679
1.36687
1.36694
1.36702
1.36709
1.36716
1.36723
1.3673
1.36737
1.36745
1.36752
1.36759
1.36767
1.36775
1.36783
1.36791
1.368
1.36809
1.36819
1.36829
1.3684
1.36852
1.36865
1.36879
1.36893
1.36909
1.36926
1.36945
1.36964
1.36985
1.37008
1.37032
1.37058
1.37086
1.37115
1.37147
1.37181
1.37217
1.37255
1.37296
1.37339
1.37384
1.37432
1.37483
1.37537
1.37594
1.37654
1.37717
1.37783
1.37852
1.37926
1.38002
1.38083
1.38167
1.38256
1.38349
1.38446
1.38548
1.38656
1.38768
1.38887
1.39011
1.39142
1.3928
1.39425
1.39578
1.39738
1.39906
1.40081
1.40262
1.40444
1.40621
1.40787
1.40931
1.41041
1.41108
1.41125
1.41085
1.33118
1.3308
1.33061
1.33061
1.33076
1.33102
1.33137
1.33176
1.33216
1.33256
1.33295
1.33332
1.33366
1.33397
1.33425
1.33451
1.33473
1.33494
1.33512
1.33528
1.33542
1.33554
1.33564
1.33573
1.3358
1.33586
1.33591
1.33595
1.33597
1.33599
1.336
1.336
1.33599
1.33598
1.33596
1.33594
1.33591
1.33587
1.33584
1.3358
1.33575
1.33571
1.33566
1.33562
1.33557
1.33552
1.33548
1.33543
1.33539
1.33535
1.33531
1.33528
1.33525
1.33522
1.3352
1.33519
1.33518
1.33518
1.33518
1.33519
1.33521
1.33524
1.33528
1.33532
1.33537
1.33544
1.33551
1.33559
1.33568
1.33578
1.33588
1.336
1.33613
1.33626
1.33641
1.33656
1.33672
1.33689
1.33707
1.33725
1.33745
1.33765
1.33786
1.33808
1.33831
1.33854
1.33878
1.33903
1.33929
1.33955
1.33982
1.34009
1.34036
1.34064
1.34093
1.34121
1.3415
1.34179
1.34207
1.34236
1.34265
1.34293
1.34321
1.34349
1.34377
1.34404
1.34431
1.34457
1.34482
1.34507
1.34531
1.34554
1.34576
1.34596
1.34616
1.34635
1.34652
1.34669
1.34684
1.34698
1.3471
1.34722
1.34732
1.34741
1.34749
1.34756
1.34762
1.34767
1.34771
1.34775
1.34778
1.3478
1.34781
1.34782
1.34782
1.34782
1.34782
1.34781
1.3478
1.34778
1.34777
1.34775
1.34772
1.3477
1.34767
1.34764
1.34761
1.34758
1.34755
1.34752
1.34748
1.34745
1.34741
1.34738
1.34734
1.34731
1.34727
1.34723
1.34719
1.34716
1.34712
1.34708
1.34704
1.347
1.34697
1.34693
1.34689
1.34685
1.34681
1.34677
1.34673
1.3467
1.34666
1.34662
1.34658
1.34654
1.3465