# vtk DataFile Version 2.0
LBE mesh
ASCII
DATASET STRUCTURED_POINTS
DIMENSIONS 400 100 1
ASPECT_RATIO 1 1 1
ORIGIN 0 0 0
POINT_DATA 40000
SCALARS rho double 1
LOOKUP_TABLE default
0.97763
1.0169
1.02909
1.03312
1.03544
1.03707
1.03816
1.03886
1.03933
1.03966
1.03988
1.04003
1.04012
1.04017
1.04019
1.04019
1.04016
1.04012
1.04007
1.04001
1.03994
1.03987
1.03979
1.03971
1.03963
1.03954
1.03946
1.03937
1.03928
1.0392
1.03911
1.03903
1.03895
1.03886
1.03878
1.0387
1.03862
1.03854
1.03846
1.03839
1.03831
1.03824
1.03817
1.0381
1.03803
1.03796
1.0379
1.03783
1.03777
1.03772
1.03766
1.03761
1.03756
1.03752
1.03748
1.03745
1.03742
1.0374
1.03738
1.03738
1.03737
1.03738
1.03739
1.03742
1.03745
1.03749
1.03754
1.0376
1.03768
1.03776
1.03785
1.03796
1.03808
1.03821
1.03835
1.03851
1.03867
1.03886
1.03905
1.03926
1.03948
1.03971
1.03996
1.04022
1.04049
1.04078
1.04107
1.04138
1.0417
1.04203
1.04238
1.04273
1.04309
1.04346
1.04384
1.04422
1.04461
1.045
1.0454
1.0458
1.0462
1.0466
1.04701
1.04741
1.0478
1.0482
1.04858
1.04897
1.04934
1.04971
1.05006
1.05041
1.05075
1.05107
1.05138
1.05168
1.05197
1.05225
1.05251
1.05276
1.05299
1.05322
1.05343
1.05363
1.05382
1.054
1.05418
1.05434
1.0545
1.05465
1.05479
1.05493
1.05507
1.05521
1.05534
1.05547
1.05561
1.05574
1.05587
1.05601
1.05615
1.05629
1.05644
1.05659
1.05675
1.05691
1.05707
1.05724
1.05742
1.0576
1.05778
1.05797
1.05817
1.05836
1.05856
1.05877
1.05897
1.05917
1.05938
1.05959
1.05979
1.05999
1.06019
1.06039
1.06059
1.06078
1.06096
1.06114
1.06131
1.06148
1.06164
1.06179
1.06193
1.06207
1.06219
1.06231
1.06242
1.06252
1.06261
1.06269
1.06276
1.06282
1.06288
1.06292
1.06296
1.06298
1.063
1.06301
1.06302
1.06302
1.06301
1.06299
1.06297
1.06295
1.06292
1.06288
1.06285
1.06281
1.06277
1.06273
1.0627
1.06266
1.06262
1.06259
1.06255
1.06253
1.0625
1.06248
1.06247
1.06246
1.06245
1.06245
1.06245
1.06246
1.06248
1.0625
1.06253
1.06256
1.06259
1.06263
1.06268
1.06272
1.06277
1.06283
1.06288
1.06294
1.063
1.06307
1.06313
1.0632
1.06326
1.06333
1.0634
1.06347
1.06354
1.06361
1.06368
1.06376
1.06383
1.06391
1.06399
1.06408
1.06417
1.06426
1.06436
1.06446
1.06457
1.06469
1.06481
1.06493
1.06507
1.06521
1.06536
1.06552
1.06569
1.06586
1.06605
1.06624
1.06645
1.06666
1.06688
1.06711
1.06735
1.0676
1.06786
1.06813
1.06841
1.06869
1.06899
1.06929
1.0696
1.06992
1.07024
1.07057
1.07091
1.07125
1.0716
1.07195
1.07231
1.07267
1.07303
1.07339
1.07376
1.07412
1.07449
1.07485
1.07522
1.07558
1.07593
1.07629
1.07664
1.07698
1.07732
1.07765
1.07798
1.0783
1.07861
1.07892
1.07922
1.07951
1.07979
1.08006
1.08033
1.08059
1.08084
1.08108
1.08131
1.08153
1.08175
1.08196
1.08216
1.08235
1.08253
1.08271
1.08288
1.08304
1.0832
1.08335
1.08349
1.08363
1.08376
1.08389
1.08401
1.08413
1.08424
1.08435
1.08446
1.08457
1.08467
1.08478
1.08488
1.08498
1.08508
1.08518
1.08529
1.08539
1.08548
1.08558
1.08568
1.08577
1.08587
1.08596
1.08604
1.08613
1.0862
1.08628
1.08635
1.08641
1.08647
1.08652
1.08657
1.08661
1.08664
1.08667
1.08669
1.08671
1.08673
1.08674
1.08676
1.08677
1.08678
1.0868
1.08682
1.08685
1.08688
1.08693
1.08699
1.08706
1.08716
1.08727
1.08742
1.08759
1.08779
1.08802
1.0883
1.08862
1.08899
1.08942
1.0899
1.09044
1.09106
1.09175
1.09253
1.0934
1.09437
1.09546
1.09667
1.09803
1.09956
1.10128
1.10324
1.10549
1.10812
1.11125
1.11506
1.12
1.12697
1.13685
1.15039
1.17584
1.0002
1.01338
1.02338
1.02991
1.03345
1.0355
1.03684
1.03778
1.03844
1.03891
1.03924
1.03947
1.03963
1.03974
1.03981
1.03984
1.03985
1.03984
1.03981
1.03978
1.03973
1.03967
1.03961
1.03954
1.03947
1.0394
1.03933
1.03925
1.03917
1.0391
1.03902
1.03894
1.03886
1.03879
1.03871
1.03864
1.03856
1.03849
1.03841
1.03834
1.03827
1.0382
1.03813
1.03806
1.038
1.03793
1.03787
1.03781
1.03775
1.0377
1.03765
1.0376
1.03755
1.03751
1.03748
1.03745
1.03742
1.0374
1.03739
1.03738
1.03738
1.03739
1.0374
1.03743
1.03746
1.0375
1.03756
1.03762
1.03769
1.03778
1.03787
1.03798
1.0381
1.03823
1.03837
1.03853
1.0387
1.03888
1.03908
1.03929
1.03951
1.03974
1.03999
1.04025
1.04052
1.04081
1.0411
1.04141
1.04173
1.04207
1.04241
1.04276
1.04312
1.04349
1.04386
1.04424
1.04463
1.04502
1.04542
1.04582
1.04622
1.04662
1.04702
1.04741
1.04781
1.0482
1.04858
1.04896
1.04933
1.0497
1.05005
1.05039
1.05073
1.05105
1.05136
1.05166
1.05194
1.05221
1.05247
1.05272
1.05295
1.05318
1.05339
1.05359
1.05378
1.05396
1.05414
1.0543
1.05446
1.05461
1.05476
1.0549
1.05504
1.05518
1.05531
1.05545
1.05558
1.05572
1.05585
1.05599
1.05613
1.05628
1.05643
1.05658
1.05673
1.0569
1.05706
1.05723
1.05741
1.05759
1.05778
1.05797
1.05816
1.05836
1.05856
1.05876
1.05896
1.05917
1.05937
1.05958
1.05978
1.05998
1.06018
1.06038
1.06057
1.06076
1.06094
1.06112
1.06129
1.06145
1.06161
1.06176
1.0619
1.06204
1.06216
1.06228
1.06239
1.06248
1.06257
1.06265
1.06272
1.06279
1.06284
1.06288
1.06292
1.06294
1.06296
1.06297
1.06298
1.06297
1.06296
1.06295
1.06293
1.0629
1.06288
1.06284
1.06281
1.06277
1.06273
1.0627
1.06266
1.06262
1.06258
1.06255
1.06252
1.06249
1.06247
1.06245
1.06243
1.06243
1.06242
1.06242
1.06243
1.06244
1.06245
1.06248
1.0625
1.06253
1.06257
1.06261
1.06266
1.06271
1.06276
1.06281
1.06287
1.06293
1.06299
1.06305
1.06312
1.06318
1.06325
1.06332
1.06339
1.06346
1.06353
1.0636
1.06368
1.06375
1.06383
1.06391
1.064
1.06408
1.06417
1.06427
1.06436
1.06447
1.06458
1.06469
1.06482
1.06494
1.06508
1.06522
1.06537
1.06553
1.0657
1.06588
1.06606
1.06626
1.06646
1.06668
1.0669
1.06713
1.06737
1.06762
1.06788
1.06815
1.06843
1.06872
1.06901
1.06931
1.06963
1.06994
1.07027
1.0706
1.07094
1.07128
1.07163
1.07198
1.07234
1.0727
1.07306
1.07342
1.07379
1.07415
1.07452
1.07488
1.07524
1.0756
1.07595
1.07631
1.07665
1.077
1.07733
1.07766
1.07799
1.07831
1.07862
1.07892
1.07922
1.07951
1.07979
1.08006
1.08032
1.08058
1.08082
1.08106
1.08129
1.08152
1.08173
1.08194
1.08214
1.08233
1.08251
1.08268
1.08285
1.08301
1.08317
1.08332
1.08346
1.0836
1.08373
1.08385
1.08398
1.08409
1.08421
1.08432
1.08443
1.08454
1.08465
1.08475
1.08486
1.08496
1.08506
1.08516
1.08527
1.08537
1.08547
1.08557
1.08566
1.08576
1.08585
1.08594
1.08603
1.08611
1.08619
1.08627
1.08633
1.0864
1.08646
1.08651
1.08655
1.08659
1.08663
1.08666
1.08668
1.0867
1.08672
1.08674
1.08675
1.08676
1.08678
1.0868
1.08682
1.08685
1.08689
1.08694
1.087
1.08708
1.08718
1.0873
1.08745
1.08762
1.08783
1.08807
1.08836
1.08869
1.08907
1.0895
1.09
1.09056
1.09119
1.0919
1.09269
1.09358
1.09458
1.09569
1.09694
1.09833
1.09991
1.10169
1.10373
1.10608
1.10885
1.11218
1.11631
1.12154
1.1283
1.13809
1.15551
1.18359
1.01712
1.01907
1.02466
1.02916
1.03219
1.03433
1.03584
1.0369
1.03767
1.03823
1.03864
1.03894
1.03916
1.03932
1.03942
1.03949
1.03953
1.03955
1.03954
1.03953
1.0395
1.03946
1.03941
1.03936
1.0393
1.03924
1.03918
1.03911
1.03904
1.03897
1.0389
1.03883
1.03876
1.03869
1.03862
1.03855
1.03848
1.03841
1.03834
1.03827
1.03821
1.03814
1.03808
1.03801
1.03795
1.03789
1.03783
1.03777
1.03772
1.03766
1.03761
1.03757
1.03753
1.03749
1.03745
1.03742
1.0374
1.03738
1.03737
1.03736
1.03737
1.03738
1.03739
1.03742
1.03745
1.0375
1.03755
1.03762
1.03769
1.03778
1.03787
1.03798
1.0381
1.03824
1.03838
1.03854
1.03871
1.03889
1.03909
1.0393
1.03952
1.03975
1.04
1.04026
1.04054
1.04082
1.04112
1.04143
1.04175
1.04209
1.04243
1.04278
1.04314
1.04351
1.04388
1.04427
1.04465
1.04504
1.04544
1.04584
1.04623
1.04663
1.04703
1.04743
1.04782
1.04821
1.04859
1.04896
1.04933
1.04969
1.05004
1.05038
1.05071
1.05103
1.05134
1.05163
1.05192
1.05219
1.05244
1.05269
1.05292
1.05314
1.05335
1.05355
1.05374
1.05392
1.0541
1.05426
1.05442
1.05457
1.05472
1.05486
1.055
1.05514
1.05528
1.05541
1.05555
1.05568
1.05582
1.05596
1.0561
1.05625
1.0564
1.05655
1.05671
1.05687
1.05704
1.05721
1.05738
1.05756
1.05775
1.05794
1.05813
1.05833
1.05852
1.05873
1.05893
1.05913
1.05933
1.05954
1.05974
1.05994
1.06014
1.06033
1.06052
1.06071
1.06089
1.06107
1.06123
1.0614
1.06155
1.0617
1.06184
1.06197
1.0621
1.06221
1.06232
1.06242
1.0625
1.06258
1.06265
1.06271
1.06277
1.06281
1.06284
1.06287
1.06289
1.0629
1.0629
1.0629
1.06289
1.06288
1.06286
1.06283
1.06281
1.06277
1.06274
1.0627
1.06267
1.06263
1.06259
1.06256
1.06252
1.06249
1.06246
1.06244
1.06241
1.06239
1.06238
1.06237
1.06237
1.06237
1.06238
1.06239
1.06241
1.06243
1.06246
1.06249
1.06253
1.06257
1.06262
1.06267
1.06272
1.06278
1.06284
1.0629
1.06296
1.06302
1.06309
1.06316
1.06323
1.0633
1.06337
1.06344
1.06351
1.06358
1.06366
1.06374
1.06382
1.0639
1.06398
1.06407
1.06416
1.06426
1.06435
1.06446
1.06457
1.06469
1.06481
1.06494
1.06507
1.06522
1.06537
1.06553
1.0657
1.06588
1.06606
1.06626
1.06646
1.06668
1.0669
1.06714
1.06738
1.06763
1.06789
1.06816
1.06844
1.06873
1.06902
1.06933
1.06964
1.06996
1.07028
1.07062
1.07095
1.0713
1.07165
1.072
1.07236
1.07272
1.07308
1.07344
1.07381
1.07417
1.07454
1.0749
1.07526
1.07562
1.07597
1.07632
1.07667
1.07701
1.07735
1.07767
1.078
1.07831
1.07862
1.07892
1.07922
1.0795
1.07978
1.08005
1.08031
1.08057
1.08081
1.08105
1.08128
1.0815
1.08171
1.08192
1.08212
1.08231
1.08249
1.08266
1.08283
1.08299
1.08314
1.08329
1.08343
1.08357
1.0837
1.08383
1.08395
1.08407
1.08418
1.0843
1.08441
1.08451
1.08462
1.08473
1.08483
1.08494
1.08504
1.08514
1.08524
1.08535
1.08545
1.08555
1.08564
1.08574
1.08583
1.08592
1.08601
1.08609
1.08617
1.08625
1.08632
1.08638
1.08644
1.08649
1.08653
1.08657
1.08661
1.08664
1.08666
1.08668
1.0867
1.08671
1.08673
1.08674
1.08676
1.08678
1.0868
1.08683
1.08687
1.08692
1.08698
1.08707
1.08717
1.08729
1.08744
1.08762
1.08783
1.08808
1.08837
1.0887
1.08909
1.08953
1.09003
1.0906
1.09123
1.09195
1.09276
1.09366
1.09467
1.09579
1.09705
1.09846
1.10005
1.10185
1.1039
1.10627
1.10904
1.11233
1.11631
1.12132
1.12783
1.13597
1.14481
1.15367
1.02565
1.02512
1.02717
1.02967
1.03202
1.03387
1.03524
1.03628
1.03707
1.03767
1.03812
1.03846
1.03872
1.03891
1.03905
1.03914
1.03921
1.03925
1.03926
1.03926
1.03925
1.03923
1.03919
1.03915
1.03911
1.03906
1.039
1.03895
1.03889
1.03883
1.03877
1.0387
1.03864
1.03858
1.03851
1.03845
1.03838
1.03832
1.03825
1.03819
1.03813
1.03806
1.038
1.03794
1.03788
1.03783
1.03777
1.03772
1.03766
1.03761
1.03757
1.03752
1.03748
1.03745
1.03741
1.03739
1.03737
1.03735
1.03734
1.03734
1.03734
1.03735
1.03737
1.0374
1.03743
1.03748
1.03753
1.0376
1.03768
1.03776
1.03786
1.03797
1.03809
1.03823
1.03837
1.03853
1.0387
1.03889
1.03908
1.0393
1.03952
1.03976
1.04001
1.04027
1.04054
1.04083
1.04113
1.04144
1.04176
1.0421
1.04244
1.04279
1.04316
1.04352
1.0439
1.04428
1.04467
1.04506
1.04546
1.04585
1.04625
1.04665
1.04705
1.04744
1.04783
1.04822
1.0486
1.04897
1.04934
1.04969
1.05004
1.05038
1.05071
1.05102
1.05132
1.05162
1.0519
1.05216
1.05242
1.05266
1.05289
1.05311
1.05332
1.05351
1.0537
1.05388
1.05405
1.05422
1.05438
1.05453
1.05467
1.05482
1.05496
1.0551
1.05523
1.05537
1.0555
1.05564
1.05578
1.05592
1.05606
1.05621
1.05636
1.05651
1.05667
1.05683
1.05699
1.05717
1.05734
1.05752
1.0577
1.05789
1.05808
1.05828
1.05847
1.05867
1.05887
1.05907
1.05927
1.05947
1.05967
1.05987
1.06007
1.06026
1.06045
1.06063
1.06081
1.06098
1.06115
1.06131
1.06146
1.06161
1.06175
1.06188
1.062
1.06211
1.06222
1.06231
1.0624
1.06248
1.06255
1.06261
1.06266
1.0627
1.06274
1.06277
1.06278
1.0628
1.0628
1.0628
1.06279
1.06278
1.06276
1.06273
1.06271
1.06268
1.06264
1.06261
1.06258
1.06254
1.0625
1.06247
1.06244
1.06241
1.06238
1.06235
1.06233
1.06232
1.06231
1.0623
1.0623
1.0623
1.06231
1.06232
1.06234
1.06237
1.0624
1.06243
1.06247
1.06252
1.06256
1.06262
1.06267
1.06273
1.06279
1.06285
1.06291
1.06298
1.06305
1.06312
1.06319
1.06326
1.06333
1.0634
1.06348
1.06355
1.06363
1.06371
1.06379
1.06387
1.06395
1.06404
1.06413
1.06423
1.06433
1.06444
1.06455
1.06467
1.06479
1.06492
1.06506
1.0652
1.06535
1.06551
1.06568
1.06586
1.06605
1.06625
1.06645
1.06667
1.06689
1.06712
1.06737
1.06762
1.06788
1.06815
1.06843
1.06872
1.06902
1.06933
1.06964
1.06996
1.07029
1.07062
1.07096
1.07131
1.07166
1.07201
1.07237
1.07273
1.07309
1.07346
1.07382
1.07419
1.07455
1.07491
1.07527
1.07563
1.07599
1.07634
1.07668
1.07702
1.07735
1.07768
1.078
1.07832
1.07862
1.07892
1.07922
1.0795
1.07978
1.08005
1.08031
1.08056
1.0808
1.08104
1.08127
1.08149
1.0817
1.0819
1.0821
1.08229
1.08247
1.08264
1.08281
1.08297
1.08312
1.08327
1.08341
1.08355
1.08368
1.0838
1.08392
1.08404
1.08416
1.08427
1.08438
1.08449
1.0846
1.0847
1.08481
1.08491
1.08502
1.08512
1.08522
1.08532
1.08543
1.08553
1.08562
1.08572
1.08581
1.0859
1.08599
1.08607
1.08615
1.08622
1.08629
1.08636
1.08641
1.08646
1.08651
1.08655
1.08658
1.08661
1.08663
1.08665
1.08667
1.08668
1.08669
1.08671
1.08672
1.08674
1.08676
1.08679
1.08683
1.08688
1.08694
1.08702
1.08712
1.08725
1.0874
1.08758
1.08779
1.08804
1.08833
1.08866
1.08905
1.08949
1.09
1.09056
1.09121
1.09193
1.09273
1.09363
1.09464
1.09576
1.09702
1.09842
1.09999
1.10176
1.10377
1.10607
1.10872
1.11182
1.11546
1.11974
1.12472
1.1303
1.13483
1.13502
1.02945
1.02892
1.02963
1.03097
1.03248
1.03384
1.03499
1.03592
1.03665
1.03723
1.03769
1.03804
1.03832
1.03853
1.03869
1.0388
1.03889
1.03894
1.03898
1.03899
1.039
1.03898
1.03896
1.03894
1.0389
1.03886
1.03882
1.03877
1.03872
1.03867
1.03861
1.03856
1.0385
1.03844
1.03838
1.03833
1.03827
1.03821
1.03815
1.03809
1.03803
1.03797
1.03791
1.03786
1.0378
1.03775
1.03769
1.03764
1.03759
1.03755
1.0375
1.03746
1.03742
1.03739
1.03736
1.03733
1.03731
1.0373
1.03729
1.03729
1.0373
1.03731
1.03733
1.03736
1.0374
1.03744
1.0375
1.03757
1.03765
1.03773
1.03783
1.03794
1.03807
1.0382
1.03835
1.03851
1.03868
1.03887
1.03907
1.03928
1.0395
1.03974
1.03999
1.04026
1.04053
1.04082
1.04113
1.04144
1.04176
1.0421
1.04244
1.0428
1.04316
1.04353
1.04391
1.0443
1.04468
1.04508
1.04547
1.04587
1.04627
1.04667
1.04706
1.04745
1.04784
1.04823
1.04861
1.04898
1.04934
1.0497
1.05004
1.05038
1.0507
1.05102
1.05132
1.0516
1.05188
1.05214
1.05239
1.05263
1.05286
1.05308
1.05328
1.05348
1.05366
1.05384
1.05401
1.05417
1.05433
1.05448
1.05462
1.05477
1.05491
1.05504
1.05518
1.05531
1.05545
1.05559
1.05572
1.05586
1.05601
1.05615
1.0563
1.05645
1.05661
1.05677
1.05694
1.05711
1.05728
1.05746
1.05764
1.05782
1.05801
1.0582
1.0584
1.05859
1.05879
1.05899
1.05919
1.05938
1.05958
1.05977
1.05997
1.06015
1.06034
1.06052
1.0607
1.06087
1.06103
1.06119
1.06134
1.06148
1.06162
1.06175
1.06187
1.06198
1.06208
1.06218
1.06227
1.06234
1.06241
1.06247
1.06252
1.06257
1.0626
1.06263
1.06265
1.06266
1.06267
1.06267
1.06266
1.06265
1.06263
1.06261
1.06258
1.06255
1.06252
1.06249
1.06246
1.06242
1.06239
1.06236
1.06233
1.0623
1.06227
1.06225
1.06223
1.06222
1.06221
1.0622
1.06221
1.06221
1.06222
1.06224
1.06226
1.06229
1.06232
1.06236
1.0624
1.06244
1.06249
1.06254
1.0626
1.06266
1.06272
1.06279
1.06285
1.06292
1.06299
1.06306
1.06313
1.0632
1.06328
1.06335
1.06343
1.0635
1.06358
1.06366
1.06374
1.06383
1.06391
1.064
1.06409
1.06419
1.06429
1.0644
1.06451
1.06463
1.06475
1.06488
1.06502
1.06517
1.06532
1.06548
1.06565
1.06583
1.06602
1.06622
1.06642
1.06664
1.06686
1.0671
1.06734
1.0676
1.06786
1.06813
1.06841
1.0687
1.069
1.06931
1.06962
1.06995
1.07028
1.07061
1.07096
1.0713
1.07166
1.07201
1.07237
1.07273
1.0731
1.07347
1.07383
1.0742
1.07456
1.07492
1.07529
1.07564
1.076
1.07635
1.07669
1.07703
1.07736
1.07769
1.07801
1.07832
1.07863
1.07892
1.07921
1.0795
1.07977
1.08004
1.0803
1.08055
1.08079
1.08102
1.08125
1.08147
1.08168
1.08188
1.08208
1.08227
1.08245
1.08262
1.08279
1.08295
1.0831
1.08325
1.08339
1.08352
1.08366
1.08378
1.0839
1.08402
1.08414
1.08425
1.08436
1.08447
1.08457
1.08468
1.08479
1.08489
1.08499
1.0851
1.0852
1.0853
1.0854
1.0855
1.0856
1.08569
1.08579
1.08588
1.08596
1.08605
1.08612
1.0862
1.08626
1.08632
1.08638
1.08643
1.08647
1.08651
1.08654
1.08657
1.08659
1.08661
1.08662
1.08663
1.08664
1.08665
1.08667
1.08668
1.0867
1.08673
1.08676
1.08681
1.08687
1.08695
1.08705
1.08717
1.08732
1.08749
1.0877
1.08795
1.08824
1.08857
1.08896
1.0894
1.0899
1.09046
1.0911
1.09181
1.09261
1.09351
1.0945
1.09561
1.09684
1.09821
1.09973
1.10144
1.10336
1.10552
1.10797
1.11074
1.11387
1.11734
1.1209
1.12412
1.12635
1.12573
1.03172
1.03131
1.03151
1.0322
1.03313
1.03408
1.03497
1.03574
1.03638
1.03691
1.03734
1.03769
1.03796
1.03818
1.03835
1.03848
1.03857
1.03864
1.03869
1.03872
1.03873
1.03873
1.03872
1.0387
1.03868
1.03865
1.03861
1.03858
1.03853
1.03849
1.03844
1.03839
1.03834
1.03829
1.03824
1.03819
1.03813
1.03808
1.03802
1.03797
1.03792
1.03786
1.03781
1.03776
1.0377
1.03765
1.0376
1.03756
1.03751
1.03746
1.03742
1.03739
1.03735
1.03732
1.03729
1.03727
1.03725
1.03724
1.03723
1.03723
1.03724
1.03726
1.03728
1.03731
1.03735
1.0374
1.03746
1.03752
1.0376
1.03769
1.03779
1.03791
1.03803
1.03817
1.03831
1.03848
1.03865
1.03884
1.03904
1.03925
1.03948
1.03972
1.03997
1.04024
1.04052
1.04081
1.04111
1.04143
1.04176
1.04209
1.04244
1.0428
1.04316
1.04354
1.04392
1.0443
1.04469
1.04509
1.04548
1.04588
1.04628
1.04668
1.04708
1.04747
1.04786
1.04824
1.04862
1.04899
1.04935
1.04971
1.05005
1.05038
1.0507
1.05101
1.05131
1.05159
1.05186
1.05212
1.05237
1.05261
1.05283
1.05304
1.05324
1.05344
1.05362
1.05379
1.05396
1.05412
1.05428
1.05442
1.05457
1.05471
1.05485
1.05498
1.05512
1.05525
1.05539
1.05552
1.05566
1.0558
1.05594
1.05609
1.05623
1.05638
1.05654
1.0567
1.05686
1.05703
1.0572
1.05738
1.05755
1.05774
1.05792
1.05811
1.0583
1.05849
1.05869
1.05888
1.05907
1.05927
1.05946
1.05965
1.05984
1.06002
1.06021
1.06038
1.06055
1.06072
1.06088
1.06104
1.06119
1.06133
1.06146
1.06159
1.06171
1.06182
1.06192
1.06202
1.0621
1.06218
1.06225
1.06231
1.06236
1.0624
1.06244
1.06247
1.06249
1.0625
1.06251
1.06251
1.0625
1.06249
1.06247
1.06245
1.06243
1.06241
1.06238
1.06235
1.06232
1.06228
1.06225
1.06222
1.0622
1.06217
1.06215
1.06213
1.06211
1.0621
1.06209
1.06209
1.06209
1.0621
1.06212
1.06213
1.06216
1.06219
1.06222
1.06226
1.0623
1.06235
1.0624
1.06246
1.06252
1.06258
1.06264
1.06271
1.06278
1.06285
1.06292
1.06299
1.06306
1.06314
1.06321
1.06329
1.06336
1.06344
1.06352
1.0636
1.06368
1.06377
1.06386
1.06395
1.06404
1.06414
1.06424
1.06435
1.06446
1.06458
1.06471
1.06484
1.06498
1.06512
1.06528
1.06544
1.06561
1.06579
1.06598
1.06617
1.06638
1.0666
1.06682
1.06706
1.0673
1.06756
1.06782
1.0681
1.06838
1.06867
1.06897
1.06928
1.0696
1.06992
1.07026
1.07059
1.07094
1.07129
1.07164
1.072
1.07237
1.07273
1.0731
1.07347
1.07383
1.0742
1.07457
1.07493
1.07529
1.07565
1.076
1.07635
1.07669
1.07703
1.07736
1.07769
1.07801
1.07832
1.07862
1.07892
1.07921
1.07949
1.07976
1.08003
1.08028
1.08053
1.08078
1.08101
1.08123
1.08145
1.08166
1.08187
1.08206
1.08225
1.08243
1.0826
1.08277
1.08293
1.08308
1.08323
1.08337
1.0835
1.08363
1.08376
1.08388
1.084
1.08411
1.08423
1.08434
1.08444
1.08455
1.08466
1.08476
1.08487
1.08497
1.08507
1.08517
1.08528
1.08538
1.08547
1.08557
1.08567
1.08576
1.08585
1.08593
1.08601
1.08609
1.08616
1.08623
1.08629
1.08634
1.08639
1.08643
1.08646
1.08649
1.08652
1.08654
1.08655
1.08656
1.08657
1.08658
1.08659
1.0866
1.08661
1.08663
1.08665
1.08668
1.08673
1.08679
1.08686
1.08695
1.08707
1.08721
1.08738
1.08759
1.08783
1.08811
1.08844
1.08882
1.08925
1.08974
1.0903
1.09093
1.09163
1.09241
1.09329
1.09426
1.09534
1.09653
1.09785
1.09931
1.10093
1.10272
1.1047
1.1069
1.1093
1.11187
1.11452
1.11703
1.11896
1.11995
1.11969
1.03325
1.03285
1.03286
1.03322
1.03378
1.03444
1.03509
1.0357
1.03623
1.03669
1.03708
1.0374
1.03766
1.03787
1.03804
1.03817
1.03827
1.03835
1.0384
1.03844
1.03846
1.03847
1.03847
1.03847
1.03845
1.03843
1.0384
1.03837
1.03834
1.0383
1.03826
1.03822
1.03817
1.03813
1.03808
1.03804
1.03799
1.03794
1.03789
1.03784
1.03779
1.03774
1.03769
1.03764
1.03759
1.03755
1.0375
1.03745
1.03741
1.03737
1.03733
1.0373
1.03726
1.03723
1.03721
1.03719
1.03717
1.03716
1.03716
1.03716
1.03717
1.03719
1.03721
1.03724
1.03729
1.03734
1.0374
1.03747
1.03755
1.03764
1.03774
1.03785
1.03798
1.03812
1.03826
1.03843
1.0386
1.03879
1.03899
1.03921
1.03944
1.03968
1.03993
1.0402
1.04048
1.04078
1.04109
1.0414
1.04173
1.04208
1.04243
1.04279
1.04316
1.04353
1.04391
1.0443
1.0447
1.04509
1.04549
1.04589
1.04629
1.04669
1.04709
1.04748
1.04787
1.04825
1.04863
1.049
1.04936
1.04971
1.05005
1.05038
1.0507
1.05101
1.0513
1.05158
1.05185
1.05211
1.05235
1.05258
1.0528
1.05301
1.05321
1.0534
1.05357
1.05375
1.05391
1.05407
1.05422
1.05437
1.05451
1.05465
1.05478
1.05492
1.05505
1.05518
1.05532
1.05545
1.05559
1.05572
1.05586
1.05601
1.05615
1.0563
1.05646
1.05661
1.05677
1.05694
1.05711
1.05728
1.05745
1.05763
1.05781
1.058
1.05818
1.05837
1.05856
1.05875
1.05894
1.05913
1.05932
1.0595
1.05969
1.05987
1.06004
1.06022
1.06039
1.06055
1.06071
1.06086
1.06101
1.06114
1.06128
1.0614
1.06152
1.06163
1.06173
1.06182
1.06191
1.06198
1.06205
1.06211
1.06216
1.06221
1.06224
1.06227
1.06229
1.06231
1.06232
1.06232
1.06232
1.06231
1.06229
1.06228
1.06226
1.06223
1.06221
1.06218
1.06215
1.06212
1.06209
1.06207
1.06204
1.06202
1.062
1.06198
1.06197
1.06196
1.06196
1.06196
1.06196
1.06197
1.06199
1.06201
1.06204
1.06207
1.06211
1.06215
1.06219
1.06224
1.0623
1.06236
1.06242
1.06248
1.06255
1.06261
1.06268
1.06276
1.06283
1.0629
1.06298
1.06305
1.06313
1.06321
1.06329
1.06337
1.06345
1.06353
1.06361
1.0637
1.06379
1.06388
1.06398
1.06408
1.06418
1.06429
1.0644
1.06452
1.06465
1.06478
1.06492
1.06506
1.06522
1.06538
1.06555
1.06573
1.06592
1.06612
1.06632
1.06654
1.06677
1.067
1.06725
1.0675
1.06777
1.06804
1.06833
1.06862
1.06893
1.06924
1.06956
1.06988
1.07022
1.07056
1.07091
1.07126
1.07162
1.07198
1.07235
1.07272
1.07309
1.07346
1.07383
1.07419
1.07456
1.07493
1.07529
1.07565
1.076
1.07635
1.07669
1.07703
1.07736
1.07769
1.078
1.07831
1.07862
1.07891
1.0792
1.07948
1.07975
1.08001
1.08027
1.08052
1.08076
1.08099
1.08122
1.08143
1.08164
1.08185
1.08204
1.08223
1.08241
1.08258
1.08275
1.08291
1.08306
1.08321
1.08335
1.08349
1.08362
1.08374
1.08386
1.08398
1.08409
1.0842
1.08431
1.08442
1.08453
1.08463
1.08474
1.08484
1.08494
1.08504
1.08515
1.08525
1.08535
1.08544
1.08554
1.08563
1.08572
1.08581
1.0859
1.08598
1.08605
1.08612
1.08618
1.08624
1.08629
1.08634
1.08638
1.08641
1.08644
1.08646
1.08648
1.08649
1.0865
1.0865
1.08651
1.08651
1.08652
1.08652
1.08654
1.08656
1.08658
1.08662
1.08667
1.08674
1.08683
1.08694
1.08708
1.08724
1.08744
1.08767
1.08794
1.08826
1.08863
1.08905
1.08953
1.09008
1.09069
1.09137
1.09213
1.09298
1.09392
1.09496
1.0961
1.09735
1.09873
1.10024
1.10189
1.10367
1.1056
1.10763
1.1097
1.1117
1.11344
1.11467
1.11515
1.11492
1.03426
1.0339
1.03383
1.034
1.03434
1.03478
1.03525
1.03571
1.03614
1.03653
1.03686
1.03715
1.03739
1.03758
1.03775
1.03788
1.03798
1.03806
1.03812
1.03816
1.03819
1.03821
1.03822
1.03822
1.03821
1.0382
1.03818
1.03815
1.03813
1.0381
1.03806
1.03803
1.03799
1.03795
1.03791
1.03787
1.03783
1.03779
1.03774
1.0377
1.03765
1.03761
1.03756
1.03752
1.03747
1.03743
1.03739
1.03734
1.0373
1.03727
1.03723
1.0372
1.03717
1.03714
1.03712
1.0371
1.03709
1.03708
1.03708
1.03708
1.03709
1.03711
1.03714
1.03717
1.03722
1.03727
1.03733
1.0374
1.03748
1.03757
1.03768
1.03779
1.03792
1.03806
1.03821
1.03837
1.03855
1.03874
1.03894
1.03916
1.03939
1.03963
1.03989
1.04016
1.04044
1.04074
1.04105
1.04137
1.04171
1.04205
1.0424
1.04277
1.04314
1.04352
1.0439
1.0443
1.04469
1.04509
1.04549
1.04589
1.0463
1.0467
1.04709
1.04749
1.04788
1.04826
1.04864
1.04901
1.04937
1.04972
1.05006
1.05038
1.0507
1.051
1.05129
1.05157
1.05183
1.05208
1.05232
1.05255
1.05277
1.05297
1.05316
1.05335
1.05353
1.05369
1.05385
1.05401
1.05416
1.0543
1.05444
1.05458
1.05471
1.05484
1.05498
1.05511
1.05524
1.05537
1.0555
1.05564
1.05578
1.05592
1.05606
1.05621
1.05636
1.05651
1.05667
1.05683
1.057
1.05716
1.05733
1.05751
1.05769
1.05787
1.05805
1.05823
1.05841
1.0586
1.05878
1.05897
1.05915
1.05933
1.05951
1.05969
1.05986
1.06003
1.06019
1.06035
1.06051
1.06066
1.0608
1.06094
1.06106
1.06119
1.0613
1.06141
1.06151
1.0616
1.06169
1.06176
1.06183
1.06189
1.06194
1.06199
1.06203
1.06206
1.06208
1.0621
1.06211
1.06211
1.06211
1.0621
1.06209
1.06208
1.06206
1.06204
1.06201
1.06199
1.06197
1.06194
1.06191
1.06189
1.06187
1.06185
1.06183
1.06182
1.06181
1.0618
1.0618
1.06181
1.06181
1.06183
1.06185
1.06187
1.0619
1.06194
1.06198
1.06202
1.06207
1.06212
1.06218
1.06224
1.0623
1.06237
1.06244
1.06251
1.06258
1.06265
1.06273
1.0628
1.06288
1.06296
1.06304
1.06312
1.0632
1.06328
1.06336
1.06345
1.06353
1.06362
1.06371
1.0638
1.0639
1.064
1.0641
1.06421
1.06433
1.06445
1.06457
1.06471
1.06485
1.06499
1.06515
1.06531
1.06548
1.06566
1.06585
1.06605
1.06625
1.06647
1.0667
1.06694
1.06718
1.06744
1.06771
1.06798
1.06827
1.06856
1.06887
1.06918
1.0695
1.06984
1.07017
1.07052
1.07087
1.07123
1.07159
1.07195
1.07232
1.07269
1.07306
1.07344
1.07381
1.07418
1.07455
1.07492
1.07528
1.07564
1.07599
1.07634
1.07669
1.07702
1.07735
1.07768
1.07799
1.0783
1.0786
1.0789
1.07918
1.07946
1.07973
1.07999
1.08025
1.0805
1.08074
1.08097
1.08119
1.08141
1.08162
1.08183
1.08202
1.08221
1.08239
1.08256
1.08273
1.08289
1.08304
1.08319
1.08333
1.08346
1.08359
1.08372
1.08384
1.08396
1.08407
1.08418
1.08429
1.08439
1.0845
1.0846
1.08471
1.08481
1.08491
1.08501
1.08511
1.08521
1.08531
1.08541
1.0855
1.0856
1.08569
1.08577
1.08586
1.08593
1.08601
1.08608
1.08614
1.08619
1.08624
1.08629
1.08632
1.08635
1.08638
1.0864
1.08641
1.08642
1.08642
1.08643
1.08643
1.08643
1.08643
1.08643
1.08644
1.08645
1.08647
1.0865
1.08655
1.08661
1.08669
1.08679
1.08692
1.08707
1.08726
1.08749
1.08775
1.08806
1.08841
1.08882
1.08928
1.08981
1.0904
1.09106
1.09179
1.09261
1.09351
1.0945
1.09558
1.09676
1.09805
1.09943
1.10093
1.10252
1.10418
1.10587
1.10753
1.10905
1.11027
1.11107
1.11132
1.111
1.03494
1.03463
1.03452
1.03458
1.03479
1.03508
1.03541
1.03576
1.0361
1.03642
1.0367
1.03694
1.03716
1.03734
1.03749
1.03761
1.03771
1.03779
1.03785
1.0379
1.03793
1.03795
1.03797
1.03797
1.03797
1.03796
1.03795
1.03793
1.03791
1.03789
1.03786
1.03783
1.0378
1.03777
1.03774
1.0377
1.03766
1.03762
1.03758
1.03754
1.0375
1.03746
1.03742
1.03738
1.03734
1.0373
1.03726
1.03722
1.03719
1.03715
1.03712
1.03709
1.03706
1.03704
1.03702
1.037
1.03699
1.03699
1.03699
1.03699
1.03701
1.03703
1.03705
1.03709
1.03713
1.03719
1.03725
1.03732
1.03741
1.0375
1.0376
1.03772
1.03785
1.03799
1.03814
1.0383
1.03848
1.03867
1.03887
1.03909
1.03932
1.03957
1.03983
1.0401
1.04039
1.04069
1.041
1.04133
1.04166
1.04201
1.04237
1.04274
1.04311
1.04349
1.04388
1.04428
1.04468
1.04508
1.04548
1.04589
1.04629
1.04669
1.04709
1.04749
1.04788
1.04826
1.04864
1.04901
1.04937
1.04972
1.05005
1.05038
1.05069
1.05099
1.05128
1.05155
1.05181
1.05206
1.0523
1.05252
1.05273
1.05293
1.05312
1.0533
1.05347
1.05364
1.05379
1.05395
1.05409
1.05423
1.05437
1.0545
1.05463
1.05476
1.05489
1.05502
1.05515
1.05528
1.05541
1.05554
1.05568
1.05582
1.05596
1.0561
1.05625
1.0564
1.05655
1.05671
1.05687
1.05703
1.0572
1.05737
1.05754
1.05772
1.05789
1.05807
1.05825
1.05843
1.05861
1.05878
1.05896
1.05914
1.05931
1.05948
1.05965
1.05982
1.05998
1.06013
1.06028
1.06043
1.06057
1.0607
1.06083
1.06095
1.06106
1.06117
1.06127
1.06136
1.06144
1.06152
1.06159
1.06165
1.0617
1.06175
1.06178
1.06182
1.06184
1.06186
1.06187
1.06188
1.06188
1.06187
1.06187
1.06185
1.06184
1.06182
1.0618
1.06178
1.06176
1.06174
1.06171
1.06169
1.06168
1.06166
1.06165
1.06164
1.06163
1.06163
1.06163
1.06164
1.06165
1.06167
1.06169
1.06171
1.06175
1.06179
1.06183
1.06188
1.06193
1.06198
1.06204
1.06211
1.06217
1.06224
1.06231
1.06238
1.06246
1.06254
1.06261
1.06269
1.06277
1.06285
1.06293
1.06301
1.06309
1.06318
1.06326
1.06335
1.06344
1.06352
1.06362
1.06371
1.06381
1.06391
1.06402
1.06413
1.06424
1.06436
1.06449
1.06462
1.06476
1.06491
1.06506
1.06523
1.0654
1.06558
1.06577
1.06596
1.06617
1.06639
1.06662
1.06685
1.0671
1.06736
1.06763
1.0679
1.06819
1.06849
1.0688
1.06911
1.06944
1.06977
1.07011
1.07046
1.07081
1.07117
1.07154
1.07191
1.07228
1.07266
1.07303
1.07341
1.07378
1.07416
1.07453
1.0749
1.07526
1.07562
1.07598
1.07633
1.07667
1.07701
1.07734
1.07766
1.07798
1.07828
1.07859
1.07888
1.07916
1.07944
1.07971
1.07997
1.08023
1.08047
1.08071
1.08094
1.08117
1.08139
1.0816
1.0818
1.08199
1.08218
1.08236
1.08254
1.0827
1.08286
1.08302
1.08316
1.08331
1.08344
1.08357
1.08369
1.08381
1.08393
1.08404
1.08415
1.08426
1.08437
1.08447
1.08457
1.08468
1.08478
1.08488
1.08498
1.08508
1.08518
1.08528
1.08537
1.08547
1.08556
1.08565
1.08573
1.08581
1.08589
1.08596
1.08602
1.08608
1.08614
1.08619
1.08623
1.08626
1.08629
1.08631
1.08632
1.08633
1.08634
1.08634
1.08634
1.08633
1.08633
1.08632
1.08632
1.08632
1.08633
1.08634
1.08637
1.08641
1.08646
1.08653
1.08662
1.08674
1.08688
1.08706
1.08727
1.08752
1.08781
1.08815
1.08854
1.08899
1.08949
1.09006
1.09069
1.09139
1.09217
1.09303
1.09396
1.09498
1.09608
1.09727
1.09854
1.09988
1.10128
1.10271
1.10412
1.10545
1.10661
1.1075
1.10803
1.10814
1.10779
1.03538
1.03512
1.03499
1.035
1.03511
1.0353
1.03554
1.0358
1.03606
1.03632
1.03655
1.03676
1.03694
1.0371
1.03724
1.03735
1.03744
1.03752
1.03758
1.03763
1.03767
1.03769
1.03771
1.03772
1.03772
1.03772
1.03772
1.03771
1.03769
1.03767
1.03765
1.03763
1.0376
1.03758
1.03755
1.03752
1.03749
1.03745
1.03742
1.03739
1.03735
1.03731
1.03728
1.03724
1.0372
1.03717
1.03713
1.0371
1.03706
1.03703
1.037
1.03698
1.03695
1.03693
1.03692
1.0369
1.03689
1.03689
1.03689
1.0369
1.03692
1.03694
1.03697
1.03701
1.03705
1.03711
1.03717
1.03724
1.03733
1.03742
1.03753
1.03764
1.03777
1.03791
1.03806
1.03823
1.03841
1.0386
1.0388
1.03902
1.03926
1.0395
1.03977
1.04004
1.04033
1.04063
1.04095
1.04128
1.04162
1.04197
1.04233
1.0427
1.04308
1.04346
1.04386
1.04425
1.04465
1.04506
1.04547
1.04587
1.04628
1.04668
1.04708
1.04748
1.04787
1.04826
1.04864
1.049
1.04936
1.04971
1.05005
1.05037
1.05068
1.05098
1.05126
1.05153
1.05179
1.05203
1.05226
1.05248
1.05269
1.05289
1.05307
1.05325
1.05342
1.05358
1.05373
1.05388
1.05402
1.05416
1.05429
1.05442
1.05455
1.05468
1.0548
1.05493
1.05506
1.05518
1.05531
1.05544
1.05557
1.05571
1.05584
1.05598
1.05613
1.05627
1.05642
1.05657
1.05673
1.05689
1.05705
1.05721
1.05738
1.05755
1.05772
1.05789
1.05806
1.05824
1.05841
1.05858
1.05876
1.05893
1.05909
1.05926
1.05942
1.05958
1.05974
1.05989
1.06004
1.06018
1.06031
1.06044
1.06057
1.06069
1.0608
1.0609
1.061
1.06109
1.06117
1.06125
1.06132
1.06138