# vtk DataFile Version 2.0
LBE mesh
ASCII
DATASET STRUCTURED_POINTS
DIMENSIONS 400 100 1
ASPECT_RATIO 1 1 1
ORIGIN 0 0 0
POINT_DATA 40000
SCALARS rho double 1
LOOKUP_TABLE default
1.06643
1.12934
1.14795
1.15222
1.15439
1.15616
1.15742
1.15824
1.15879
1.15919
1.15948
1.15971
1.15988
1.16
1.1601
1.16017
1.16021
1.16024
1.16026
1.16026
1.16026
1.16024
1.16022
1.16019
1.16015
1.16011
1.16007
1.16002
1.15997
1.15991
1.15986
1.1598
1.15974
1.15968
1.15962
1.15956
1.1595
1.15943
1.15938
1.15932
1.15926
1.1592
1.15915
1.1591
1.15905
1.15901
1.15897
1.15893
1.1589
1.15887
1.15885
1.15884
1.15883
1.15882
1.15883
1.15884
1.15886
1.15889
1.15892
1.15897
1.15902
1.15908
1.15916
1.15924
1.15934
1.15944
1.15956
1.15968
1.15982
1.15997
1.16013
1.1603
1.16048
1.16068
1.16088
1.16109
1.16132
1.16155
1.1618
1.16205
1.16232
1.16259
1.16287
1.16316
1.16345
1.16375
1.16406
1.16437
1.16469
1.16501
1.16533
1.16565
1.16597
1.1663
1.16662
1.16694
1.16726
1.16757
1.16788
1.16818
1.16847
1.16876
1.16904
1.16931
1.16958
1.16983
1.17007
1.1703
1.17051
1.17072
1.17091
1.17108
1.17125
1.17139
1.17153
1.17165
1.17175
1.17184
1.17192
1.17198
1.17203
1.17206
1.17208
1.17209
1.17209
1.17207
1.17205
1.17202
1.17198
1.17193
1.17187
1.17181
1.17174
1.17167
1.1716
1.17152
1.17143
1.17135
1.17127
1.17118
1.1711
1.17101
1.17093
1.17084
1.17076
1.17068
1.1706
1.17053
1.17045
1.17038
1.17032
1.17026
1.1702
1.17014
1.17009
1.17004
1.17
1.16996
1.16993
1.1699
1.16987
1.16985
1.16984
1.16982
1.16982
1.16981
1.16981
1.16982
1.16983
1.16984
1.16986
1.16989
1.16991
1.16994
1.16998
1.17001
1.17005
1.1701
1.17014
1.17019
1.17025
1.1703
1.17036
1.17042
1.17048
1.17054
1.1706
1.17067
1.17073
1.1708
1.17087
1.17093
1.171
1.17107
1.17113
1.1712
1.17127
1.17133
1.1714
1.17146
1.17152
1.17158
1.17164
1.1717
1.17176
1.17181
1.17187
1.17192
1.17197
1.17202
1.17207
1.17211
1.17216
1.1722
1.17224
1.17229
1.17233
1.17237
1.17241
1.17245
1.17248
1.17252
1.17256
1.1726
1.17264
1.17269
1.17273
1.17278
1.17283
1.17288
1.17293
1.17299
1.17305
1.17311
1.17318
1.17326
1.17334
1.17342
1.17352
1.17362
1.17372
1.17384
1.17396
1.17409
1.17423
1.17437
1.17453
1.1747
1.17487
1.17506
1.17526
1.17547
1.17569
1.17592
1.17616
1.17641
1.17667
1.17695
1.17723
1.17753
1.17784
1.17815
1.17848
1.17882
1.17916
1.17952
1.17988
1.18025
1.18063
1.18101
1.1814
1.18179
1.18218
1.18258
1.18298
1.18338
1.18377
1.18417
1.18456
1.18495
1.18533
1.18571
1.18608
1.18645
1.1868
1.18715
1.18749
1.18782
1.18813
1.18844
1.18874
1.18902
1.1893
1.18956
1.18981
1.19005
1.19028
1.1905
1.19071
1.19091
1.1911
1.19128
1.19145
1.19161
1.19177
1.19191
1.19204
1.19217
1.19229
1.1924
1.19251
1.1926
1.19269
1.19277
1.19284
1.19291
1.19297
1.19302
1.19306
1.1931
1.19313
1.19315
1.19317
1.19318
1.19319
1.19318
1.19318
1.19316
1.19315
1.19313
1.1931
1.19308
1.19305
1.19302
1.19298
1.19295
1.19292
1.1929
1.19287
1.19285
1.19283
1.19282
1.19281
1.19282
1.19283
1.19285
1.19288
1.19292
1.19297
1.19304
1.19313
1.19322
1.19334
1.19347
1.19362
1.19379
1.19398
1.19419
1.19442
1.19468
1.19496
1.19526
1.1956
1.19595
1.19634
1.19676
1.1972
1.19767
1.19818
1.19872
1.19929
1.1999
1.20055
1.20123
1.20195
1.20272
1.20353
1.20438
1.20529
1.20625
1.20726
1.20834
1.20949
1.21072
1.21203
1.21345
1.21498
1.21665
1.21848
1.22051
1.22278
1.22536
1.22834
1.23187
1.23615
1.24168
1.24941
1.26032
1.27586
1.30648
1.11665
1.12748
1.13872
1.14743
1.152
1.1544
1.15592
1.157
1.15778
1.15836
1.15879
1.15911
1.15936
1.15955
1.1597
1.15981
1.15989
1.15995
1.16
1.16002
1.16004
1.16004
1.16003
1.16001
1.15999
1.15996
1.15993
1.15989
1.15984
1.1598
1.15975
1.15969
1.15964
1.15959
1.15953
1.15947
1.15942
1.15936
1.15931
1.15925
1.1592
1.15914
1.15909
1.15905
1.159
1.15896
1.15892
1.15889
1.15886
1.15884
1.15882
1.1588
1.1588
1.1588
1.1588
1.15882
1.15884
1.15887
1.1589
1.15895
1.15901
1.15907
1.15915
1.15924
1.15933
1.15944
1.15956
1.15968
1.15982
1.15998
1.16014
1.16031
1.16049
1.16069
1.16089
1.16111
1.16134
1.16157
1.16182
1.16207
1.16234
1.16261
1.16289
1.16318
1.16348
1.16378
1.16408
1.1644
1.16471
1.16503
1.16535
1.16567
1.166
1.16632
1.16664
1.16696
1.16727
1.16758
1.16789
1.16819
1.16849
1.16877
1.16905
1.16932
1.16958
1.16983
1.17007
1.17029
1.17051
1.17071
1.1709
1.17107
1.17123
1.17138
1.17151
1.17163
1.17173
1.17182
1.17189
1.17195
1.172
1.17203
1.17205
1.17206
1.17205
1.17204
1.17202
1.17198
1.17194
1.17189
1.17184
1.17178
1.17171
1.17164
1.17156
1.17149
1.17141
1.17132
1.17124
1.17116
1.17107
1.17099
1.1709
1.17082
1.17074
1.17066
1.17058
1.17051
1.17044
1.17037
1.17031
1.17024
1.17019
1.17013
1.17008
1.17003
1.16999
1.16995
1.16992
1.16989
1.16987
1.16985
1.16983
1.16982
1.16981
1.16981
1.16981
1.16982
1.16983
1.16985
1.16986
1.16989
1.16991
1.16994
1.16998
1.17002
1.17006
1.1701
1.17015
1.1702
1.17025
1.1703
1.17036
1.17042
1.17048
1.17054
1.17061
1.17067
1.17074
1.1708
1.17087
1.17093
1.171
1.17107
1.17114
1.1712
1.17127
1.17133
1.1714
1.17146
1.17152
1.17158
1.17164
1.1717
1.17176
1.17181
1.17187
1.17192
1.17197
1.17202
1.17207
1.17211
1.17216
1.1722
1.17224
1.17229
1.17233
1.17237
1.17241
1.17245
1.17248
1.17252
1.17256
1.1726
1.17265
1.17269
1.17273
1.17278
1.17283
1.17288
1.17293
1.17299
1.17305
1.17312
1.17319
1.17327
1.17335
1.17344
1.17353
1.17363
1.17374
1.17385
1.17397
1.1741
1.17424
1.17439
1.17455
1.17472
1.1749
1.17508
1.17528
1.17549
1.17571
1.17594
1.17619
1.17644
1.1767
1.17698
1.17727
1.17756
1.17787
1.17819
1.17852
1.17885
1.1792
1.17955
1.17992
1.18029
1.18066
1.18104
1.18143
1.18182
1.18221
1.18261
1.18301
1.1834
1.1838
1.18419
1.18458
1.18497
1.18535
1.18573
1.1861
1.18646
1.18681
1.18716
1.18749
1.18782
1.18813
1.18844
1.18873
1.18902
1.18929
1.18955
1.1898
1.19004
1.19027
1.19049
1.1907
1.1909
1.19109
1.19126
1.19143
1.1916
1.19175
1.19189
1.19203
1.19215
1.19227
1.19238
1.19249
1.19258
1.19267
1.19275
1.19282
1.19289
1.19295
1.193
1.19304
1.19308
1.19311
1.19313
1.19315
1.19315
1.19316
1.19316
1.19315
1.19314
1.19312
1.1931
1.19308
1.19305
1.19302
1.19299
1.19296
1.19293
1.1929
1.19288
1.19285
1.19283
1.19282
1.19281
1.1928
1.19281
1.19282
1.19284
1.19287
1.19292
1.19298
1.19305
1.19313
1.19323
1.19335
1.19348
1.19364
1.19381
1.194
1.19422
1.19446
1.19472
1.195
1.19531
1.19564
1.19601
1.1964
1.19682
1.19727
1.19775
1.19826
1.1988
1.19938
1.19999
1.20064
1.20133
1.20206
1.20283
1.20365
1.20451
1.20543
1.20639
1.20742
1.20852
1.20968
1.21093
1.21226
1.21371
1.21527
1.21698
1.21886
1.22096
1.22331
1.22601
1.22915
1.2329
1.23753
1.24338
1.25095
1.26198
1.28139
1.3123
1.13538
1.13476
1.14142
1.14693
1.15045
1.15297
1.15477
1.15604
1.15696
1.15764
1.15816
1.15857
1.15888
1.15913
1.15932
1.15947
1.15959
1.15968
1.15974
1.15979
1.15982
1.15984
1.15985
1.15984
1.15983
1.15981
1.15979
1.15975
1.15972
1.15968
1.15964
1.15959
1.15954
1.15949
1.15944
1.15939
1.15934
1.15928
1.15923
1.15918
1.15913
1.15908
1.15903
1.15899
1.15895
1.15891
1.15887
1.15884
1.15881
1.15879
1.15877
1.15876
1.15876
1.15876
1.15877
1.15878
1.15881
1.15884
1.15888
1.15893
1.15899
1.15905
1.15913
1.15922
1.15932
1.15943
1.15955
1.15968
1.15982
1.15997
1.16013
1.16031
1.16049
1.16069
1.1609
1.16111
1.16134
1.16158
1.16183
1.16208
1.16235
1.16262
1.16291
1.16319
1.16349
1.16379
1.1641
1.16441
1.16473
1.16505
1.16537
1.16569
1.16601
1.16634
1.16666
1.16697
1.16729
1.1676
1.16791
1.16821
1.1685
1.16878
1.16906
1.16933
1.16959
1.16983
1.17007
1.1703
1.17051
1.17071
1.17089
1.17106
1.17122
1.17137
1.1715
1.17161
1.17171
1.1718
1.17187
1.17193
1.17197
1.172
1.17202
1.17203
1.17203
1.17201
1.17199
1.17195
1.17191
1.17186
1.17181
1.17175
1.17168
1.17161
1.17153
1.17146
1.17138
1.17129
1.17121
1.17113
1.17105
1.17096
1.17088
1.1708
1.17072
1.17064
1.17057
1.17049
1.17042
1.17035
1.17029
1.17023
1.17017
1.17012
1.17007
1.17003
1.16998
1.16995
1.16992
1.16989
1.16986
1.16984
1.16983
1.16982
1.16981
1.16981
1.16981
1.16982
1.16983
1.16985
1.16987
1.16989
1.16992
1.16995
1.16998
1.17002
1.17006
1.17011
1.17015
1.1702
1.17025
1.17031
1.17037
1.17042
1.17049
1.17055
1.17061
1.17067
1.17074
1.17081
1.17087
1.17094
1.17101
1.17107
1.17114
1.17121
1.17127
1.17134
1.1714
1.17146
1.17153
1.17159
1.17165
1.1717
1.17176
1.17181
1.17187
1.17192
1.17197
1.17202
1.17207
1.17211
1.17216
1.1722
1.17224
1.17229
1.17233
1.17237
1.17241
1.17245
1.17248
1.17252
1.17256
1.1726
1.17265
1.17269
1.17273
1.17278
1.17283
1.17288
1.17294
1.173
1.17306
1.17312
1.1732
1.17327
1.17335
1.17344
1.17354
1.17364
1.17374
1.17386
1.17398
1.17411
1.17426
1.1744
1.17456
1.17473
1.17491
1.1751
1.1753
1.17551
1.17573
1.17596
1.17621
1.17646
1.17673
1.177
1.17729
1.17759
1.1779
1.17821
1.17854
1.17888
1.17923
1.17958
1.17995
1.18031
1.18069
1.18107
1.18146
1.18185
1.18224
1.18264
1.18303
1.18343
1.18383
1.18422
1.18461
1.18499
1.18537
1.18575
1.18612
1.18648
1.18683
1.18717
1.1875
1.18783
1.18814
1.18845
1.18874
1.18902
1.18929
1.18955
1.1898
1.19004
1.19026
1.19048
1.19069
1.19089
1.19107
1.19125
1.19142
1.19158
1.19173
1.19188
1.19201
1.19214
1.19225
1.19236
1.19247
1.19256
1.19265
1.19273
1.1928
1.19287
1.19292
1.19297
1.19302
1.19305
1.19308
1.19311
1.19312
1.19313
1.19313
1.19313
1.19312
1.19311
1.19309
1.19307
1.19305
1.19302
1.19299
1.19296
1.19293
1.1929
1.19288
1.19285
1.19283
1.19281
1.19279
1.19278
1.19278
1.19279
1.1928
1.19282
1.19286
1.1929
1.19296
1.19304
1.19312
1.19323
1.19334
1.19348
1.19364
1.19381
1.19401
1.19423
1.19446
1.19473
1.19501
1.19533
1.19567
1.19603
1.19642
1.19685
1.1973
1.19778
1.1983
1.19885
1.19943
1.20005
1.2007
1.20139
1.20213
1.2029
1.20372
1.20459
1.20551
1.20648
1.20752
1.20862
1.20979
1.21104
1.21239
1.21384
1.21541
1.21713
1.21903
1.22114
1.22351
1.22622
1.22936
1.23307
1.23754
1.24315
1.25041
1.25951
1.26938
1.27893
1.14357
1.14276
1.14495
1.14759
1.15035
1.15256
1.15418
1.15541
1.15636
1.15709
1.15766
1.15811
1.15847
1.15875
1.15898
1.15916
1.1593
1.15942
1.1595
1.15957
1.15962
1.15965
1.15967
1.15968
1.15968
1.15966
1.15965
1.15962
1.1596
1.15956
1.15953
1.15949
1.15944
1.1594
1.15935
1.1593
1.15925
1.1592
1.15916
1.15911
1.15906
1.15901
1.15897
1.15893
1.15889
1.15885
1.15882
1.15879
1.15876
1.15874
1.15873
1.15872
1.15871
1.15872
1.15873
1.15874
1.15877
1.1588
1.15884
1.15889
1.15895
1.15902
1.1591
1.15919
1.15929
1.1594
1.15952
1.15965
1.1598
1.15995
1.16012
1.16029
1.16048
1.16068
1.16089
1.1611
1.16133
1.16157
1.16182
1.16208
1.16235
1.16262
1.16291
1.1632
1.16349
1.1638
1.16411
1.16442
1.16474
1.16506
1.16538
1.1657
1.16603
1.16635
1.16667
1.16699
1.1673
1.16761
1.16792
1.16822
1.16851
1.1688
1.16907
1.16934
1.1696
1.16984
1.17008
1.1703
1.17051
1.17071
1.17089
1.17106
1.17122
1.17136
1.17149
1.1716
1.1717
1.17179
1.17186
1.17191
1.17196
1.17198
1.172
1.17201
1.172
1.17199
1.17196
1.17193
1.17188
1.17183
1.17178
1.17172
1.17165
1.17158
1.1715
1.17143
1.17135
1.17127
1.17118
1.1711
1.17102
1.17094
1.17085
1.17077
1.1707
1.17062
1.17054
1.17047
1.1704
1.17034
1.17027
1.17021
1.17016
1.17011
1.17006
1.17001
1.16998
1.16994
1.16991
1.16988
1.16986
1.16984
1.16983
1.16982
1.16981
1.16981
1.16981
1.16982
1.16983
1.16985
1.16987
1.16989
1.16992
1.16995
1.16999
1.17003
1.17007
1.17011
1.17016
1.17021
1.17026
1.17032
1.17037
1.17043
1.17049
1.17055
1.17062
1.17068
1.17075
1.17081
1.17088
1.17095
1.17101
1.17108
1.17115
1.17121
1.17128
1.17134
1.17141
1.17147
1.17153
1.17159
1.17165
1.17171
1.17176
1.17182
1.17187
1.17192
1.17197
1.17202
1.17207
1.17211
1.17216
1.1722
1.17225
1.17229
1.17233
1.17237
1.17241
1.17245
1.17248
1.17252
1.17256
1.1726
1.17265
1.17269
1.17273
1.17278
1.17283
1.17288
1.17294
1.173
1.17306
1.17312
1.1732
1.17327
1.17335
1.17344
1.17354
1.17364
1.17375
1.17386
1.17399
1.17412
1.17426
1.17441
1.17457
1.17474
1.17492
1.17511
1.17531
1.17552
1.17574
1.17597
1.17622
1.17647
1.17674
1.17702
1.1773
1.1776
1.17791
1.17823
1.17856
1.1789
1.17925
1.1796
1.17997
1.18034
1.18071
1.1811
1.18148
1.18187
1.18227
1.18266
1.18306
1.18346
1.18385
1.18424
1.18463
1.18502
1.1854
1.18577
1.18614
1.1865
1.18685
1.18719
1.18752
1.18784
1.18815
1.18846
1.18875
1.18903
1.1893
1.18955
1.1898
1.19004
1.19026
1.19048
1.19068
1.19088
1.19107
1.19124
1.19141
1.19157
1.19172
1.19186
1.192
1.19212
1.19224
1.19235
1.19245
1.19255
1.19263
1.19271
1.19278
1.19285
1.19291
1.19296
1.193
1.19303
1.19306
1.19308
1.1931
1.19311
1.19311
1.19311
1.1931
1.19308
1.19307
1.19305
1.19302
1.19299
1.19296
1.19293
1.1929
1.19287
1.19284
1.19282
1.19279
1.19278
1.19276
1.19275
1.19275
1.19276
1.19277
1.19279
1.19283
1.19288
1.19294
1.19301
1.1931
1.1932
1.19332
1.19346
1.19362
1.19379
1.19399
1.19421
1.19445
1.19471
1.195
1.19532
1.19566
1.19603
1.19642
1.19685
1.1973
1.19779
1.1983
1.19885
1.19944
1.20006
1.20071
1.20141
1.20215
1.20292
1.20374
1.20461
1.20553
1.20651
1.20754
1.20864
1.20981
1.21106
1.2124
1.21385
1.21541
1.21712
1.21899
1.22107
1.22339
1.22602
1.22903
1.23252
1.23661
1.24141
1.24697
1.25316
1.25819
1.25835
1.14778
1.1473
1.14792
1.14937
1.15111
1.15268
1.15402
1.15512
1.15601
1.15672
1.1573
1.15776
1.15813
1.15844
1.15869
1.15889
1.15905
1.15918
1.15928
1.15936
1.15942
1.15947
1.1595
1.15952
1.15952
1.15952
1.15951
1.1595
1.15947
1.15945
1.15942
1.15938
1.15934
1.1593
1.15926
1.15921
1.15917
1.15912
1.15908
1.15903
1.15899
1.15894
1.1589
1.15886
1.15882
1.15879
1.15875
1.15873
1.1587
1.15868
1.15867
1.15866
1.15866
1.15866
1.15868
1.15869
1.15872
1.15875
1.1588
1.15885
1.15891
1.15898
1.15906
1.15915
1.15925
1.15936
1.15949
1.15962
1.15977
1.15992
1.16009
1.16026
1.16045
1.16065
1.16086
1.16108
1.16132
1.16156
1.16181
1.16207
1.16234
1.16261
1.1629
1.16319
1.16349
1.16379
1.1641
1.16442
1.16474
1.16506
1.16538
1.16571
1.16603
1.16636
1.16668
1.167
1.16731
1.16762
1.16793
1.16823
1.16852
1.16881
1.16908
1.16935
1.16961
1.16985
1.17009
1.17031
1.17052
1.17072
1.1709
1.17107
1.17122
1.17137
1.17149
1.1716
1.1717
1.17178
1.17185
1.1719
1.17194
1.17197
1.17199
1.17199
1.17198
1.17196
1.17194
1.1719
1.17186
1.17181
1.17175
1.17169
1.17162
1.17155
1.17147
1.1714
1.17132
1.17124
1.17115
1.17107
1.17099
1.17091
1.17083
1.17075
1.17067
1.1706
1.17052
1.17045
1.17038
1.17032
1.17026
1.1702
1.17014
1.17009
1.17005
1.17
1.16997
1.16993
1.1699
1.16987
1.16985
1.16984
1.16982
1.16981
1.16981
1.16981
1.16981
1.16982
1.16984
1.16985
1.16987
1.1699
1.16993
1.16996
1.16999
1.17003
1.17007
1.17012
1.17017
1.17022
1.17027
1.17032
1.17038
1.17044
1.1705
1.17056
1.17063
1.17069
1.17076
1.17082
1.17089
1.17096
1.17102
1.17109
1.17115
1.17122
1.17129
1.17135
1.17141
1.17148
1.17154
1.1716
1.17166
1.17171
1.17177
1.17182
1.17188
1.17193
1.17198
1.17203
1.17207
1.17212
1.17216
1.17221
1.17225
1.17229
1.17233
1.17237
1.17241
1.17245
1.17249
1.17252
1.17256
1.1726
1.17265
1.17269
1.17273
1.17278
1.17283
1.17288
1.17294
1.17299
1.17306
1.17312
1.17319
1.17327
1.17335
1.17344
1.17354
1.17364
1.17374
1.17386
1.17398
1.17412
1.17426
1.17441
1.17457
1.17474
1.17492
1.17511
1.17531
1.17552
1.17574
1.17598
1.17622
1.17648
1.17674
1.17702
1.17731
1.17761
1.17792
1.17824
1.17857
1.17891
1.17926
1.17962
1.17998
1.18035
1.18073
1.18111
1.1815
1.1819
1.18229
1.18269
1.18308
1.18348
1.18388
1.18427
1.18466
1.18504
1.18542
1.1858
1.18616
1.18652
1.18687
1.18721
1.18754
1.18786
1.18817
1.18847
1.18876
1.18904
1.18931
1.18956
1.18981
1.19004
1.19026
1.19048
1.19068
1.19088
1.19106
1.19124
1.1914
1.19156
1.19171
1.19185
1.19198
1.19211
1.19223
1.19233
1.19244
1.19253
1.19262
1.1927
1.19277
1.19283
1.19289
1.19294
1.19298
1.19301
1.19304
1.19306
1.19308
1.19308
1.19309
1.19308
1.19307
1.19306
1.19304
1.19302
1.19299
1.19296
1.19293
1.1929
1.19287
1.19284
1.19281
1.19278
1.19276
1.19274
1.19272
1.19271
1.19271
1.19272
1.19273
1.19275
1.19279
1.19283
1.19289
1.19297
1.19306
1.19316
1.19328
1.19342
1.19358
1.19375
1.19395
1.19417
1.19441
1.19468
1.19497
1.19528
1.19562
1.19599
1.19639
1.19682
1.19727
1.19776
1.19828
1.19883
1.19941
1.20003
1.20069
1.20138
1.20212
1.2029
1.20372
1.20458
1.2055
1.20647
1.2075
1.20859
1.20975
1.21099
1.21231
1.21373
1.21527
1.21694
1.21876
1.22076
1.22297
1.22545
1.22822
1.23135
1.23487
1.23874
1.24271
1.24629
1.24875
1.24809
1.15061
1.15012
1.15028
1.15105
1.15207
1.15316
1.1542
1.1551
1.15587
1.15652
1.15706
1.15751
1.15788
1.15819
1.15845
1.15866
1.15883
1.15897
1.15908
1.15917
1.15924
1.1593
1.15934
1.15936
1.15938
1.15938
1.15938
1.15937
1.15936
1.15933
1.15931
1.15928
1.15924
1.1592
1.15917
1.15912
1.15908
1.15904
1.159
1.15895
1.15891
1.15887
1.15883
1.15879
1.15875
1.15872
1.15869
1.15866
1.15864
1.15862
1.15861
1.1586
1.1586
1.15861
1.15862
1.15864
1.15867
1.1587
1.15875
1.1588
1.15886
1.15893
1.15901
1.1591
1.15921
1.15932
1.15944
1.15958
1.15972
1.15988
1.16005
1.16023
1.16042
1.16062
1.16083
1.16105
1.16128
1.16153
1.16178
1.16204
1.16231
1.16259
1.16288
1.16317
1.16347
1.16378
1.16409
1.16441
1.16473
1.16505
1.16538
1.1657
1.16603
1.16636
1.16668
1.167
1.16732
1.16763
1.16794
1.16824
1.16853
1.16882
1.1691
1.16936
1.16962
1.16986
1.1701
1.17032
1.17053
1.17073
1.17091
1.17108
1.17123
1.17137
1.1715
1.17161
1.1717
1.17178
1.17185
1.1719
1.17194
1.17196
1.17197
1.17197
1.17196
1.17194
1.17192
1.17188
1.17183
1.17178
1.17172
1.17166
1.17159
1.17152
1.17144
1.17137
1.17129
1.17121
1.17112
1.17104
1.17096
1.17088
1.1708
1.17072
1.17065
1.17057
1.1705
1.17043
1.17036
1.1703
1.17024
1.17018
1.17013
1.17008
1.17003
1.16999
1.16995
1.16992
1.16989
1.16987
1.16985
1.16983
1.16982
1.16981
1.16981
1.16981
1.16982
1.16982
1.16984
1.16986
1.16988
1.1699
1.16993
1.16996
1.17
1.17004
1.17008
1.17013
1.17018
1.17023
1.17028
1.17033
1.17039
1.17045
1.17051
1.17057
1.17064
1.1707
1.17077
1.17083
1.1709
1.17097
1.17103
1.1711
1.17117
1.17123
1.1713
1.17136
1.17142
1.17148
1.17155
1.17161
1.17166
1.17172
1.17178
1.17183
1.17188
1.17193
1.17198
1.17203
1.17208
1.17212
1.17217
1.17221
1.17225
1.17229
1.17233
1.17237
1.17241
1.17245
1.17249
1.17252
1.17256
1.1726
1.17264
1.17269
1.17273
1.17278
1.17283
1.17288
1.17293
1.17299
1.17305
1.17312
1.17319
1.17326
1.17335
1.17343
1.17353
1.17363
1.17374
1.17385
1.17398
1.17411
1.17425
1.1744
1.17456
1.17473
1.17491
1.1751
1.1753
1.17551
1.17573
1.17597
1.17621
1.17647
1.17674
1.17702
1.17731
1.17761
1.17792
1.17824
1.17857
1.17891
1.17926
1.17962
1.17999
1.18036
1.18074
1.18113
1.18152
1.18191
1.18231
1.18271
1.1831
1.1835
1.1839
1.18429
1.18468
1.18507
1.18545
1.18582
1.18619
1.18655
1.1869
1.18724
1.18757
1.18789
1.18819
1.18849
1.18878
1.18906
1.18932
1.18957
1.18982
1.19005
1.19027
1.19048
1.19068
1.19088
1.19106
1.19123
1.1914
1.19155
1.1917
1.19184
1.19197
1.1921
1.19221
1.19232
1.19242
1.19252
1.1926
1.19268
1.19275
1.19282
1.19287
1.19292
1.19296
1.193
1.19302
1.19304
1.19306
1.19306
1.19306
1.19306
1.19305
1.19303
1.19301
1.19299
1.19296
1.19293
1.1929
1.19287
1.19283
1.1928
1.19277
1.19274
1.19272
1.19269
1.19268
1.19267
1.19266
1.19267
1.19268
1.1927
1.19274
1.19278
1.19284
1.19291
1.193
1.1931
1.19322
1.19336
1.19352
1.19369
1.19389
1.19411
1.19435
1.19462
1.19491
1.19522
1.19556
1.19593
1.19633
1.19675
1.19721
1.19769
1.19821
1.19876
1.19935
1.19997
1.20062
1.20132
1.20205
1.20282
1.20364
1.2045
1.20541
1.20637
1.20739
1.20846
1.20961
1.21082
1.21212
1.2135
1.21499
1.2166
1.21834
1.22023
1.2223
1.22457
1.22706
1.22976
1.23265
1.2356
1.23839
1.24055
1.24165
1.24139
1.15256
1.15206
1.15205
1.15243
1.15305
1.15379
1.15454
1.15525
1.1559
1.15646
1.15694
1.15736
1.15771
1.15801
1.15826
1.15847
1.15864
1.15879
1.15891
1.159
1.15908
1.15914
1.15919
1.15922
1.15924
1.15925
1.15926
1.15925
1.15924
1.15922
1.1592
1.15917
1.15914
1.15911
1.15907
1.15903
1.15899
1.15895
1.15891
1.15887
1.15883
1.15879
1.15875
1.15872
1.15868
1.15865
1.15862
1.1586
1.15858
1.15856
1.15855
1.15854
1.15854
1.15855
1.15856
1.15858
1.15861
1.15864
1.15869
1.15874
1.1588
1.15887
1.15896
1.15905
1.15915
1.15926
1.15939
1.15952
1.15967
1.15983
1.16
1.16018
1.16037
1.16057
1.16079
1.16101
1.16124
1.16149
1.16174
1.162
1.16228
1.16256
1.16285
1.16314
1.16345
1.16376
1.16407
1.16439
1.16471
1.16504
1.16537
1.1657
1.16603
1.16635
1.16668
1.167
1.16732
1.16764
1.16795
1.16825
1.16854
1.16883
1.16911
1.16937
1.16963
1.16988
1.17011
1.17034
1.17055
1.17074
1.17092
1.17109
1.17124
1.17138
1.17151
1.17161
1.17171
1.17178
1.17185
1.1719
1.17193
1.17195
1.17196
1.17196
1.17195
1.17193
1.1719
1.17186
1.17181
1.17175
1.17169
1.17163
1.17156
1.17149
1.17141
1.17133
1.17126
1.17117
1.17109
1.17101
1.17093
1.17085
1.17077
1.17069
1.17062
1.17055
1.17047
1.17041
1.17034
1.17028
1.17022
1.17016
1.17011
1.17006
1.17002
1.16998
1.16994
1.16991
1.16988
1.16986
1.16984
1.16983
1.16982
1.16981
1.16981
1.16981
1.16982
1.16983
1.16984
1.16986
1.16988
1.16991
1.16994
1.16997
1.17001
1.17005
1.17009
1.17014
1.17019
1.17024
1.17029
1.17035
1.1704
1.17046
1.17053
1.17059
1.17065
1.17072
1.17078
1.17085
1.17091
1.17098
1.17105
1.17111
1.17118
1.17124
1.17131
1.17137
1.17144
1.1715
1.17156
1.17162
1.17167
1.17173
1.17179
1.17184
1.17189
1.17194
1.17199
1.17204
1.17208
1.17213
1.17217
1.17221
1.17226
1.1723
1.17233
1.17237
1.17241
1.17245
1.17249
1.17253
1.17256
1.1726
1.17264
1.17269
1.17273
1.17277
1.17282
1.17287
1.17293
1.17298
1.17305
1.17311
1.17318
1.17326
1.17334
1.17342
1.17352
1.17362
1.17373
1.17384
1.17396
1.1741
1.17424
1.17439
1.17455
1.17472
1.1749
1.17509
1.17529
1.1755
1.17572
1.17595
1.1762
1.17646
1.17672
1.177
1.17729
1.1776
1.17791
1.17823
1.17856
1.17891
1.17926
1.17962
1.17999
1.18036
1.18075
1.18113
1.18153
1.18192
1.18232
1.18272
1.18312
1.18352
1.18392
1.18432
1.18471
1.1851
1.18548
1.18585
1.18622
1.18658
1.18693
1.18727
1.18759
1.18791
1.18822
1.18852
1.1888
1.18908
1.18934
1.18959
1.18983
1.19006
1.19028
1.19049
1.19069
1.19088
1.19106
1.19123
1.19139
1.19155
1.1917
1.19183
1.19196
1.19209
1.1922
1.19231
1.19241
1.1925
1.19259
1.19267
1.19274
1.1928
1.19286
1.1929
1.19295
1.19298
1.19301
1.19302
1.19304
1.19304
1.19304
1.19304
1.19302
1.19301
1.19298
1.19296
1.19293
1.1929
1.19286
1.19283
1.1928
1.19276
1.19273
1.1927
1.19267
1.19264
1.19263
1.19261
1.19261
1.19261
1.19262
1.19264
1.19267
1.19272
1.19277
1.19284
1.19293
1.19303
1.19315
1.19329
1.19344
1.19362
1.19381
1.19403
1.19427
1.19454
1.19482
1.19514
1.19548
1.19584
1.19624
1.19666
1.19712
1.1976
1.19812
1.19867
1.19925
1.19987
1.20052
1.20121
1.20193
1.2027
1.20351
1.20436
1.20526
1.20621
1.20721
1.20827
1.20938
1.21057
1.21183
1.21316
1.21459
1.21612
1.21776
1.21953
1.22143
1.22347
1.22564
1.22793
1.23024
1.23246
1.23439
1.23576
1.2363
1.23608
1.15392
1.15348
1.15338
1.15355
1.15393
1.15442
1.15496
1.15551
1.15602
1.15649
1.15692
1.15729
1.15761
1.15788
1.15812
1.15833
1.1585
1.15864
1.15876
1.15886
1.15894
1.159
1.15905
1.15909
1.15912
1.15913
1.15914
1.15914
1.15913
1.15911
1.1591
1.15907
1.15904
1.15901
1.15898
1.15895
1.15891
1.15887
1.15883
1.15879
1.15875
1.15872
1.15868
1.15864
1.15861
1.15858
1.15855
1.15853
1.15851
1.15849
1.15848
1.15847
1.15847
1.15848
1.15849
1.15851
1.15854
1.15858
1.15862
1.15867
1.15874
1.15881
1.15889
1.15898
1.15909
1.1592
1.15933
1.15946
1.15961
1.15977
1.15994
1.16012
1.16031
1.16052
1.16073
1.16096
1.16119
1.16144
1.16169
1.16196
1.16223
1.16252
1.16281
1.16311
1.16341
1.16372
1.16404
1.16436
1.16469
1.16502
1.16535
1.16568
1.16601
1.16634
1.16667
1.167
1.16732
1.16764
1.16795
1.16825
1.16855
1.16884
1.16912
1.16938
1.16964
1.16989
1.17013
1.17035
1.17056
1.17076
1.17094
1.1711
1.17126
1.17139
1.17152
1.17162
1.17171
1.17179
1.17185
1.1719
1.17193
1.17195
1.17196
1.17195
1.17194
1.17191
1.17188
1.17184
1.17179
1.17173
1.17167
1.1716
1.17153
1.17146
1.17138
1.1713
1.17122
1.17114
1.17106
1.17098
1.1709
1.17082
1.17074
1.17067
1.17059
1.17052
1.17045
1.17038
1.17032
1.17026
1.1702
1.17015
1.1701
1.17005
1.17001
1.16997
1.16993
1.1699
1.16988
1.16985
1.16984
1.16982
1.16981
1.16981
1.16981
1.16981
1.16982
1.16983
1.16985
1.16987
1.16989
1.16992
1.16995
1.16998
1.17002
1.17006
1.1701
1.17015
1.1702
1.17025
1.1703
1.17036
1.17042
1.17048
1.17054
1.1706
1.17067
1.17073
1.1708
1.17086
1.17093
1.17099
1.17106
1.17113
1.17119
1.17126
1.17132
1.17139
1.17145
1.17151
1.17157
1.17163
1.17169
1.17174
1.1718
1.17185
1.1719
1.17195
1.172
1.17205
1.17209
1.17214
1.17218
1.17222
1.17226
1.1723
1.17234
1.17238
1.17241
1.17245
1.17249
1.17253
1.17256
1.1726
1.17264
1.17268
1.17273
1.17277
1.17282
1.17287
1.17292
1.17298
1.17304
1.1731
1.17317
1.17325
1.17333
1.17341
1.1735
1.1736
1.17371
1.17382
1.17395
1.17408
1.17422
1.17437
1.17453
1.17469
1.17487
1.17506
1.17526
1.17547
1.1757
1.17593
1.17618
1.17643
1.1767
1.17698
1.17727
1.17757
1.17789
1.17821
1.17855
1.17889
1.17924
1.17961
1.17998
1.18036
1.18074
1.18113
1.18153
1.18193
1.18233
1.18273
1.18313
1.18354
1.18394
1.18434
1.18473
1.18512
1.1855
1.18588
1.18625
1.18661
1.18696
1.1873
1.18763
1.18794
1.18825
1.18854
1.18883
1.1891
1.18936
1.18961
1.18985
1.19008
1.19029
1.1905
1.1907
1.19088
1.19106
1.19123
1.19139
1.19155
1.19169
1.19183
1.19196
1.19208
1.19219
1.1923
1.1924
1.19249
1.19258
1.19265
1.19272
1.19279
1.19284
1.19289
1.19293
1.19296
1.19299
1.19301
1.19302
1.19302
1.19302
1.19301
1.193
1.19298
1.19296
1.19293
1.1929
1.19286
1.19283
1.19279
1.19275
1.19272
1.19268
1.19265
1.19262
1.19259
1.19257
1.19255
1.19255
1.19254
1.19255
1.19257
1.1926
1.19264
1.1927
1.19276
1.19285
1.19295
1.19306
1.1932
1.19335
1.19352
1.19372
1.19393
1.19417
1.19443
1.19472
1.19503
1.19537
1.19573
1.19612
1.19655
1.197
1.19748
1.19799
1.19854
1.19911
1.19973
1.20037
1.20106
1.20178
1.20253
1.20333
1.20417
1.20506
1.20599
1.20697
1.208
1.20909
1.21023
1.21144
1.21273
1.21409
1.21553
1.21706
1.21868
1.2204
1.22221
1.22408
1.22598
1.22782
1.22949
1.23084
1.23173
1.23203
1.23172
1.15491
1.15454
1.1544
1.15446
1.15468
1.15501
1.1554
1.15581
1.15621
1.1566
1.15695
1.15727
1.15756
1.15781
1.15803
1.15822
1.15838
1.15852
1.15864
1.15874
1.15882
1.15888
1.15893
1.15897
1.159
1.15902
1.15903
1.15903
1.15902
1.15901
1.15899
1.15897
1.15895
1.15892
1.15889
1.15886
1.15882
1.15878
1.15875
1.15871
1.15867
1.15864
1.1586
1.15857
1.15853
1.1585
1.15848
1.15845
1.15843
1.15842
1.15841
1.1584
1.1584
1.15841
1.15842
1.15844
1.15847
1.15851
1.15855
1.1586
1.15867
1.15874
1.15882
1.15891
1.15902
1.15913
1.15926
1.1594
1.15954
1.1597
1.15987
1.16006
1.16025
1.16045
1.16067
1.1609
1.16113
1.16138
1.16164
1.1619
1.16218
1.16247
1.16276
1.16306
1.16337
1.16368
1.164
1.16433
1.16466
1.16499
1.16533
1.16566
1.166
1.16633
1.16666
1.16699
1.16731
1.16763
1.16795
1.16825
1.16855
1.16884
1.16912
1.16939
1.16965
1.1699
1.17014
1.17036
1.17057
1.17077
1.17095
1.17112
1.17127
1.17141
1.17153
1.17164
1.17173
1.1718
1.17186
1.1719
1.17193
1.17195
1.17195
1.17194
1.17193
1.1719
1.17186
1.17182
1.17176
1.17171
1.17164
1.17157
1.1715
1.17143
1.17135
1.17127
1.17119
1.17111
1.17103
1.17095
1.17087
1.17079
1.17071
1.17064
1.17056
1.17049
1.17042
1.17036
1.17029
1.17023
1.17018
1.17013
1.17008
1.17003
1.16999
1.16995
1.16992
1.16989
1.16987
1.16985
1.16983
1.16982
1.16981
1.16981
1.16981
1.16981
1.16982
1.16983
1.16985
1.16987
1.1699
1.16992
1.16996
1.16999
1.17003
1.17007
1.17012
1.17016
1.17021
1.17026
1.17032
1.17038
1.17043
1.17049
1.17056
1.17062
1.17068
1.17075
1.17081
1.17088
1.17095
1.17101
1.17108
1.17114
1.17121
1.17128
1.17134
1.1714
1.17147
1.17153
1.17159
1.17164
1.1717
1.17176
1.17181
1.17186
1.17192
1.17196
1.17201
1.17206
1.1721
1.17215
1.17219
1.17223
1.17227
1.17231
1.17235
1.17238
1.17242
1.17246
1.17249
1.17253
1.17256
1.1726
1.17264
1.17268
1.17272
1.17277
1.17281
1.17286
1.17291
1.17297
1.17303
1.17309
1.17316
1.17323
1.17331
1.1734
1.17349
1.17359
1.17369
1.1738
1.17393
1.17406
1.17419
1.17434
1.1745
1.17467
1.17485
1.17503
1.17523
1.17545
1.17567
1.1759
1.17615
1.1764
1.17667
1.17695
1.17724
1.17755
1.17786
1.17819
1.17852
1.17887
1.17922
1.17959
1.17996
1.18034
1.18073
1.18112
1.18152
1.18192
1.18233
1.18274
1.18314
1.18355
1.18396
1.18436
1.18475
1.18515
1.18553
1.18591
1.18628
1.18664
1.18699
1.18733
1.18766
1.18797
1.18828
1.18857
1.18886
1.18913
1.18938
1.18963
1.18987
1.19009
1.19031
1.19051
1.19071
1.19089
1.19107
1.19123
1.19139
1.19154
1.19169
1.19182
1.19195
1.19207
1.19218
1.19229
1.19239
1.19248
1.19256
1.19264
1.19271
1.19277
1.19283
1.19287
1.19291
1.19295
1.19297
1.19299
1.193
1.193
1.193
1.19299
1.19297
1.19295
1.19293
1.1929
1.19286
1.19283
1.19279
1.19275
1.19271
1.19267
1.19263
1.19259
1.19256
1.19253
1.19251
1.19249
1.19248
1.19247
1.19248
1.19249
1.19252
1.19256
1.19261
1.19267
1.19275
1.19285
1.19296
1.1931
1.19325
1.19341
1.19361
1.19382
1.19405
1.19431
1.19459
1.1949
1.19524
1.1956
1.19599
1.19641
1.19685
1.19733
1.19784
1.19838
1.19895
1.19956
1.2002
1.20087
1.20158
1.20233
1.20311
1.20394
1.20481
1.20572
1.20667
1.20767
1.20872
1.20983
1.21099
1.21221
1.21349
1.21484
1.21625
1.21773
1.21927
1.22086
1.22245
1.22402
1.22548
1.22674
1.22771
1.2283
1.22846
1.22812
1.15567
1.15535
1.1552
1.1552
1.15532
1.15554
1.15581
1.15611
1.15643
1.15674
1.15703
1.15731
1.15755
1.15778
1.15798
1.15815
1.1583
1.15843
1.15854
1.15864
1.15871
1.15878
1.15883
1.15887
1.15889
1.15891
1.15892
1.15893
1.15892
1.15891
1.1589
1.15888
1.15886
1.15883
1.1588
1.15877
1.15874
1.1587
1.15867
1.15863
1.1586
1.15856
1.15853
1.15849
1.15846
1.15843
1.15841
1.15838
1.15836
1.15835
1.15834
1.15833
1.15833
1.15834
1.15835
1.15837
1.1584
1.15843
1.15848
1.15853
1.15859
1.15867
1.15875
1.15884
1.15894
1.15906
1.15918
1.15932
1.15947
1.15963
1.1598
1.15998
1.16018
1.16038
1.1606
1.16083
1.16107
1.16131
1.16157
1.16184
1.16212
1.16241
1.1627
1.16301
1.16332
1.16363
1.16396
1.16429
1.16462
1.16495
1.16529
1.16563
1.16597
1.16631
1.16664
1.16697
1.1673
1.16762
1.16794
1.16825
1.16855
1.16884
1.16913
1.1694
1.16966
1.16991
1.17015
1.17037
1.17059
1.17078
1.17097
1.17114
1.17129
1.17142
1.17154
1.17165
1.17174
1.17181
1.17187
1.17191
1.17193
1.17195
1.17195
1.17194
1.17192
1.17189
1.17185
1.1718
1.17174
1.17168
1.17162
1.17155
1.17147
1.1714
1.17132
1.17124
1.17116
1.17108
1.171
1.17092
1.17084
1.17076
1.17068
1.17061
1.17053
1.17046
1.1704
1.17033
1.17027
1.17021
1.17016
1.17011
1.17006
1.17002
1.16998
1.16994
1.16991
1.16988
1.16986
1.16984
1.16983
1.16981
1.16981
1.16981
1.16981
1.16981
1.16982
1.16984
1.16986
1.16988
1.1699
1.16993
1.16997
1.17
1.17004
1.17008
1.17013
1.17018
1.17023
1.17028
1.17034
1.17039
1.17045