# vtk DataFile Version 2.0
LBE mesh
ASCII
DATASET STRUCTURED_POINTS
DIMENSIONS 400 100 1
ASPECT_RATIO 1 1 1
ORIGIN 0 0 0
POINT_DATA 40000
SCALARS rho double 1
LOOKUP_TABLE default
1.18518
1.28079
1.30791
1.3125
1.31456
1.31659
1.31812
1.3191
1.31976
1.32024
1.32062
1.32092
1.32115
1.32134
1.32149
1.32162
1.32172
1.3218
1.32186
1.32191
1.32194
1.32197
1.32198
1.32198
1.32198
1.32196
1.32194
1.32192
1.32188
1.32184
1.3218
1.32175
1.3217
1.32164
1.32158
1.32152
1.32145
1.32139
1.32131
1.32124
1.32117
1.3211
1.32102
1.32095
1.32088
1.32081
1.32074
1.32067
1.3206
1.32054
1.32048
1.32043
1.32038
1.32033
1.32029
1.32026
1.32023
1.3202
1.32019
1.32018
1.32018
1.32018
1.3202
1.32022
1.32025
1.32029
1.32034
1.3204
1.32046
1.32054
1.32062
1.32072
1.32082
1.32093
1.32105
1.32118
1.32132
1.32147
1.32162
1.32178
1.32195
1.32213
1.32232
1.32251
1.32271
1.32292
1.32313
1.32335
1.32357
1.32379
1.32403
1.32426
1.3245
1.32474
1.32498
1.32523
1.32547
1.32571
1.32596
1.3262
1.32644
1.32668
1.32691
1.32714
1.32737
1.32759
1.32781
1.32802
1.32822
1.32841
1.3286
1.32878
1.32895
1.32911
1.32925
1.32939
1.32952
1.32964
1.32975
1.32984
1.32993
1.33
1.33006
1.33011
1.33015
1.33019
1.33021
1.33022
1.33023
1.33022
1.33021
1.33019
1.33017
1.33013
1.3301
1.33006
1.33001
1.32996
1.3299
1.32985
1.32979
1.32972
1.32966
1.32959
1.32952
1.32945
1.32938
1.32931
1.32924
1.32916
1.32909
1.32902
1.32894
1.32887
1.3288
1.32873
1.32865
1.32858
1.32851
1.32844
1.32837
1.3283
1.32823
1.32816
1.32809
1.32803
1.32796
1.32789
1.32783
1.32776
1.3277
1.32763
1.32757
1.32751
1.32745
1.32739
1.32733
1.32727
1.32721
1.32715
1.32709
1.32703
1.32698
1.32692
1.32687
1.32681
1.32676
1.32671
1.32666
1.3266
1.32655
1.32651
1.32646
1.32641
1.32637
1.32632
1.32628
1.32624
1.3262
1.32616
1.32612
1.32609
1.32605
1.32602
1.32599
1.32597
1.32594
1.32592
1.3259
1.32588
1.32587
1.32586
1.32585
1.32584
1.32584
1.32584
1.32585
1.32586
1.32587
1.32589
1.32591
1.32594
1.32597
1.326
1.32604
1.32609
1.32614
1.3262
1.32627
1.32634
1.32642
1.3265
1.32659
1.32669
1.32679
1.3269
1.32702
1.32715
1.32729
1.32743
1.32758
1.32774
1.32791
1.32809
1.32827
1.32846
1.32867
1.32888
1.3291
1.32933
1.32956
1.32981
1.33006
1.33033
1.3306
1.33088
1.33116
1.33146
1.33176
1.33207
1.33239
1.33271
1.33303
1.33337
1.33371
1.33405
1.33439
1.33474
1.33509
1.33544
1.33579
1.33615
1.3365
1.33684
1.33719
1.33753
1.33787
1.3382
1.33853
1.33885
1.33916
1.33946
1.33976
1.34004
1.34031
1.34058
1.34083
1.34107
1.3413
1.34152
1.34172
1.34192
1.3421
1.34228
1.34244
1.34259
1.34273
1.34287
1.34299
1.3431
1.34321
1.34331
1.3434
1.34348
1.34356
1.34363
1.34369
1.34375
1.3438
1.34385
1.3439
1.34394
1.34398
1.34401
1.34404
1.34407
1.34409
1.34411
1.34413
1.34415
1.34417
1.34418
1.34419
1.3442
1.34421
1.34422
1.34423
1.34423
1.34424
1.34425
1.34426
1.34427
1.34428
1.34429
1.34431
1.34433
1.34435
1.34438
1.34441
1.34445
1.3445
1.34455
1.34461
1.34468
1.34476
1.34485
1.34496
1.34507
1.3452
1.34534
1.3455
1.34567
1.34586
1.34607
1.34629
1.34654
1.3468
1.34709
1.3474
1.34773
1.34809
1.34847
1.34888
1.34931
1.34977
1.35026
1.35079
1.35134
1.35192
1.35254
1.35319
1.35388
1.35461
1.35538
1.35619
1.35705
1.35795
1.35891
1.35992
1.36098
1.36212
1.36332
1.36461
1.36598
1.36745
1.36904
1.37076
1.37263
1.37469
1.37697
1.37953
1.38244
1.38581
1.38979
1.39464
1.4009
1.4096
1.42181
1.44018
1.47844
1.27284
1.28078
1.29387
1.30564
1.31164
1.31454
1.31631
1.3176
1.31856
1.31927
1.3198
1.32022
1.32055
1.32081
1.32103
1.3212
1.32135
1.32146
1.32156
1.32163
1.32169
1.32173
1.32176
1.32178
1.32179
1.32179
1.32178
1.32176
1.32174
1.32171
1.32167
1.32163
1.32158
1.32153
1.32148
1.32142
1.32136
1.32129
1.32123
1.32116
1.32109
1.32102
1.32095
1.32088
1.32081
1.32075
1.32068
1.32061
1.32055
1.32049
1.32044
1.32038
1.32034
1.32029
1.32025
1.32022
1.32019
1.32017
1.32016
1.32015
1.32015
1.32016
1.32018
1.3202
1.32024
1.32028
1.32033
1.32039
1.32046
1.32054
1.32062
1.32072
1.32082
1.32094
1.32106
1.32119
1.32133
1.32148
1.32163
1.3218
1.32197
1.32215
1.32233
1.32253
1.32273
1.32293
1.32315
1.32336
1.32359
1.32381
1.32405
1.32428
1.32452
1.32476
1.325
1.32524
1.32549
1.32573
1.32597
1.32622
1.32645
1.32669
1.32692
1.32715
1.32738
1.3276
1.32781
1.32802
1.32822
1.32841
1.3286
1.32877
1.32894
1.3291
1.32924
1.32938
1.32951
1.32962
1.32973
1.32982
1.3299
1.32998
1.33004
1.33009
1.33013
1.33016
1.33018
1.33019
1.3302
1.33019
1.33018
1.33016
1.33013
1.3301
1.33007
1.33003
1.32998
1.32993
1.32987
1.32982
1.32976
1.3297
1.32963
1.32956
1.3295
1.32943
1.32936
1.32929
1.32921
1.32914
1.32907
1.329
1.32892
1.32885
1.32878
1.32871
1.32864
1.32856
1.32849
1.32842
1.32835
1.32828
1.32822
1.32815
1.32808
1.32801
1.32795
1.32788
1.32781
1.32775
1.32769
1.32762
1.32756
1.3275
1.32744
1.32738
1.32732
1.32726
1.3272
1.32714
1.32708
1.32703
1.32697
1.32691
1.32686
1.32681
1.32675
1.3267
1.32665
1.3266
1.32655
1.3265
1.32645
1.32641
1.32636
1.32632
1.32628
1.32623
1.32619
1.32616
1.32612
1.32609
1.32605
1.32602
1.32599
1.32597
1.32594
1.32592
1.3259
1.32588
1.32587
1.32586
1.32585
1.32584
1.32584
1.32584
1.32585
1.32586
1.32587
1.32589
1.32592
1.32594
1.32597
1.32601
1.32605
1.3261
1.32616
1.32622
1.32628
1.32635
1.32643
1.32651
1.32661
1.3267
1.32681
1.32692
1.32704
1.32717
1.32731
1.32745
1.3276
1.32776
1.32793
1.32811
1.3283
1.32849
1.32869
1.32891
1.32913
1.32936
1.32959
1.32984
1.3301
1.33036
1.33063
1.33091
1.3312
1.33149
1.3318
1.3321
1.33242
1.33274
1.33307
1.3334
1.33374
1.33408
1.33443
1.33477
1.33512
1.33547
1.33582
1.33617
1.33652
1.33687
1.33722
1.33756
1.33789
1.33822
1.33855
1.33886
1.33917
1.33947
1.33976
1.34005
1.34032
1.34058
1.34083
1.34107
1.3413
1.34151
1.34172
1.34191
1.3421
1.34227
1.34243
1.34258
1.34272
1.34285
1.34297
1.34309
1.34319
1.34329
1.34338
1.34346
1.34354
1.34361
1.34368
1.34374
1.34379
1.34384
1.34388
1.34393
1.34396
1.344
1.34403
1.34405
1.34408
1.3441
1.34412
1.34414
1.34415
1.34417
1.34418
1.34419
1.3442
1.34421
1.34421
1.34422
1.34423
1.34424
1.34425
1.34426
1.34427
1.34428
1.3443
1.34432
1.34435
1.34438
1.34441
1.34445
1.3445
1.34455
1.34462
1.34469
1.34477
1.34486
1.34497
1.34509
1.34522
1.34536
1.34552
1.3457
1.34589
1.3461
1.34633
1.34658
1.34685
1.34714
1.34745
1.34778
1.34814
1.34853
1.34894
1.34938
1.34984
1.35034
1.35086
1.35142
1.35201
1.35263
1.35329
1.35399
1.35472
1.3555
1.35631
1.35718
1.35809
1.35905
1.36007
1.36115
1.3623
1.36352
1.36482
1.36622
1.36771
1.36933
1.37109
1.37301
1.37512
1.37748
1.38014
1.38318
1.38673
1.39097
1.3962
1.40281
1.41143
1.42411
1.44614
1.48065
1.29435
1.29027
1.29847
1.30543
1.30965
1.3127
1.31491
1.31646
1.31758
1.31842
1.31907
1.31959
1.31999
1.32032
1.32059
1.32081
1.32099
1.32114
1.32126
1.32136
1.32144
1.3215
1.32155
1.32158
1.3216
1.32161
1.32162
1.32161
1.32159
1.32157
1.32154
1.32151
1.32146
1.32142
1.32137
1.32132
1.32126
1.3212
1.32114
1.32108
1.32101
1.32094
1.32088
1.32081
1.32074
1.32068
1.32062
1.32055
1.32049
1.32044
1.32038
1.32033
1.32029
1.32025
1.32021
1.32018
1.32016
1.32014
1.32013
1.32012
1.32012
1.32014
1.32015
1.32018
1.32022
1.32026
1.32031
1.32038
1.32045
1.32052
1.32061
1.32071
1.32082
1.32093
1.32106
1.32119
1.32133
1.32148
1.32164
1.3218
1.32197
1.32215
1.32234
1.32254
1.32274
1.32295
1.32316
1.32338
1.3236
1.32383
1.32406
1.3243
1.32453
1.32478
1.32502
1.32526
1.3255
1.32575
1.32599
1.32623
1.32647
1.32671
1.32694
1.32717
1.32739
1.32761
1.32782
1.32803
1.32823
1.32842
1.3286
1.32878
1.32894
1.3291
1.32924
1.32938
1.3295
1.32962
1.32972
1.32981
1.32989
1.32996
1.33002
1.33007
1.33011
1.33014
1.33016
1.33017
1.33017
1.33017
1.33015
1.33013
1.33011
1.33008
1.33004
1.33
1.32995
1.3299
1.32985
1.32979
1.32973
1.32967
1.3296
1.32954
1.32947
1.3294
1.32933
1.32926
1.32919
1.32912
1.32905
1.32898
1.3289
1.32883
1.32876
1.32869
1.32862
1.32855
1.32848
1.32841
1.32834
1.32827
1.3282
1.32813
1.32806
1.328
1.32793
1.32787
1.3278
1.32774
1.32767
1.32761
1.32755
1.32749
1.32743
1.32737
1.32731
1.32725
1.32719
1.32713
1.32707
1.32702
1.32696
1.32691
1.32685
1.3268
1.32674
1.32669
1.32664
1.32659
1.32654
1.32649
1.32645
1.3264
1.32636
1.32631
1.32627
1.32623
1.32619
1.32615
1.32612
1.32608
1.32605
1.32602
1.32599
1.32596
1.32594
1.32592
1.3259
1.32588
1.32587
1.32586
1.32585
1.32584
1.32584
1.32584
1.32585
1.32586
1.32587
1.32589
1.32592
1.32594
1.32598
1.32601
1.32606
1.32611
1.32616
1.32622
1.32629
1.32636
1.32644
1.32652
1.32661
1.32671
1.32682
1.32693
1.32705
1.32718
1.32732
1.32746
1.32762
1.32778
1.32795
1.32813
1.32831
1.32851
1.32871
1.32892
1.32915
1.32938
1.32961
1.32986
1.33012
1.33038
1.33065
1.33094
1.33122
1.33152
1.33182
1.33213
1.33245
1.33277
1.3331
1.33343
1.33377
1.33411
1.33446
1.3348
1.33515
1.3355
1.33585
1.3362
1.33655
1.3369
1.33724
1.33758
1.33792
1.33825
1.33857
1.33889
1.33919
1.33949
1.33978
1.34006
1.34033
1.34059
1.34084
1.34108
1.3413
1.34152
1.34172
1.34191
1.3421
1.34227
1.34243
1.34258
1.34272
1.34285
1.34297
1.34308
1.34318
1.34328
1.34337
1.34345
1.34353
1.3436
1.34366
1.34372
1.34378
1.34383
1.34387
1.34391
1.34395
1.34398
1.34401
1.34404
1.34407
1.34409
1.34411
1.34413
1.34414
1.34416
1.34417
1.34418
1.34419
1.3442
1.3442
1.34421
1.34422
1.34423
1.34424
1.34425
1.34426
1.34427
1.34429
1.34431
1.34434
1.34437
1.3444
1.34445
1.34449
1.34455
1.34461
1.34469
1.34477
1.34487
1.34497
1.34509
1.34522
1.34537
1.34553
1.34571
1.3459
1.34611
1.34635
1.3466
1.34687
1.34716
1.34747
1.34781
1.34818
1.34856
1.34898
1.34942
1.34989
1.35038
1.35091
1.35147
1.35207
1.35269
1.35335
1.35405
1.35479
1.35557
1.35639
1.35726
1.35818
1.35915
1.36017
1.36126
1.36241
1.36364
1.36495
1.36635
1.36786
1.36948
1.37125
1.37319
1.37532
1.3777
1.38037
1.38343
1.38698
1.39116
1.39623
1.40257
1.41079
1.42112
1.43236
1.44269
1.30213
1.30089
1.30332
1.30617
1.30953
1.31226
1.31423
1.31572
1.31687
1.31778
1.31849
1.31906
1.31952
1.3199
1.32021
1.32046
1.32067
1.32085
1.32099
1.32111
1.32121
1.32129
1.32135
1.3214
1.32143
1.32145
1.32146
1.32146
1.32145
1.32144
1.32142
1.32139
1.32135
1.32131
1.32127
1.32122
1.32116
1.32111
1.32105
1.32099
1.32093
1.32087
1.3208
1.32074
1.32067
1.32061
1.32055
1.32049
1.32043
1.32038
1.32033
1.32028
1.32023
1.3202
1.32016
1.32013
1.32011
1.32009
1.32008
1.32008
1.32009
1.3201
1.32012
1.32015
1.32019
1.32023
1.32029
1.32035
1.32042
1.3205
1.32059
1.32069
1.3208
1.32092
1.32104
1.32118
1.32132
1.32147
1.32163
1.3218
1.32197
1.32215
1.32234
1.32254
1.32274
1.32295
1.32316
1.32338
1.32361
1.32384
1.32407
1.32431
1.32455
1.32479
1.32503
1.32528
1.32552
1.32576
1.32601
1.32625
1.32649
1.32672
1.32695
1.32718
1.32741
1.32762
1.32784
1.32804
1.32824
1.32843
1.32861
1.32879
1.32895
1.32911
1.32925
1.32938
1.32951
1.32962
1.32972
1.32981
1.32989
1.32996
1.33001
1.33006
1.3301
1.33013
1.33014
1.33015
1.33015
1.33015
1.33013
1.33011
1.33009
1.33005
1.33002
1.32997
1.32993
1.32988
1.32982
1.32976
1.3297
1.32964
1.32958
1.32951
1.32944
1.32938
1.32931
1.32924
1.32917
1.3291
1.32902
1.32895
1.32888
1.32881
1.32874
1.32867
1.3286
1.32853
1.32846
1.32839
1.32832
1.32825
1.32818
1.32812
1.32805
1.32798
1.32792
1.32785
1.32779
1.32772
1.32766
1.3276
1.32754
1.32748
1.32741
1.32735
1.32729
1.32724
1.32718
1.32712
1.32706
1.32701
1.32695
1.3269
1.32684
1.32679
1.32674
1.32668
1.32663
1.32658
1.32653
1.32649
1.32644
1.32639
1.32635
1.3263
1.32626
1.32622
1.32618
1.32614
1.32611
1.32607
1.32604
1.32601
1.32598
1.32596
1.32593
1.32591
1.32589
1.32587
1.32586
1.32585
1.32584
1.32584
1.32584
1.32584
1.32585
1.32586
1.32587
1.32589
1.32591
1.32594
1.32597
1.32601
1.32605
1.3261
1.32616
1.32622
1.32628
1.32636
1.32644
1.32652
1.32661
1.32671
1.32682
1.32693
1.32706
1.32719
1.32732
1.32747
1.32762
1.32778
1.32795
1.32813
1.32832
1.32852
1.32872
1.32893
1.32916
1.32939
1.32963
1.32988
1.33013
1.3304
1.33067
1.33095
1.33124
1.33154
1.33184
1.33215
1.33247
1.33279
1.33312
1.33346
1.33379
1.33414
1.33448
1.33483
1.33518
1.33553
1.33588
1.33623
1.33658
1.33693
1.33727
1.33761
1.33795
1.33828
1.3386
1.33891
1.33922
1.33952
1.33981
1.34009
1.34035
1.34061
1.34086
1.3411
1.34132
1.34153
1.34173
1.34193
1.3421
1.34227
1.34243
1.34258
1.34272
1.34285
1.34297
1.34308
1.34318
1.34328
1.34337
1.34345
1.34352
1.34359
1.34366
1.34371
1.34377
1.34382
1.34386
1.3439
1.34394
1.34397
1.344
1.34403
1.34406
1.34408
1.3441
1.34412
1.34413
1.34415
1.34416
1.34417
1.34418
1.34419
1.34419
1.3442
1.34421
1.34422
1.34423
1.34424
1.34425
1.34426
1.34428
1.3443
1.34433
1.34436
1.34439
1.34443
1.34448
1.34454
1.3446
1.34468
1.34476
1.34486
1.34496
1.34508
1.34522
1.34536
1.34553
1.3457
1.3459
1.34611
1.34634
1.3466
1.34687
1.34716
1.34748
1.34782
1.34818
1.34857
1.34899
1.34943
1.3499
1.3504
1.35093
1.3515
1.35209
1.35272
1.35338
1.35408
1.35482
1.3556
1.35643
1.3573
1.35822
1.35919
1.36021
1.3613
1.36245
1.36368
1.36498
1.36638
1.36788
1.3695
1.37126
1.37318
1.37529
1.37762
1.38024
1.38321
1.3866
1.39055
1.39517
1.4006
1.4069
1.41386
1.41952
1.41962
1.30678
1.30634
1.30686
1.30847
1.31057
1.31244
1.31405
1.31539
1.31648
1.31736
1.31807
1.31866
1.31914
1.31954
1.31988
1.32015
1.32039
1.32058
1.32075
1.32088
1.321
1.32109
1.32116
1.32122
1.32126
1.32129
1.32131
1.32132
1.32132
1.32131
1.32129
1.32127
1.32124
1.3212
1.32116
1.32112
1.32107
1.32102
1.32096
1.32091
1.32085
1.32079
1.32072
1.32066
1.3206
1.32054
1.32048
1.32042
1.32037
1.32031
1.32026
1.32022
1.32018
1.32014
1.32011
1.32008
1.32006
1.32005
1.32004
1.32004
1.32004
1.32006
1.32008
1.32011
1.32015
1.3202
1.32025
1.32032
1.32039
1.32048
1.32057
1.32067
1.32078
1.3209
1.32102
1.32116
1.3213
1.32146
1.32162
1.32179
1.32196
1.32215
1.32234
1.32253
1.32274
1.32295
1.32316
1.32339
1.32361
1.32384
1.32408
1.32432
1.32456
1.3248
1.32504
1.32529
1.32553
1.32578
1.32602
1.32626
1.3265
1.32674
1.32697
1.3272
1.32742
1.32764
1.32785
1.32806
1.32826
1.32845
1.32863
1.3288
1.32897
1.32912
1.32926
1.3294
1.32952
1.32963
1.32973
1.32982
1.32989
1.32996
1.33001
1.33006
1.33009
1.33012
1.33013
1.33014
1.33014
1.33013
1.33012
1.3301
1.33007
1.33003
1.32999
1.32995
1.3299
1.32985
1.3298
1.32974
1.32968
1.32962
1.32955
1.32949
1.32942
1.32935
1.32928
1.32921
1.32914
1.32907
1.329
1.32893
1.32886
1.32879
1.32872
1.32865
1.32858
1.32851
1.32844
1.32837
1.3283
1.32823
1.32816
1.3281
1.32803
1.32797
1.3279
1.32784
1.32777
1.32771
1.32765
1.32759
1.32752
1.32746
1.3274
1.32734
1.32728
1.32722
1.32717
1.32711
1.32705
1.327
1.32694
1.32689
1.32683
1.32678
1.32673
1.32667
1.32662
1.32657
1.32652
1.32648
1.32643
1.32638
1.32634
1.3263
1.32625
1.32621
1.32617
1.32614
1.3261
1.32606
1.32603
1.326
1.32597
1.32595
1.32592
1.3259
1.32588
1.32586
1.32585
1.32584
1.32583
1.32583
1.32583
1.32583
1.32584
1.32585
1.32586
1.32588
1.3259
1.32593
1.32596
1.326
1.32605
1.3261
1.32615
1.32621
1.32628
1.32635
1.32643
1.32651
1.32661
1.32671
1.32681
1.32693
1.32705
1.32718
1.32732
1.32746
1.32762
1.32778
1.32795
1.32813
1.32832
1.32852
1.32872
1.32893
1.32916
1.32939
1.32963
1.32988
1.33014
1.3304
1.33068
1.33096
1.33125
1.33155
1.33185
1.33217
1.33248
1.33281
1.33314
1.33347
1.33381
1.33416
1.3345
1.33485
1.3352
1.33556
1.33591
1.33626
1.33661
1.33696
1.3373
1.33764
1.33798
1.33831
1.33863
1.33895
1.33925
1.33955
1.33984
1.34012
1.34038
1.34064
1.34089
1.34112
1.34134
1.34156
1.34176
1.34194
1.34212
1.34229
1.34244
1.34259
1.34273
1.34285
1.34297
1.34308
1.34318
1.34328
1.34337
1.34345
1.34352
1.34359
1.34365
1.34371
1.34376
1.34381
1.34386
1.3439
1.34393
1.34397
1.344
1.34402
1.34405
1.34407
1.34409
1.34411
1.34412
1.34414
1.34415
1.34416
1.34417
1.34418
1.34418
1.34419
1.3442
1.34421
1.34421
1.34422
1.34424
1.34425
1.34427
1.34429
1.34431
1.34434
1.34438
1.34442
1.34447
1.34452
1.34459
1.34466
1.34474
1.34484
1.34494
1.34506
1.3452
1.34534
1.34551
1.34569
1.34588
1.3461
1.34633
1.34658
1.34685
1.34715
1.34746
1.34781
1.34817
1.34856
1.34898
1.34942
1.34989
1.35039
1.35092
1.35149
1.35208
1.35271
1.35337
1.35408
1.35481
1.3556
1.35642
1.35729
1.3582
1.35917
1.36019
1.36127
1.36242
1.36363
1.36493
1.36631
1.36779
1.36939
1.37111
1.37298
1.37503
1.37728
1.37978
1.38257
1.3857
1.38923
1.39321
1.39758
1.40207
1.40609
1.40882
1.40808
1.31019
1.30959
1.30968
1.31058
1.31176
1.31305
1.3143
1.3154
1.31634
1.31714
1.31781
1.31838
1.31886
1.31927
1.31961
1.3199
1.32015
1.32035
1.32053
1.32068
1.3208
1.3209
1.32099
1.32105
1.32111
1.32114
1.32117
1.32119
1.32119
1.32119
1.32118
1.32116
1.32113
1.3211
1.32106
1.32102
1.32098
1.32093
1.32087
1.32082
1.32076
1.32071
1.32065
1.32059
1.32053
1.32047
1.32041
1.32035
1.3203
1.32025
1.3202
1.32016
1.32011
1.32008
1.32005
1.32002
1.32
1.31999
1.31998
1.31998
1.31999
1.32001
1.32003
1.32006
1.3201
1.32015
1.32021
1.32028
1.32035
1.32044
1.32053
1.32064
1.32075
1.32087
1.321
1.32113
1.32128
1.32144
1.3216
1.32177
1.32195
1.32213
1.32232
1.32252
1.32273
1.32294
1.32316
1.32338
1.32361
1.32384
1.32408
1.32432
1.32456
1.32481
1.32505
1.3253
1.32554
1.32579
1.32604
1.32628
1.32652
1.32676
1.32699
1.32722
1.32744
1.32766
1.32788
1.32808
1.32828
1.32847
1.32865
1.32883
1.32899
1.32914
1.32928
1.32942
1.32954
1.32965
1.32974
1.32983
1.3299
1.32997
1.33002
1.33006
1.33009
1.33012
1.33013
1.33014
1.33013
1.33012
1.3301
1.33008
1.33005
1.33002
1.32997
1.32993
1.32988
1.32983
1.32977
1.32971
1.32965
1.32959
1.32953
1.32946
1.32939
1.32933
1.32926
1.32919
1.32912
1.32905
1.32897
1.3289
1.32883
1.32876
1.32869
1.32862
1.32855
1.32848
1.32842
1.32835
1.32828
1.32821
1.32815
1.32808
1.32801
1.32795
1.32788
1.32782
1.32776
1.32769
1.32763
1.32757
1.32751
1.32745
1.32739
1.32733
1.32727
1.32721
1.32715
1.3271
1.32704
1.32698
1.32693
1.32687
1.32682
1.32677
1.32672
1.32666
1.32661
1.32656
1.32651
1.32647
1.32642
1.32637
1.32633
1.32628
1.32624
1.3262
1.32616
1.32612
1.32609
1.32605
1.32602
1.32599
1.32596
1.32593
1.32591
1.32589
1.32587
1.32585
1.32584
1.32583
1.32582
1.32582
1.32581
1.32582
1.32582
1.32583
1.32585
1.32587
1.32589
1.32592
1.32595
1.32599
1.32603
1.32608
1.32613
1.3262
1.32626
1.32633
1.32641
1.3265
1.32659
1.32669
1.3268
1.32691
1.32704
1.32717
1.3273
1.32745
1.32761
1.32777
1.32794
1.32812
1.32831
1.32851
1.32871
1.32893
1.32915
1.32938
1.32962
1.32987
1.33013
1.3304
1.33068
1.33096
1.33125
1.33155
1.33186
1.33217
1.33249
1.33282
1.33315
1.33349
1.33383
1.33417
1.33452
1.33487
1.33523
1.33558
1.33593
1.33629
1.33664
1.33699
1.33734
1.33768
1.33801
1.33835
1.33867
1.33898
1.33929
1.33959
1.33988
1.34016
1.34042
1.34068
1.34092
1.34116
1.34138
1.34159
1.34178
1.34197
1.34215
1.34231
1.34246
1.34261
1.34274
1.34287
1.34298
1.34309
1.34319
1.34328
1.34337
1.34345
1.34352
1.34359
1.34365
1.34371
1.34376
1.34381
1.34385
1.34389
1.34393
1.34396
1.34399
1.34402
1.34404
1.34406
1.34408
1.3441
1.34411
1.34413
1.34414
1.34415
1.34416
1.34417
1.34417
1.34418
1.34419
1.34419
1.3442
1.34421
1.34422
1.34423
1.34425
1.34427
1.34429
1.34432
1.34436
1.3444
1.34444
1.3445
1.34456
1.34463
1.34472
1.34481
1.34492
1.34504
1.34517
1.34531
1.34548
1.34565
1.34585
1.34606
1.34629
1.34655
1.34682
1.34711
1.34743
1.34777
1.34813
1.34852
1.34894
1.34938
1.34985
1.35035
1.35088
1.35145
1.35204
1.35267
1.35333
1.35403
1.35477
1.35554
1.35636
1.35723
1.35813
1.35909
1.36011
1.36118
1.36231
1.36351
1.36478
1.36614
1.36759
1.36914
1.37081
1.37261
1.37457
1.3767
1.37904
1.38159
1.3844
1.38745
1.39071
1.39403
1.39718
1.39959
1.40081
1.40052
1.31251
1.31186
1.31182
1.31225
1.31296
1.31384
1.31474
1.31561
1.31639
1.31709
1.31769
1.31822
1.31868
1.31907
1.31941
1.3197
1.31995
1.32016
1.32034
1.3205
1.32063
1.32074
1.32083
1.3209
1.32096
1.32101
1.32104
1.32106
1.32107
1.32107
1.32106
1.32105
1.32103
1.321
1.32097
1.32093
1.32088
1.32084
1.32079
1.32074
1.32068
1.32063
1.32057
1.32051
1.32045
1.32039
1.32034
1.32028
1.32023
1.32018
1.32013
1.32009
1.32005
1.32001
1.31998
1.31996
1.31994
1.31993
1.31992
1.31993
1.31993
1.31995
1.31998
1.32001
1.32005
1.3201
1.32016
1.32023
1.32031
1.3204
1.32049
1.3206
1.32071
1.32083
1.32096
1.3211
1.32125
1.32141
1.32157
1.32174
1.32192
1.32211
1.3223
1.3225
1.32271
1.32293
1.32315
1.32337
1.3236
1.32384
1.32408
1.32432
1.32456
1.32481
1.32506
1.32531
1.32555
1.3258
1.32605
1.32629
1.32654
1.32678
1.32701
1.32724
1.32747
1.32769
1.3279
1.32811
1.32831
1.3285
1.32868
1.32885
1.32902
1.32917
1.32931
1.32944
1.32956
1.32967
1.32976
1.32985
1.32992
1.32998
1.33003
1.33007
1.3301
1.33012
1.33013
1.33014
1.33013
1.33012
1.3301
1.33007
1.33004
1.33
1.32996
1.32991
1.32986
1.32981
1.32975
1.32969
1.32963
1.32957
1.3295
1.32944
1.32937
1.3293
1.32923
1.32916
1.32909
1.32902
1.32895
1.32888
1.32881
1.32874
1.32867
1.3286
1.32853
1.32846
1.32839
1.32833
1.32826
1.32819
1.32813
1.32806
1.32799
1.32793
1.32787
1.3278
1.32774
1.32768
1.32762
1.32755
1.32749
1.32743
1.32737
1.32732
1.32726
1.3272
1.32714
1.32708
1.32703
1.32697
1.32692
1.32686
1.32681
1.32676
1.3267
1.32665
1.3266
1.32655
1.3265
1.32645
1.32641
1.32636
1.32632
1.32627
1.32623
1.32619
1.32615
1.32611
1.32607
1.32604
1.32601
1.32598
1.32595
1.32592
1.3259
1.32587
1.32585
1.32584
1.32582
1.32581
1.3258
1.3258
1.3258
1.3258
1.3258
1.32582
1.32583
1.32585
1.32587
1.3259
1.32593
1.32597
1.32601
1.32606
1.32611
1.32617
1.32624
1.32631
1.32639
1.32648
1.32657
1.32667
1.32678
1.32689
1.32701
1.32715
1.32728
1.32743
1.32758
1.32775
1.32792
1.3281
1.32829
1.32849
1.32869
1.32891
1.32913
1.32937
1.32961
1.32986
1.33012
1.33039
1.33066
1.33095
1.33124
1.33154
1.33185
1.33217
1.33249
1.33282
1.33315
1.33349
1.33383
1.33418
1.33453
1.33489
1.33524
1.3356
1.33596
1.33631
1.33667
1.33702
1.33737
1.33771
1.33805
1.33838
1.33871
1.33903
1.33933
1.33963
1.33992
1.3402
1.34047
1.34072
1.34097
1.3412
1.34142
1.34162
1.34182
1.34201
1.34218
1.34234
1.34249
1.34263
1.34277
1.34289
1.343
1.34311
1.3432
1.3433
1.34338
1.34346
1.34353
1.34359
1.34365
1.34371
1.34376
1.34381
1.34385
1.34389
1.34392
1.34396
1.34399
1.34401
1.34404
1.34406
1.34408
1.34409
1.34411
1.34412
1.34413
1.34414
1.34415
1.34416
1.34416
1.34417
1.34417
1.34418
1.34419
1.34419
1.3442
1.34422
1.34423
1.34425
1.34427
1.3443
1.34433
1.34437
1.34442
1.34447
1.34453
1.3446
1.34468
1.34478
1.34488
1.345
1.34513
1.34527
1.34543
1.34561
1.3458
1.34601
1.34625
1.3465
1.34677
1.34706
1.34738
1.34772
1.34808
1.34847
1.34888
1.34932
1.34979
1.35029
1.35082
1.35138
1.35197
1.35259
1.35325
1.35395
1.35468
1.35545
1.35626
1.35712
1.35802
1.35897
1.35996
1.36102
1.36213
1.36331
1.36455
1.36587
1.36728
1.36878
1.37038
1.37209
1.37394
1.37592
1.37806
1.38036
1.38281
1.38538
1.38799
1.39049
1.39265
1.39419
1.39479
1.39452
1.3141
1.31354
1.31341
1.3136
1.31403
1.31462
1.31527
1.31593
1.31657
1.31715
1.31768
1.31816
1.31857
1.31894
1.31927
1.31955
1.31979
1.32
1.32019
1.32035
1.32048
1.32059
1.32069
1.32077
1.32083
1.32088
1.32091
1.32094
1.32095
1.32096
1.32095
1.32094
1.32092
1.3209
1.32087
1.32083
1.32079
1.32075
1.3207
1.32065
1.3206
1.32054
1.32049
1.32043
1.32037
1.32032
1.32026
1.32021
1.32016
1.32011
1.32006
1.32002
1.31998
1.31995
1.31992
1.31989
1.31988
1.31986
1.31986
1.31986
1.31987
1.31989
1.31992
1.31995
1.31999
1.32005
1.32011
1.32018
1.32026
1.32035
1.32044
1.32055
1.32066
1.32079
1.32092
1.32106
1.32121
1.32137
1.32154
1.32171
1.32189
1.32208
1.32228
1.32248
1.32269
1.32291
1.32313
1.32336
1.32359
1.32383
1.32407
1.32431
1.32456
1.32481
1.32506
1.32531
1.32556
1.32581
1.32606
1.32631
1.32655
1.32679
1.32703
1.32726
1.32749
1.32771
1.32793
1.32814
1.32834
1.32853
1.32871
1.32889
1.32905
1.3292
1.32934
1.32947
1.32959
1.3297
1.32979
1.32987
1.32994
1.33
1.33005
1.33009
1.33011
1.33013
1.33014
1.33014
1.33013
1.33011
1.33009
1.33006
1.33003
1.32999
1.32994
1.32989
1.32984
1.32979
1.32973
1.32967
1.32961
1.32954
1.32948
1.32941
1.32934
1.32927
1.3292
1.32913
1.32906
1.32899
1.32892
1.32885
1.32878
1.32871
1.32864
1.32857
1.32851
1.32844
1.32837
1.3283
1.32824
1.32817
1.3281
1.32804
1.32797
1.32791
1.32785
1.32778
1.32772
1.32766
1.3276
1.32754
1.32748
1.32742
1.32736
1.3273
1.32724
1.32718
1.32713
1.32707
1.32701
1.32696
1.3269
1.32685
1.3268
1.32674
1.32669
1.32664
1.32659
1.32654
1.32649
1.32644
1.32639
1.32635
1.3263
1.32626
1.32622
1.32617
1.32613
1.3261
1.32606
1.32602
1.32599
1.32596
1.32593
1.3259
1.32588
1.32586
1.32584
1.32582
1.3258
1.32579
1.32578
1.32578
1.32578
1.32578
1.32578
1.32579
1.32581
1.32582
1.32585
1.32587
1.32591
1.32594
1.32599
1.32603
1.32609
1.32615
1.32621
1.32629
1.32636
1.32645
1.32654
1.32664
1.32675
1.32686
1.32699
1.32712
1.32725
1.3274
1.32755
1.32772
1.32789
1.32807
1.32826
1.32846
1.32866
1.32888
1.32911
1.32934
1.32958
1.32984
1.3301
1.33037
1.33064
1.33093
1.33123
1.33153
1.33184
1.33216
1.33248
1.33281
1.33315
1.33349
1.33383
1.33419
1.33454
1.3349
1.33526
1.33562
1.33598
1.33634
1.33669
1.33705
1.3374
1.33775
1.33809
1.33843
1.33875
1.33907
1.33938
1.33968
1.33997
1.34025
1.34052
1.34077
1.34102
1.34125
1.34146
1.34167
1.34186
1.34205
1.34222
1.34238
1.34253
1.34266
1.34279
1.34291
1.34302
1.34313
1.34322
1.34331
1.34339
1.34347
1.34354
1.3436
1.34366
1.34371
1.34376
1.34381
1.34385
1.34389
1.34392
1.34395
1.34398
1.34401
1.34403
1.34405
1.34407
1.34409
1.3441
1.34411
1.34412
1.34413
1.34414
1.34415
1.34415
1.34416
1.34416
1.34417
1.34417
1.34418
1.34419
1.3442
1.34421
1.34423
1.34425
1.34427
1.3443
1.34434
1.34438
1.34443
1.34449
1.34456
1.34464
1.34473
1.34483
1.34495
1.34508
1.34522
1.34538
1.34555
1.34574
1.34595
1.34618
1.34643
1.3467
1.34699
1.3473
1.34764
1.348
1.34839
1.3488
1.34924
1.3497
1.3502
1.35072
1.35128
1.35187
1.35249
1.35314
1.35383
1.35455
1.35532
1.35612
1.35696
1.35785
1.35879
1.35977
1.3608
1.36189
1.36303
1.36424
1.36552
1.36687
1.36831
1.36983
1.37144
1.37316
1.37499
1.37692
1.37895
1.38106
1.38319
1.38526
1.38714
1.38865
1.38965
1.38997
1.38961
1.31525
1.3148
1.31462
1.31469
1.31495
1.31534
1.31581
1.31631
1.31681
1.3173
1.31775
1.31816
1.31854
1.31888
1.31918
1.31944
1.31968
1.31988
1.32006
1.32022
1.32035
1.32047
1.32056
1.32064
1.32071
1.32076
1.3208
1.32083
1.32084
1.32085
1.32085
1.32084
1.32083
1.32081
1.32078
1.32074
1.32071
1.32066
1.32062
1.32057
1.32052
1.32047
1.32041
1.32036
1.3203
1.32024
1.32019
1.32014
1.32009
1.32004
1.31999
1.31995
1.31991
1.31988
1.31985
1.31983
1.31981
1.3198
1.31979
1.3198
1.31981
1.31983
1.31985
1.31989
1.31993
1.31999
1.32005
1.32012
1.3202
1.32029
1.32039
1.3205
1.32062
1.32074
1.32088
1.32102
1.32117
1.32133
1.3215
1.32167
1.32186
1.32205
1.32225
1.32245
1.32266
1.32288
1.32311
1.32334
1.32357
1.32381
1.32406
1.32431
1.32456
1.32481
1.32506
1.32531
1.32557
1.32582
1.32607
1.32632
1.32657
1.32681
1.32705
1.32729
1.32751
1.32774
1.32795
1.32817
1.32837
1.32856
1.32874
1.32892
1.32908
1.32924
1.32938
1.32951
1.32962
1.32973
1.32982
1.3299
1.32997
1.33003
1.33007
1.33011
1.33013
1.33014
1.33015
1.33014
1.33013
1.33011
1.33009
1.33005
1.33002
1.32998
1.32993
1.32988
1.32982
1.32977
1.32971
1.32965
1.32958
1.32952
1.32945
1.32938
1.32931
1.32925
1.32918
1.32911
1.32904
1.32897
1.3289
1.32883
1.32876
1.32869
1.32862
1.32855
1.32848
1.32841
1.32835
1.32828
1.32821
1.32815
1.32808
1.32802
1.32795
1.32789
1.32783
1.32777
1.3277
1.32764
1.32758
1.32752
1.32746
1.3274
1.32734
1.32728
1.32723
1.32717
1.32711
1.32706
1.327
1.32694
1.32689
1.32684
1.32678
1.32673
1.32668
1.32663
1.32657
1.32652
1.32647
1.32643
1.32638
1.32633
1.32629
1.32624
1.3262
1.32616
1.32612
1.32608
1.32604
1.32601
1.32597
1.32594
1.32591
1.32588
1.32586
1.32584
1.32581
1.3258
1.32578
1.32577
1.32576
1.32575
1.32575
1.32575
1.32576
1.32577
1.32578
1.3258
1.32582
1.32585
1.32588
1.32591
1.32596
1.326
1.32606
1.32612
1.32618
1.32625
1.32633
1.32642
1.32651
1.32661
1.32671
1.32683
1.32695
1.32708
1.32722
1.32736
1.32752
1.32768
1.32785
1.32803
1.32822
1.32842
1.32863
1.32884
1.32907
1.3293
1.32955
1.3298
1.33006
1.33033
1.33061
1.3309
1.3312
1.3315
1.33181
1.33213
1.33246
1.33279
1.33313
1.33348
1.33383
1.33418
1.33454
1.3349
1.33526
1.33563
1.33599
1.33636
1.33672
1.33708
1.33743
1.33778
1.33813
1.33847
1.3388
1.33912
1.33943
1.33973
1.34003
1.34031
1.34057
1.34083
1.34107
1.3413
1.34152
1.34172
1.34191
1.34209
1.34226
1.34242
1.34256
1.3427
1.34283
1.34294
1.34305
1.34315
1.34324
1.34333
1.34341
1.34348
1.34355
1.34361
1.34367
1.34372
1.34377
1.34381
1.34385
1.34389
1.34392
1.34395
1.34398
1.34401
1.34403
1.34405
1.34407
1.34408
1.3441
1.34411
1.34412
1.34413
1.34413
1.34414
1.34414
1.34415
1.34415
1.34415
1.34416
1.34416
1.34417
1.34418
1.34419
1.3442
1.34422
1.34424
1.34427
1.34431
1.34435
1.34439
1.34445
1.34452
1.34459
1.34468
1.34478
1.34489
1.34502
1.34516
1.34531
1.34549
1.34567
1.34588
1.34611
1.34635
1.34662
1.34691
1.34722
1.34755
1.34791
1.34829
1.3487
1.34913
1.34959
1.35009
1.35061
1.35116
1.35174
1.35235
1.353
1.35368
1.35439
1.35515
1.35594
1.35677
1.35764
1.35856
1.35952
1.36052
1.36158
1.36269
1.36386
1.36509
1.36638
1.36774
1.36918
1.37069
1.37227
1.37393
1.37566
1.37744
1.37924
1.38099
1.38263
1.38405
1.38513
1.38579
1.38596
1.38556
1.31614
1.31576
1.31557
1.31557
1.31572
1.31598
1.31632
1.31669
1.31709
1.31748
1.31786
1.31822
1.31855
1.31886
1.31913
1.31938
1.3196
1.31979
1.31996
1.32011
1.32024
1.32036
1.32045
1.32053
1.3206
1.32065
1.32069
1.32072
1.32074
1.32075
1.32075
1.32075
1.32073
1.32071
1.32069
1.32066
1.32062
1.32058
1.32053
1.32049
1.32044
1.32039
1.32033
1.32028
1.32022
1.32017
1.32011
1.32006
1.32001
1.31996
1.31992
1.31988
1.31984
1.31981
1.31978
1.31975
1.31974
1.31973
1.31972
1.31973
1.31974
1.31976
1.31979
1.31982
1.31987
1.31992
1.31999
1.32006
1.32014
1.32023
1.32033
1.32044
1.32056
1.32069
1.32083
1.32097
1.32112
1.32129
1.32146
1.32163
1.32182
1.32201
1.32221
1.32242
1.32263
1.32286
1.32308
1.32332
1.32355
1.3238
1.32404
1.32429
1.32455
1.3248
1.32506
1.32532
1.32557
1.32583
1.32608
1.32633
1.32658
1.32683
1.32707
1.32731
1.32754
1.32776
1.32798
1.3282
1.3284
1.32859
1.32878
1.32896
1.32912
1.32928
1.32942
1.32955
1.32966
1.32977
1.32986
1.32994
1.33
1.33005
1.3301
1.33013
1.33015
1.33016
1.33016
1.33015
1.33014
1.33011
1.33008
1.33005
1.33001
1.32996
1.32991
1.32986
1.32981
1.32975
1.32969
1.32962
1.32956
1.32949
1.32942
1.32936
1.32929
1.32922
1.32915
1.32908
1.32901
1.32894
1.32887
1.3288
1.32873
1.32866
1.32859
1.32852
1.32845
1.32839
1.32832
1.32825
1.32819
1.32812
1.32806
1.328
1.32793
1.32787
1.32781
1.32775
1.32768
1.32762
1.32756
1.3275
1.32744
1.32738
1.32733