# vtk DataFile Version 2.0
LBE mesh
ASCII
DATASET STRUCTURED_POINTS
DIMENSIONS 400 100 1
ASPECT_RATIO 1 1 1
ORIGIN 0 0 0
POINT_DATA 40000
SCALARS rho double 1
LOOKUP_TABLE default
1.04329
1.09997
1.11691
1.12112
1.12332
1.12505
1.12627
1.12707
1.12762
1.12802
1.12833
1.12857
1.12876
1.12891
1.12903
1.12913
1.12922
1.12929
1.12934
1.12939
1.12943
1.12946
1.12949
1.12951
1.12953
1.12955
1.12956
1.12957
1.12958
1.12958
1.12959
1.12959
1.12959
1.12959
1.1296
1.1296
1.1296
1.1296
1.1296
1.12961
1.12961
1.12962
1.12962
1.12963
1.12964
1.12966
1.12967
1.12969
1.12971
1.12974
1.12977
1.1298
1.12984
1.12988
1.12993
1.12998
1.13004
1.13011
1.13018
1.13026
1.13035
1.13044
1.13054
1.13066
1.13078
1.1309
1.13104
1.13119
1.13135
1.13152
1.13169
1.13188
1.13208
1.13229
1.13251
1.13274
1.13298
1.13323
1.13349
1.13375
1.13403
1.13432
1.13462
1.13493
1.13525
1.13557
1.1359
1.13624
1.13659
1.13694
1.1373
1.13766
1.13803
1.1384
1.13877
1.13915
1.13952
1.1399
1.14027
1.14065
1.14102
1.14139
1.14175
1.14211
1.14247
1.14282
1.14316
1.14349
1.14382
1.14414
1.14445
1.14475
1.14504
1.14531
1.14558
1.14583
1.14608
1.14631
1.14653
1.14674
1.14694
1.14712
1.1473
1.14746
1.14761
1.14776
1.14789
1.14802
1.14813
1.14824
1.14835
1.14844
1.14853
1.14861
1.14869
1.14877
1.14883
1.1489
1.14896
1.14902
1.14908
1.14913
1.14918
1.14923
1.14928
1.14932
1.14937
1.14941
1.14946
1.1495
1.14954
1.14958
1.14962
1.14966
1.1497
1.14974
1.14978
1.14982
1.14987
1.14991
1.14995
1.14999
1.15003
1.15008
1.15012
1.15016
1.15021
1.15026
1.1503
1.15035
1.1504
1.15045
1.1505
1.15055
1.15061
1.15066
1.15072
1.15078
1.15084
1.1509
1.15096
1.15102
1.15109
1.15115
1.15122
1.15129
1.15136
1.15143
1.15151
1.15158
1.15166
1.15174
1.15181
1.15189
1.15197
1.15206
1.15214
1.15222
1.15231
1.15239
1.15248
1.15256
1.15265
1.15274
1.15283
1.15291
1.153
1.15309
1.15318
1.15327
1.15335
1.15344
1.15353
1.15362
1.1537
1.15379
1.15388
1.15396
1.15405
1.15413
1.15422
1.15431
1.15439
1.15448
1.15456
1.15465
1.15474
1.15482
1.15491
1.155
1.15509
1.15519
1.15528
1.15538
1.15548
1.15558
1.15568
1.15579
1.1559
1.15602
1.15614
1.15627
1.1564
1.15653
1.15668
1.15683
1.15698
1.15715
1.15732
1.1575
1.15768
1.15788
1.15809
1.1583
1.15852
1.15876
1.159
1.15926
1.15952
1.15979
1.16008
1.16037
1.16068
1.16099
1.16131
1.16165
1.16199
1.16234
1.1627
1.16307
1.16344
1.16382
1.1642
1.16459
1.16498
1.16538
1.16577
1.16617
1.16657
1.16697
1.16737
1.16776
1.16815
1.16854
1.16892
1.1693
1.16967
1.17004
1.1704
1.17075
1.17109
1.17143
1.17176
1.17209
1.1724
1.17271
1.17302
1.17331
1.1736
1.17388
1.17415
1.17442
1.17468
1.17493
1.17517
1.17541
1.17565
1.17587
1.17609
1.17631
1.17651
1.17671
1.17691
1.17709
1.17727
1.17744
1.17761
1.17777
1.17792
1.17806
1.17819
1.17832
1.17844
1.17855
1.17865
1.17875
1.17884
1.17893
1.179
1.17908
1.17914
1.1792
1.17926
1.17932
1.17937
1.17942
1.17947
1.17951
1.17956
1.17961
1.17966
1.17971
1.17977
1.17984
1.1799
1.17998
1.18007
1.18016
1.18026
1.18038
1.18051
1.18065
1.18081
1.18098
1.18117
1.18138
1.18161
1.18186
1.18213
1.18242
1.18274
1.18308
1.18345
1.18384
1.18427
1.18472
1.1852
1.18571
1.18626
1.18684
1.18745
1.1881
1.18879
1.18951
1.19027
1.19108
1.19193
1.19283
1.19377
1.19477
1.19583
1.19694
1.19813
1.19939
1.20074
1.20218
1.20374
1.20543
1.20728
1.20933
1.21161
1.21419
1.21718
1.22069
1.22494
1.23042
1.23815
1.2491
1.26351
1.28939
1.08628
1.09771
1.10861
1.11675
1.12105
1.12336
1.12483
1.12589
1.12666
1.12723
1.12767
1.128
1.12827
1.12848
1.12866
1.1288
1.12892
1.12902
1.1291
1.12917
1.12923
1.12928
1.12932
1.12936
1.12939
1.12941
1.12943
1.12945
1.12947
1.12948
1.12949
1.1295
1.12951
1.12951
1.12952
1.12952
1.12953
1.12954
1.12954
1.12955
1.12956
1.12956
1.12957
1.12959
1.1296
1.12961
1.12963
1.12965
1.12968
1.12971
1.12974
1.12977
1.12981
1.12986
1.12991
1.12996
1.13002
1.13009
1.13017
1.13025
1.13034
1.13043
1.13054
1.13065
1.13078
1.13091
1.13105
1.1312
1.13136
1.13153
1.13171
1.13189
1.1321
1.1323
1.13253
1.13276
1.133
1.13325
1.13351
1.13378
1.13406
1.13435
1.13465
1.13496
1.13528
1.1356
1.13593
1.13627
1.13662
1.13697
1.13733
1.13769
1.13806
1.13843
1.1388
1.13917
1.13955
1.13992
1.1403
1.14067
1.14104
1.14141
1.14177
1.14213
1.14248
1.14283
1.14317
1.1435
1.14383
1.14414
1.14445
1.14474
1.14503
1.14531
1.14557
1.14582
1.14607
1.1463
1.14651
1.14672
1.14692
1.1471
1.14728
1.14744
1.14759
1.14773
1.14787
1.14799
1.14811
1.14822
1.14832
1.14842
1.14851
1.14859
1.14867
1.14874
1.14881
1.14888
1.14894
1.149
1.14905
1.14911
1.14916
1.14921
1.14926
1.14931
1.14935
1.1494
1.14944
1.14948
1.14953
1.14957
1.14961
1.14965
1.14969
1.14973
1.14977
1.14981
1.14986
1.1499
1.14994
1.14998
1.15003
1.15007
1.15011
1.15016
1.15021
1.15025
1.1503
1.15035
1.1504
1.15045
1.1505
1.15055
1.15061
1.15066
1.15072
1.15078
1.15084
1.1509
1.15096
1.15103
1.15109
1.15116
1.15123
1.1513
1.15137
1.15144
1.15151
1.15159
1.15166
1.15174
1.15182
1.1519
1.15198
1.15206
1.15215
1.15223
1.15231
1.1524
1.15248
1.15257
1.15266
1.15274
1.15283
1.15292
1.15301
1.1531
1.15318
1.15327
1.15336
1.15345
1.15353
1.15362
1.15371
1.1538
1.15388
1.15397
1.15405
1.15414
1.15423
1.15431
1.1544
1.15448
1.15457
1.15466
1.15474
1.15483
1.15492
1.15501
1.1551
1.15519
1.15529
1.15539
1.15549
1.15559
1.15569
1.1558
1.15592
1.15603
1.15615
1.15628
1.15641
1.15655
1.15669
1.15684
1.157
1.15717
1.15734
1.15752
1.15771
1.15791
1.15811
1.15833
1.15855
1.15879
1.15903
1.15929
1.15955
1.15983
1.16011
1.16041
1.16071
1.16103
1.16135
1.16169
1.16203
1.16238
1.16274
1.1631
1.16348
1.16386
1.16424
1.16463
1.16502
1.16541
1.16581
1.16621
1.1666
1.167
1.16739
1.16779
1.16818
1.16856
1.16894
1.16932
1.16969
1.17005
1.17041
1.17076
1.1711
1.17144
1.17177
1.17209
1.17241
1.17272
1.17302
1.17331
1.1736
1.17387
1.17415
1.17441
1.17467
1.17492
1.17517
1.17541
1.17564
1.17587
1.17609
1.1763
1.1765
1.1767
1.1769
1.17708
1.17726
1.17743
1.17759
1.17775
1.1779
1.17804
1.17817
1.1783
1.17842
1.17853
1.17863
1.17873
1.17882
1.17891
1.17898
1.17905
1.17912
1.17918
1.17924
1.1793
1.17935
1.1794
1.17945
1.1795
1.17954
1.17959
1.17965
1.1797
1.17976
1.17983
1.1799
1.17998
1.18006
1.18016
1.18027
1.18039
1.18052
1.18066
1.18082
1.181
1.18119
1.1814
1.18164
1.18189
1.18216
1.18246
1.18278
1.18313
1.1835
1.1839
1.18432
1.18478
1.18527
1.18578
1.18633
1.18692
1.18754
1.18819
1.18888
1.18961
1.19038
1.1912
1.19205
1.19296
1.19391
1.19492
1.19599
1.19712
1.19832
1.1996
1.20096
1.20243
1.20403
1.20576
1.20766
1.20976
1.21213
1.21483
1.21796
1.2217
1.22631
1.23211
1.23955
1.25022
1.26933
1.30046
1.10452
1.10457
1.11096
1.11621
1.1196
1.12202
1.12375
1.12498
1.12588
1.12656
1.12708
1.12749
1.12782
1.12809
1.12831
1.12849
1.12864
1.12876
1.12887
1.12896
1.12904
1.1291
1.12916
1.12921
1.12925
1.12928
1.12931
1.12934
1.12936
1.12938
1.1294
1.12941
1.12942
1.12943
1.12945
1.12945
1.12946
1.12947
1.12948
1.12949
1.1295
1.12951
1.12953
1.12954
1.12956
1.12957
1.12959
1.12962
1.12964
1.12967
1.12971
1.12974
1.12979
1.12983
1.12988
1.12994
1.13001
1.13007
1.13015
1.13023
1.13033
1.13042
1.13053
1.13065
1.13077
1.1309
1.13105
1.1312
1.13136
1.13153
1.13171
1.1319
1.1321
1.13232
1.13254
1.13277
1.13301
1.13326
1.13353
1.1338
1.13408
1.13437
1.13467
1.13498
1.1353
1.13563
1.13596
1.1363
1.13665
1.137
1.13736
1.13772
1.13809
1.13846
1.13883
1.1392
1.13958
1.13995
1.14032
1.1407
1.14107
1.14143
1.14179
1.14215
1.1425
1.14285
1.14319
1.14352
1.14384
1.14415
1.14446
1.14475
1.14504
1.14531
1.14557
1.14583
1.14607
1.14629
1.14651
1.14672
1.14691
1.14709
1.14727
1.14743
1.14758
1.14772
1.14785
1.14798
1.14809
1.1482
1.1483
1.1484
1.14849
1.14857
1.14865
1.14872
1.14879
1.14886
1.14892
1.14898
1.14904
1.14909
1.14915
1.1492
1.14925
1.14929
1.14934
1.14938
1.14943
1.14947
1.14952
1.14956
1.1496
1.14964
1.14968
1.14973
1.14977
1.14981
1.14985
1.14989
1.14994
1.14998
1.15002
1.15007
1.15011
1.15016
1.15021
1.15025
1.1503
1.15035
1.1504
1.15045
1.15051
1.15056
1.15061
1.15067
1.15073
1.15079
1.15085
1.15091
1.15097
1.15104
1.1511
1.15117
1.15124
1.15131
1.15138
1.15145
1.15152
1.1516
1.15168
1.15175
1.15183
1.15191
1.15199
1.15208
1.15216
1.15224
1.15233
1.15241
1.1525
1.15258
1.15267
1.15276
1.15284
1.15293
1.15302
1.15311
1.1532
1.15328
1.15337
1.15346
1.15355
1.15363
1.15372
1.15381
1.15389
1.15398
1.15406
1.15415
1.15424
1.15432
1.15441
1.15449
1.15458
1.15467
1.15475
1.15484
1.15493
1.15502
1.15511
1.1552
1.1553
1.1554
1.1555
1.1556
1.15571
1.15581
1.15593
1.15605
1.15617
1.1563
1.15643
1.15657
1.15671
1.15686
1.15702
1.15719
1.15736
1.15754
1.15773
1.15793
1.15814
1.15835
1.15858
1.15882
1.15906
1.15932
1.15958
1.15986
1.16015
1.16044
1.16075
1.16107
1.16139
1.16173
1.16207
1.16242
1.16278
1.16315
1.16352
1.1639
1.16428
1.16467
1.16506
1.16545
1.16585
1.16625
1.16664
1.16704
1.16743
1.16782
1.16821
1.16859
1.16897
1.16935
1.16972
1.17008
1.17043
1.17078
1.17113
1.17146
1.17179
1.17211
1.17242
1.17273
1.17303
1.17332
1.1736
1.17388
1.17415
1.17442
1.17467
1.17493
1.17517
1.17541
1.17564
1.17586
1.17608
1.1763
1.1765
1.1767
1.17689
1.17708
1.17725
1.17742
1.17759
1.17774
1.17789
1.17803
1.17817
1.17829
1.17841
1.17852
1.17862
1.17872
1.17881
1.17889
1.17897
1.17904
1.17911
1.17917
1.17923
1.17928
1.17933
1.17938
1.17943
1.17948
1.17953
1.17958
1.17963
1.17969
1.17975
1.17981
1.17989
1.17997
1.18005
1.18015
1.18026
1.18038
1.18051
1.18066
1.18082
1.181
1.1812
1.18141
1.18164
1.1819
1.18218
1.18248
1.1828
1.18315
1.18352
1.18392
1.18435
1.18481
1.1853
1.18583
1.18638
1.18697
1.18759
1.18825
1.18894
1.18968
1.19045
1.19127
1.19213
1.19304
1.194
1.19501
1.19608
1.19722
1.19842
1.19971
1.20109
1.20257
1.20417
1.20591
1.20782
1.20994
1.21232
1.21503
1.21817
1.22186
1.2263
1.23186
1.23905
1.24799
1.25769
1.26771
1.11282
1.1121
1.11426
1.11686
1.11952
1.12164
1.12321
1.1244
1.12532
1.12605
1.12662
1.12708
1.12745
1.12775
1.128
1.12821
1.12839
1.12853
1.12866
1.12877
1.12886
1.12894
1.12901
1.12906
1.12912
1.12916
1.1292
1.12923
1.12926
1.12929
1.12931
1.12933
1.12935
1.12936
1.12938
1.12939
1.1294
1.12941
1.12943
1.12944
1.12945
1.12947
1.12948
1.1295
1.12952
1.12953
1.12956
1.12958
1.12961
1.12964
1.12968
1.12971
1.12976
1.12981
1.12986
1.12992
1.12998
1.13005
1.13013
1.13022
1.13031
1.13041
1.13052
1.13064
1.13076
1.1309
1.13104
1.13119
1.13136
1.13153
1.13171
1.1319
1.13211
1.13232
1.13254
1.13278
1.13302
1.13327
1.13354
1.13381
1.13409
1.13439
1.13469
1.135
1.13532
1.13565
1.13598
1.13632
1.13667
1.13703
1.13738
1.13775
1.13812
1.13849
1.13886
1.13923
1.13961
1.13998
1.14035
1.14073
1.14109
1.14146
1.14182
1.14218
1.14253
1.14287
1.14321
1.14354
1.14386
1.14418
1.14448
1.14477
1.14506
1.14533
1.14559
1.14584
1.14608
1.1463
1.14652
1.14672
1.14692
1.1471
1.14727
1.14743
1.14758
1.14772
1.14785
1.14797
1.14809
1.14819
1.14829
1.14839
1.14848
1.14856
1.14864
1.14871
1.14878
1.14885
1.14891
1.14897
1.14903
1.14908
1.14914
1.14919
1.14924
1.14928
1.14933
1.14938
1.14942
1.14947
1.14951
1.14955
1.1496
1.14964
1.14968
1.14972
1.14977
1.14981
1.14985
1.14989
1.14994
1.14998
1.15003
1.15007
1.15012
1.15016
1.15021
1.15026
1.15031
1.15036
1.15041
1.15046
1.15052
1.15057
1.15063
1.15068
1.15074
1.1508
1.15086
1.15092
1.15099
1.15105
1.15112
1.15118
1.15125
1.15132
1.1514
1.15147
1.15154
1.15162
1.15169
1.15177
1.15185
1.15193
1.15201
1.15209
1.15218
1.15226
1.15235
1.15243
1.15252
1.1526
1.15269
1.15278
1.15286
1.15295
1.15304
1.15313
1.15321
1.1533
1.15339
1.15348
1.15356
1.15365
1.15374
1.15382
1.15391
1.15399
1.15408
1.15416
1.15425
1.15434
1.15442
1.15451
1.15459
1.15468
1.15477
1.15485
1.15494
1.15503
1.15512
1.15522
1.15531
1.15541
1.15551
1.15561
1.15572
1.15583
1.15594
1.15606
1.15618
1.15631
1.15644
1.15658
1.15673
1.15688
1.15704
1.1572
1.15738
1.15756
1.15775
1.15795
1.15816
1.15838
1.1586
1.15884
1.15909
1.15934
1.15961
1.15989
1.16018
1.16047
1.16078
1.1611
1.16143
1.16176
1.16211
1.16246
1.16282
1.16319
1.16356
1.16394
1.16432
1.16471
1.16511
1.1655
1.1659
1.16629
1.16669
1.16708
1.16748
1.16787
1.16825
1.16864
1.16901
1.16939
1.16975
1.17011
1.17047
1.17082
1.17116
1.17149
1.17182
1.17213
1.17245
1.17275
1.17305
1.17334
1.17362
1.1739
1.17417
1.17443
1.17469
1.17494
1.17518
1.17542
1.17565
1.17587
1.17609
1.1763
1.17651
1.1767
1.17689
1.17708
1.17726
1.17743
1.17759
1.17774
1.17789
1.17803
1.17816
1.17829
1.17841
1.17852
1.17862
1.17871
1.1788
1.17889
1.17896
1.17903
1.1791
1.17916
1.17922
1.17927
1.17932
1.17937
1.17942
1.17947
1.17952
1.17957
1.17962
1.17967
1.17973
1.1798
1.17987
1.17995
1.18004
1.18014
1.18025
1.18037
1.1805
1.18065
1.18081
1.18099
1.18119
1.1814
1.18164
1.18189
1.18217
1.18247
1.1828
1.18315
1.18352
1.18393
1.18436
1.18482
1.18531
1.18584
1.18639
1.18698
1.18761
1.18827
1.18896
1.1897
1.19048
1.19129
1.19216
1.19307
1.19403
1.19504
1.19611
1.19725
1.19845
1.19974
1.20111
1.20258
1.20417
1.2059
1.20779
1.20987
1.2122
1.21483
1.21783
1.22131
1.22538
1.23013
1.23564
1.24181
1.24682
1.24711
1.11696
1.11648
1.11714
1.11856
1.12025
1.12177
1.12307
1.12415
1.12501
1.12572
1.12629
1.12676
1.12715
1.12747
1.12774
1.12797
1.12817
1.12833
1.12847
1.12859
1.1287
1.12879
1.12887
1.12893
1.12899
1.12905
1.12909
1.12913
1.12917
1.1292
1.12923
1.12925
1.12927
1.12929
1.12931
1.12933
1.12934
1.12936
1.12937
1.12939
1.1294
1.12942
1.12944
1.12946
1.12948
1.1295
1.12952
1.12955
1.12958
1.12961
1.12965
1.12969
1.12973
1.12978
1.12983
1.12989
1.12996
1.13003
1.13011
1.1302
1.13029
1.13039
1.1305
1.13062
1.13075
1.13088
1.13103
1.13118
1.13135
1.13152
1.13171
1.1319
1.1321
1.13232
1.13254
1.13278
1.13302
1.13328
1.13354
1.13382
1.1341
1.1344
1.1347
1.13501
1.13534
1.13566
1.136
1.13634
1.13669
1.13705
1.13741
1.13777
1.13814
1.13851
1.13889
1.13926
1.13964
1.14001
1.14039
1.14076
1.14113
1.14149
1.14186
1.14221
1.14256
1.14291
1.14325
1.14358
1.1439
1.14421
1.14451
1.1448
1.14509
1.14536
1.14562
1.14587
1.1461
1.14633
1.14654
1.14674
1.14693
1.14711
1.14728
1.14744
1.14759
1.14772
1.14785
1.14797
1.14809
1.14819
1.14829
1.14839
1.14848
1.14856
1.14864
1.14871
1.14878
1.14884
1.14891
1.14897
1.14902
1.14908
1.14913
1.14918
1.14923
1.14928
1.14933
1.14937
1.14942
1.14947
1.14951
1.14955
1.1496
1.14964
1.14968
1.14973
1.14977
1.14981
1.14986
1.1499
1.14995
1.14999
1.15004
1.15008
1.15013
1.15017
1.15022
1.15027
1.15032
1.15037
1.15042
1.15048
1.15053
1.15059
1.15064
1.1507
1.15076
1.15082
1.15088
1.15094
1.15101
1.15107
1.15114
1.15121
1.15128
1.15135
1.15142
1.15149
1.15157
1.15164
1.15172
1.1518
1.15188
1.15196
1.15204
1.15212
1.1522
1.15229
1.15237
1.15246
1.15254
1.15263
1.15271
1.1528
1.15289
1.15297
1.15306
1.15315
1.15324
1.15332
1.15341
1.1535
1.15358
1.15367
1.15376
1.15384
1.15393
1.15401
1.1541
1.15418
1.15427
1.15435
1.15444
1.15452
1.15461
1.1547
1.15478
1.15487
1.15496
1.15505
1.15514
1.15523
1.15533
1.15542
1.15552
1.15563
1.15573
1.15584
1.15596
1.15607
1.1562
1.15632
1.15646
1.1566
1.15674
1.15689
1.15705
1.15722
1.15739
1.15758
1.15777
1.15797
1.15818
1.1584
1.15862
1.15886
1.15911
1.15937
1.15964
1.15992
1.1602
1.1605
1.16081
1.16113
1.16146
1.1618
1.16214
1.1625
1.16286
1.16323
1.1636
1.16398
1.16437
1.16476
1.16515
1.16555
1.16595
1.16634
1.16674
1.16714
1.16753
1.16792
1.16831
1.16869
1.16906
1.16944
1.1698
1.17016
1.17051
1.17086
1.1712
1.17153
1.17185
1.17217
1.17248
1.17278
1.17308
1.17336
1.17365
1.17392
1.17419
1.17445
1.1747
1.17495
1.1752
1.17543
1.17566
1.17588
1.1761
1.17631
1.17652
1.17671
1.1769
1.17709
1.17727
1.17743
1.1776
1.17775
1.1779
1.17804
1.17817
1.17829
1.17841
1.17852
1.17862
1.17872
1.1788
1.17889
1.17896
1.17903
1.17909
1.17915
1.17921
1.17926
1.17931
1.17936
1.17941
1.17946
1.1795
1.17955
1.1796
1.17966
1.17972
1.17978
1.17985
1.17993
1.18002
1.18012
1.18023
1.18035
1.18048
1.18063
1.18079
1.18097
1.18117
1.18138
1.18162
1.18187
1.18215
1.18245
1.18278
1.18313
1.1835
1.18391
1.18434
1.1848
1.1853
1.18582
1.18638
1.18697
1.18759
1.18825
1.18895
1.18968
1.19046
1.19128
1.19214
1.19305
1.194
1.19501
1.19608
1.19721
1.1984
1.19967
1.20102
1.20247
1.20403
1.20572
1.20756
1.20957
1.21179
1.21427
1.21704
1.22015
1.22365
1.2275
1.23145
1.23502
1.23752
1.23687
1.11971
1.11926
1.11944
1.1202
1.1212
1.12226
1.12327
1.12416
1.12491
1.12556
1.1261
1.12655
1.12694
1.12727
1.12755
1.12778
1.12799
1.12816
1.12831
1.12844
1.12856
1.12866
1.12874
1.12882
1.12889
1.12894
1.129
1.12904
1.12908
1.12912
1.12915
1.12918
1.12921
1.12923
1.12925
1.12927
1.12929
1.12931
1.12933
1.12934
1.12936
1.12938
1.1294
1.12942
1.12944
1.12946
1.12949
1.12951
1.12955
1.12958
1.12962
1.12966
1.1297
1.12975
1.12981
1.12987
1.12994
1.13001
1.13009
1.13018
1.13027
1.13037
1.13048
1.1306
1.13073
1.13087
1.13101
1.13117
1.13133
1.13151
1.1317
1.13189
1.1321
1.13231
1.13254
1.13277
1.13302
1.13328
1.13354
1.13382
1.13411
1.1344
1.13471
1.13502
1.13535
1.13568
1.13601
1.13636
1.13671
1.13707
1.13743
1.1378
1.13817
1.13854
1.13892
1.13929
1.13967
1.14005
1.14042
1.1408
1.14117
1.14153
1.1419
1.14225
1.1426
1.14295
1.14329
1.14362
1.14394
1.14425
1.14455
1.14484
1.14513
1.1454
1.14566
1.1459
1.14614
1.14636
1.14657
1.14677
1.14696
1.14714
1.1473
1.14746
1.1476
1.14774
1.14787
1.14799
1.1481
1.1482
1.1483
1.14839
1.14848
1.14856
1.14864
1.14871
1.14878
1.14885
1.14891
1.14897
1.14903
1.14908
1.14913
1.14918
1.14924
1.14928
1.14933
1.14938
1.14942
1.14947
1.14951
1.14956
1.1496
1.14965
1.14969
1.14973
1.14978
1.14982
1.14987
1.14991
1.14996
1.15
1.15005
1.15009
1.15014
1.15019
1.15024
1.15029
1.15034
1.15039
1.15044
1.1505
1.15055
1.15061
1.15066
1.15072
1.15078
1.15084
1.15091
1.15097
1.15103
1.1511
1.15117
1.15123
1.1513
1.15138
1.15145
1.15152
1.1516
1.15167
1.15175
1.15183
1.15191
1.15199
1.15207
1.15215
1.15223
1.15232
1.1524
1.15249
1.15257
1.15266
1.15274
1.15283
1.15292
1.153
1.15309
1.15318
1.15327
1.15335
1.15344
1.15353
1.15361
1.1537
1.15378
1.15387
1.15395
1.15404
1.15412
1.15421
1.15429
1.15438
1.15446
1.15455
1.15463
1.15472
1.1548
1.15489
1.15498
1.15507
1.15516
1.15525
1.15534
1.15544
1.15554
1.15564
1.15575
1.15586
1.15597
1.15609
1.15621
1.15634
1.15647
1.15661
1.15676
1.15691
1.15707
1.15723
1.15741
1.15759
1.15778
1.15798
1.15819
1.15841
1.15864
1.15888
1.15913
1.15939
1.15966
1.15994
1.16023
1.16053
1.16084
1.16116
1.16149
1.16183
1.16218
1.16253
1.1629
1.16327
1.16365
1.16403
1.16442
1.16481
1.1652
1.1656
1.166
1.1664
1.1668
1.16719
1.16759
1.16798
1.16836
1.16875
1.16912
1.16949
1.16986
1.17022
1.17057
1.17091
1.17125
1.17158
1.1719
1.17221
1.17252
1.17282
1.17311
1.1734
1.17368
1.17395
1.17422
1.17448
1.17473
1.17498
1.17522
1.17545
1.17568
1.1759
1.17612
1.17633
1.17653
1.17673
1.17692
1.17711
1.17728
1.17745
1.17761
1.17777
1.17791
1.17805
1.17818
1.17831
1.17842
1.17853
1.17863
1.17873
1.17881
1.17889
1.17897
1.17904
1.1791
1.17916
1.17921
1.17926
1.17931
1.17936
1.1794
1.17945
1.17949
1.17954
1.17959
1.17964
1.1797
1.17977
1.17984
1.17991
1.18
1.18009
1.1802
1.18032
1.18045
1.1806
1.18076
1.18094
1.18113
1.18135
1.18158
1.18183
1.18211
1.18241
1.18274
1.18309
1.18346
1.18387
1.1843
1.18476
1.18525
1.18577
1.18633
1.18692
1.18754
1.1882
1.1889
1.18963
1.1904
1.19122
1.19207
1.19298
1.19393
1.19493
1.19598
1.19709
1.19827
1.19952
1.20084
1.20226
1.20377
1.20539
1.20715
1.20906
1.21113
1.21341
1.21589
1.21859
1.22146
1.2244
1.22719
1.22934
1.23047
1.23023
1.12163
1.12117
1.12117
1.12156
1.12217
1.1229
1.12364
1.12434
1.12497
1.12553
1.12602
1.12644
1.12681
1.12713
1.1274
1.12764
1.12785
1.12803
1.12818
1.12832
1.12844
1.12854
1.12864
1.12872
1.12879
1.12885
1.12891
1.12896
1.12901
1.12905
1.12908
1.12911
1.12914
1.12917
1.12919
1.12922
1.12924
1.12926
1.12928
1.1293
1.12932
1.12934
1.12936
1.12938
1.1294
1.12943
1.12945
1.12948
1.12952
1.12955
1.12959
1.12963
1.12968
1.12973
1.12978
1.12984
1.12991
1.12999
1.13007
1.13015
1.13025
1.13035
1.13046
1.13058
1.13071
1.13085
1.131
1.13115
1.13132
1.1315
1.13168
1.13188
1.13209
1.1323
1.13253
1.13277
1.13302
1.13327
1.13354
1.13382
1.13411
1.13441
1.13471
1.13503
1.13535
1.13569
1.13603
1.13637
1.13673
1.13709
1.13745
1.13782
1.13819
1.13857
1.13895
1.13933
1.13971
1.14008
1.14046
1.14084
1.14121
1.14158
1.14194
1.1423
1.14265
1.143
1.14334
1.14367
1.14399
1.1443
1.1446
1.14489
1.14518
1.14544
1.1457
1.14595
1.14618
1.1464
1.14661
1.14681
1.147
1.14717
1.14734
1.14749
1.14763
1.14777
1.14789
1.14801
1.14812
1.14822
1.14832
1.14841
1.14849
1.14857
1.14865
1.14872
1.14879
1.14885
1.14892
1.14898
1.14903
1.14909
1.14914
1.14919
1.14924
1.14929
1.14934
1.14939
1.14943
1.14948
1.14952
1.14957
1.14961
1.14966
1.1497
1.14975
1.14979
1.14984
1.14988
1.14993
1.14997
1.15002
1.15007
1.15011
1.15016
1.15021
1.15026
1.15031
1.15036
1.15042
1.15047
1.15052
1.15058
1.15064
1.15069
1.15075
1.15081
1.15087
1.15094
1.151
1.15107
1.15113
1.1512
1.15127
1.15134
1.15141
1.15148
1.15156
1.15163
1.15171
1.15179
1.15186
1.15194
1.15202
1.15211
1.15219
1.15227
1.15235
1.15244
1.15252
1.15261
1.15269
1.15278
1.15287
1.15295
1.15304
1.15313
1.15321
1.1533
1.15339
1.15347
1.15356
1.15364
1.15373
1.15381
1.1539
1.15398
1.15407
1.15415
1.15424
1.15432
1.1544
1.15449
1.15457
1.15466
1.15474
1.15483
1.15491
1.155
1.15509
1.15518
1.15527
1.15537
1.15546
1.15556
1.15566
1.15577
1.15588
1.15599
1.15611
1.15623
1.15635
1.15649
1.15663
1.15677
1.15692
1.15708
1.15725
1.15742
1.15761
1.1578
1.158
1.15821
1.15843
1.15866
1.1589
1.15915
1.15941
1.15968
1.15996
1.16025
1.16055
1.16086
1.16119
1.16152
1.16186
1.16221
1.16257
1.16294
1.16331
1.16369
1.16407
1.16447
1.16486
1.16526
1.16566
1.16606
1.16646
1.16686
1.16725
1.16765
1.16804
1.16843
1.16881
1.16919
1.16956
1.16992
1.17028
1.17063
1.17097
1.17131
1.17163
1.17195
1.17226
1.17257
1.17287
1.17316
1.17344
1.17372
1.17399
1.17425
1.17451
1.17476
1.17501
1.17525
1.17548
1.17571
1.17593
1.17615
1.17636
1.17656
1.17676
1.17695
1.17713
1.1773
1.17747
1.17764
1.17779
1.17794
1.17807
1.17821
1.17833
1.17844
1.17855
1.17865
1.17874
1.17883
1.17891
1.17898
1.17905
1.17911
1.17916
1.17922
1.17926
1.17931
1.17936
1.1794
1.17944
1.17949
1.17953
1.17958
1.17963
1.17969
1.17975
1.17981
1.17989
1.17997
1.18007
1.18017
1.18029
1.18042
1.18056
1.18072
1.18089
1.18109
1.1813
1.18153
1.18178
1.18206
1.18236
1.18268
1.18303
1.1834
1.1838
1.18423
1.18469
1.18518
1.1857
1.18626
1.18684
1.18746
1.18812
1.18881
1.18954
1.19031
1.19111
1.19196
1.19286
1.19379
1.19478
1.19582
1.19691
1.19806
1.19928
1.20057
1.20193
1.20339
1.20493
1.20659
1.20837
1.21028
1.21232
1.21449
1.21677
1.21908
1.2213
1.22322
1.2246
1.22516
1.22497
1.12299
1.12258
1.1225
1.12268
1.12306
1.12355
1.12409
1.12463
1.12514
1.12561
1.12604
1.12642
1.12676
1.12705
1.12732
1.12755
1.12775
1.12793
1.12808
1.12822
1.12835
1.12845
1.12855
1.12863
1.12871
1.12878
1.12884
1.12889
1.12894
1.12898
1.12902
1.12906
1.12909
1.12912
1.12915
1.12917
1.1292
1.12922
1.12924
1.12926
1.12928
1.1293
1.12933
1.12935
1.12937
1.1294
1.12943
1.12946
1.12949
1.12952
1.12956
1.12961
1.12965
1.1297
1.12976
1.12982
1.12989
1.12996
1.13005
1.13013
1.13023
1.13033
1.13044
1.13056
1.13069
1.13083
1.13098
1.13113
1.1313
1.13148
1.13167
1.13186
1.13207
1.13229
1.13252
1.13276
1.133
1.13326
1.13353
1.13381
1.1341
1.1344
1.13471
1.13503
1.13535
1.13569
1.13603
1.13638
1.13674
1.1371
1.13747
1.13784
1.13822
1.13859
1.13897
1.13936
1.13974
1.14012
1.1405
1.14087
1.14125
1.14162
1.14199
1.14235
1.1427
1.14305
1.14339
1.14372
1.14404
1.14436
1.14466
1.14495
1.14523
1.1455
1.14576
1.146
1.14624
1.14646
1.14667
1.14686
1.14705
1.14722
1.14738
1.14753
1.14767
1.1478
1.14793
1.14804
1.14815
1.14825
1.14834
1.14843
1.14851
1.14859
1.14867
1.14874
1.1488
1.14887
1.14893
1.14899
1.14905
1.1491
1.14915
1.1492
1.14925
1.1493
1.14935
1.1494
1.14945
1.14949
1.14954
1.14958
1.14963
1.14967
1.14972
1.14976
1.14981
1.14986
1.1499
1.14995
1.14999
1.15004
1.15009
1.15014
1.15019
1.15024
1.15029
1.15034
1.15039
1.15044
1.1505
1.15055
1.15061
1.15067
1.15073
1.15079
1.15085
1.15091
1.15097
1.15104
1.1511
1.15117
1.15124
1.15131
1.15138
1.15145
1.15152
1.1516
1.15167
1.15175
1.15183
1.15191
1.15199
1.15207
1.15215
1.15223
1.15231
1.1524
1.15248
1.15257
1.15265
1.15274
1.15282
1.15291
1.15299
1.15308
1.15317
1.15325
1.15334
1.15343
1.15351
1.1536
1.15368
1.15377
1.15385
1.15394
1.15402
1.1541
1.15419
1.15427
1.15435
1.15444
1.15452
1.1546
1.15469
1.15477
1.15485
1.15494
1.15503
1.15511
1.1552
1.15529
1.15539
1.15548
1.15558
1.15568
1.15579
1.15589
1.15601
1.15612
1.15624
1.15637
1.1565
1.15664
1.15678
1.15694
1.15709
1.15726
1.15744
1.15762
1.15781
1.15801
1.15822
1.15844
1.15867
1.15891
1.15916
1.15942
1.15969
1.15997
1.16027
1.16057
1.16088
1.16121
1.16154
1.16189
1.16224
1.1626
1.16297
1.16335
1.16373
1.16412
1.16451
1.16491
1.16531
1.16571
1.16612
1.16652
1.16692
1.16732
1.16772
1.16811
1.1685
1.16888
1.16926
1.16963
1.16999
1.17035
1.1707
1.17104
1.17137
1.1717
1.17201
1.17232
1.17263
1.17292
1.17321
1.17349
1.17377
1.17403
1.1743
1.17455
1.1748
1.17504
1.17528
1.17552
1.17574
1.17596
1.17618
1.17639
1.17659
1.17679
1.17698
1.17716
1.17733
1.1775
1.17766
1.17782
1.17796
1.1781
1.17823
1.17836
1.17847
1.17858
1.17868
1.17877
1.17885
1.17893
1.179
1.17906
1.17912
1.17918
1.17923
1.17927
1.17932
1.17936
1.1794
1.17944
1.17948
1.17952
1.17957
1.17962
1.17967
1.17973
1.17979
1.17986
1.17994
1.18003
1.18014
1.18025
1.18037
1.18051
1.18067
1.18084
1.18103
1.18124
1.18147
1.18172
1.18199
1.18229
1.18261
1.18295
1.18332
1.18372
1.18415
1.1846
1.18509
1.18561
1.18615
1.18674
1.18735
1.188
1.18869
1.18941
1.19017
1.19097
1.19181
1.19269
1.19361
1.19458
1.1956
1.19666
1.19778
1.19896
1.2002
1.20151
1.2029
1.20436
1.20591
1.20754
1.20927
1.21108
1.21295
1.21485
1.21668
1.21835
1.21971
1.22061
1.22092
1.22064
1.124
1.12365
1.12353
1.12361
1.12383
1.12416
1.12455
1.12496
1.12537
1.12576
1.12612
1.12646
1.12676
1.12703
1.12728
1.12749
1.12769
1.12786
1.12801
1.12815
1.12827
1.12838
1.12848
1.12857
1.12865
1.12871
1.12878
1.12883
1.12888
1.12893
1.12897
1.12901
1.12904
1.12908
1.12911
1.12913
1.12916
1.12918
1.12921
1.12923
1.12925
1.12927
1.1293
1.12932
1.12935
1.12937
1.1294
1.12943
1.12946
1.1295
1.12954
1.12958
1.12963
1.12968
1.12974
1.1298
1.12987
1.12994
1.13002
1.13011
1.13021
1.13031
1.13042
1.13054
1.13067
1.13081
1.13096
1.13112
1.13128
1.13146
1.13165
1.13185
1.13206
1.13227
1.1325
1.13274
1.13299
1.13325
1.13352
1.1338
1.1341
1.1344
1.13471
1.13503
1.13536
1.13569
1.13604
1.13639
1.13675
1.13711
1.13748
1.13786
1.13824
1.13862
1.139
1.13939
1.13977
1.14016
1.14054
1.14092
1.14129
1.14167
1.14203
1.1424
1.14275
1.1431
1.14345
1.14378
1.1441
1.14442
1.14472
1.14502
1.1453
1.14557
1.14582
1.14607
1.1463
1.14652
1.14673
1.14692
1.1471
1.14727
1.14743
1.14758
1.14772
1.14784
1.14797
1.14808
1.14818
1.14828
1.14837
1.14846
1.14854
1.14862
1.14869
1.14876
1.14883
1.14889
1.14895
1.14901
1.14906
1.14912
1.14917
1.14922
1.14927
1.14932
1.14937
1.14942
1.14947
1.14951
1.14956
1.1496
1.14965
1.1497
1.14974
1.14979
1.14983
1.14988
1.14993
1.14997
1.15002
1.15007
1.15012
1.15017
1.15022
1.15027
1.15032
1.15037
1.15043
1.15048
1.15053
1.15059
1.15065
1.15071
1.15077
1.15083
1.15089
1.15095
1.15101
1.15108
1.15115
1.15121
1.15128
1.15135
1.15142
1.1515
1.15157
1.15164
1.15172
1.1518
1.15188
1.15195
1.15203
1.15211
1.1522
1.15228
1.15236
1.15245
1.15253
1.15261
1.1527
1.15278
1.15287
1.15296
1.15304
1.15313
1.15321
1.1533
1.15338
1.15347
1.15356
1.15364
1.15372
1.15381
1.15389
1.15398
1.15406
1.15414
1.15423
1.15431
1.15439
1.15447
1.15455
1.15464
1.15472
1.1548
1.15489
1.15497
1.15506
1.15514
1.15523
1.15532
1.15541
1.15551
1.1556
1.1557
1.15581
1.15591
1.15603
1.15614
1.15626
1.15639
1.15652
1.15666
1.1568
1.15695
1.15711
1.15727
1.15745
1.15763
1.15782
1.15802
1.15823
1.15845
1.15868
1.15892
1.15917
1.15943
1.15971
1.15999
1.16028
1.16059
1.1609
1.16123
1.16157
1.16191
1.16227
1.16263
1.163
1.16338
1.16377
1.16416
1.16456
1.16496
1.16536
1.16577
1.16618
1.16658
1.16699
1.16739
1.16779
1.16818
1.16857
1.16896
1.16934
1.16971
1.17007
1.17042
1.17077
1.17111
1.17144
1.17176
1.17208
1.17239
1.17269
1.17298
1.17327
1.17354
1.17382
1.17408
1.17434
1.1746
1.17484
1.17509
1.17532
1.17555
1.17578
1.176
1.17621
1.17642
1.17662
1.17682
1.17701
1.17719
1.17737
1.17754
1.1777
1.17785
1.178
1.17814
1.17827
1.17839
1.1785
1.17861
1.17871
1.1788
1.17888
1.17895
1.17902
1.17908
1.17914
1.17919
1.17924
1.17929
1.17933
1.17937
1.1794
1.17944
1.17948
1.17952
1.17956
1.1796
1.17965
1.17971
1.17977
1.17984
1.17991
1.18
1.1801
1.18021
1.18033
1.18047
1.18062
1.18079
1.18097
1.18118
1.1814
1.18165
1.18191
1.18221
1.18252
1.18286
1.18323
1.18362
1.18404
1.18449
1.18498
1.18549
1.18603
1.18661
1.18722
1.18786
1.18854
1.18925
1.19
1.19079
1.19161
1.19248
1.19338
1.19433
1.19532
1.19636
1.19744
1.19858
1.19977
1.20101
1.20232
1.20369
1.20512
1.20661
1.20816
1.20975
1.21135
1.21291
1.21437
1.21564
1.21661
1.21721
1.21738
1.21706
1.12478
1.12449
1.12436
1.12437
1.1245
1.12472
1.125
1.12531
1.12563
1.12595
1.12626
1.12655
1.12681
1.12706
1.12728
1.12748
1.12766
1.12783
1.12798
1.12811
1.12823
1.12834
1.12843
1.12852
1.1286
1.12867
1.12873
1.12879
1.12884
1.12889
1.12893
1.12897
1.12901
1.12904
1.12907
1.1291
1.12913
1.12915
1.12918
1.1292
1.12923
1.12925
1.12928
1.1293
1.12933
1.12935
1.12938
1.12941
1.12945
1.12948
1.12952
1.12957
1.12961
1.12966
1.12972
1.12978
1.12985
1.12993
1.13001
1.13009
1.13019
1.13029
1.1304
1.13052
1.13065
1.13079
1.13094
1.1311
1.13126
1.13144
1.13163
1.13183
1.13204
1.13226
1.13249
1.13273
1.13298
1.13324
1.13351
1.13379
1.13408
1.13439
1.1347
1.13502
1.13535
1.13569
1.13604
1.13639
1.13675
1.13712
1.1375
1.13787
1.13826
1.13864
1.13903
1.13941
1.1398
1.14019
1.14058
1.14096
1.14134
1.14171
1.14208
1.14245
1.14281
1.14316
1.1435
1.14384
1.14417
1.14448
1.14479
1.14508
1.14537
1.14564
1.14589
1.14614
1.14637
1.14659
1.14679
1.14698
1.14716
1.14733
1.14749
1.14763
1.14777
1.1479
1.14801
1.14812
1.14823
1.14832
1.14841
1.14849
1.14857
1.14865
1.14872
1.14879
1.14885
1.14892
1.14898
1.14903
1.14909
1.14914
1.1492
1.14925
1.1493
1.14935
1.14939
1.14944
1.14949
1.14954
1.14958
1.14963
1.14968
1.14972
1.14977
1.14982
1.14986
1.14991
1.14996
1.15001
1.15005
1.1501
1.15015
1.1502
1.15025
1.1503
1.15036
1.15041
1.15046
1.15052
1.15058
1.15063
1.15069
1.15075
1.15081
1.15087
1.15093
1.151
1.15106
1.15113
1.15119
1.15126
1.15133
1.1514