# vtk DataFile Version 2.0
LBE mesh
ASCII
DATASET STRUCTURED_POINTS
DIMENSIONS 400 100 1
ASPECT_RATIO 1 1 1
ORIGIN 0 0 0
POINT_DATA 40000
SCALARS rho double 1
LOOKUP_TABLE default
1.10353
1.17654
1.19782
1.2022
1.20434
1.20619
1.20754
1.20842
1.20901
1.20945
1.20979
1.21005
1.21026
1.21043
1.21056
1.21066
1.21075
1.21082
1.21087
1.21091
1.21093
1.21095
1.21096
1.21096
1.21095
1.21094
1.21091
1.21089
1.21086
1.21082
1.21078
1.21073
1.21069
1.21063
1.21058
1.21052
1.21046
1.21039
1.21033
1.21026
1.21019
1.21012
1.21005
1.20998
1.20991
1.20984
1.20977
1.2097
1.20963
1.20956
1.2095
1.20944
1.20938
1.20932
1.20927
1.20922
1.20918
1.20914
1.2091
1.20907
1.20905
1.20904
1.20903
1.20902
1.20903
1.20904
1.20906
1.20908
1.20912
1.20916
1.20921
1.20927
1.20934
1.20941
1.20949
1.20959
1.20969
1.20979
1.20991
1.21003
1.21017
1.21031
1.21045
1.21061
1.21077
1.21094
1.21112
1.2113
1.21149
1.21169
1.21189
1.2121
1.21231
1.21252
1.21274
1.21296
1.21319
1.21341
1.21364
1.21387
1.2141
1.21433
1.21456
1.21478
1.21501
1.21523
1.21544
1.21566
1.21587
1.21607
1.21627
1.21646
1.21664
1.21682
1.21699
1.21715
1.2173
1.21744
1.21758
1.2177
1.21782
1.21792
1.21802
1.21811
1.21819
1.21826
1.21832
1.21837
1.21842
1.21846
1.21849
1.21852
1.21854
1.21855
1.21856
1.21857
1.21857
1.21856
1.21856
1.21855
1.21854
1.21852
1.21851
1.21849
1.21847
1.21845
1.21843
1.21841
1.21839
1.21837
1.21835
1.21832
1.2183
1.21828
1.21826
1.21824
1.21823
1.21821
1.21819
1.21817
1.21816
1.21814
1.21813
1.21812
1.21811
1.2181
1.21809
1.21808
1.21807
1.21806
1.21805
1.21805
1.21804
1.21804
1.21803
1.21803
1.21802
1.21802
1.21802
1.21802
1.21801
1.21801
1.21801
1.21801
1.218
1.218
1.218
1.218
1.21799
1.21799
1.21799
1.21798
1.21798
1.21797
1.21797
1.21796
1.21796
1.21795
1.21794
1.21793
1.21793
1.21792
1.21791
1.2179
1.21789
1.21788
1.21787
1.21785
1.21784
1.21783
1.21782
1.21781
1.2178
1.21779
1.21777
1.21776
1.21776
1.21775
1.21774
1.21773
1.21773
1.21773
1.21772
1.21773
1.21773
1.21773
1.21774
1.21775
1.21777
1.21779
1.21781
1.21784
1.21787
1.2179
1.21794
1.21799
1.21804
1.2181
1.21816
1.21823
1.21831
1.21839
1.21848
1.21858
1.21869
1.2188
1.21892
1.21905
1.21919
1.21934
1.21949
1.21966
1.21983
1.22001
1.22021
1.22041
1.22062
1.22083
1.22106
1.22129
1.22153
1.22178
1.22204
1.2223
1.22257
1.22284
1.22312
1.22341
1.2237
1.22399
1.22428
1.22457
1.22487
1.22516
1.22546
1.22575
1.22604
1.22633
1.22661
1.22688
1.22716
1.22742
1.22768
1.22793
1.22817
1.2284
1.22862
1.22884
1.22905
1.22924
1.22943
1.22961
1.22978
1.22994
1.23009
1.23023
1.23036
1.23049
1.23061
1.23073
1.23083
1.23094
1.23103
1.23112
1.23121
1.23129
1.23137
1.23144
1.23152
1.23158
1.23165
1.23171
1.23177
1.23183
1.23189
1.23195
1.232
1.23205
1.2321
1.23215
1.2322
1.23224
1.23229
1.23233
1.23237
1.23241
1.23245
1.23249
1.23253
1.23257
1.23261
1.23265
1.23269
1.23273
1.23278
1.23282
1.23287
1.23292
1.23297
1.23303
1.23309
1.23316
1.23324
1.23332
1.23341
1.23351
1.23362
1.23374
1.23387
1.23402
1.23418
1.23435
1.23454
1.23474
1.23496
1.2352
1.23546
1.23574
1.23604
1.23636
1.23671
1.23708
1.23747
1.23789
1.23834
1.23881
1.23931
1.23985
1.24041
1.24101
1.24164
1.2423
1.243
1.24374
1.24452
1.24534
1.2462
1.24711
1.24807
1.24908
1.25016
1.25129
1.2525
1.25379
1.25517
1.25665
1.25824
1.25998
1.26189
1.26399
1.26635
1.26902
1.27212
1.27577
1.28021
1.28595
1.29393
1.30516
1.32175
1.35564
1.1654
1.17529
1.1871
1.19676
1.20178
1.20435
1.20595
1.2071
1.20795
1.20858
1.20906
1.20943
1.20972
1.20995
1.21014
1.2103
1.21042
1.21052
1.2106
1.21066
1.21071
1.21074
1.21077
1.21078
1.21078
1.21078
1.21077
1.21075
1.21073
1.2107
1.21066
1.21063
1.21058
1.21053
1.21048
1.21043
1.21037
1.21031
1.21025
1.21019
1.21012
1.21005
1.20999
1.20992
1.20985
1.20978
1.20971
1.20965
1.20958
1.20952
1.20945
1.20939
1.20934
1.20928
1.20923
1.20919
1.20915
1.20911
1.20908
1.20905
1.20903
1.20902
1.20901
1.20901
1.20901
1.20903
1.20905
1.20908
1.20911
1.20916
1.20921
1.20927
1.20934
1.20941
1.2095
1.20959
1.20969
1.2098
1.20992
1.21005
1.21018
1.21032
1.21047
1.21063
1.21079
1.21096
1.21114
1.21132
1.21151
1.21171
1.21191
1.21212
1.21233
1.21254
1.21276
1.21298
1.21321
1.21343
1.21366
1.21389
1.21412
1.21435
1.21457
1.2148
1.21502
1.21524
1.21546
1.21567
1.21587
1.21608
1.21627
1.21646
1.21664
1.21682
1.21699
1.21714
1.21729
1.21744
1.21757
1.21769
1.21781
1.21791
1.21801
1.21809
1.21817
1.21824
1.2183
1.21835
1.2184
1.21844
1.21847
1.2185
1.21852
1.21853
1.21854
1.21854
1.21855
1.21854
1.21854
1.21853
1.21852
1.2185
1.21849
1.21847
1.21845
1.21843
1.21842
1.21839
1.21837
1.21835
1.21833
1.21831
1.21829
1.21827
1.21825
1.21823
1.21822
1.2182
1.21818
1.21817
1.21815
1.21814
1.21812
1.21811
1.2181
1.21809
1.21808
1.21807
1.21806
1.21806
1.21805
1.21804
1.21804
1.21803
1.21803
1.21803
1.21802
1.21802
1.21802
1.21801
1.21801
1.21801
1.21801
1.21801
1.218
1.218
1.218
1.218
1.21799
1.21799
1.21799
1.21798
1.21798
1.21797
1.21797
1.21796
1.21796
1.21795
1.21794
1.21794
1.21793
1.21792
1.21791
1.2179
1.21789
1.21788
1.21787
1.21786
1.21784
1.21783
1.21782
1.21781
1.2178
1.21779
1.21778
1.21777
1.21776
1.21775
1.21774
1.21774
1.21773
1.21773
1.21773
1.21773
1.21774
1.21774
1.21775
1.21776
1.21778
1.2178
1.21782
1.21785
1.21788
1.21791
1.21796
1.218
1.21805
1.21811
1.21818
1.21825
1.21832
1.21841
1.2185
1.2186
1.21871
1.21882
1.21894
1.21908
1.21922
1.21936
1.21952
1.21969
1.21986
1.22005
1.22024
1.22044
1.22065
1.22087
1.22109
1.22133
1.22157
1.22182
1.22207
1.22234
1.22261
1.22288
1.22316
1.22344
1.22373
1.22402
1.22431
1.22461
1.2249
1.22519
1.22549
1.22578
1.22607
1.22635
1.22663
1.2269
1.22717
1.22744
1.22769
1.22794
1.22818
1.22841
1.22863
1.22885
1.22905
1.22924
1.22943
1.22961
1.22977
1.22993
1.23008
1.23023
1.23036
1.23049
1.23061
1.23072
1.23083
1.23093
1.23102
1.23112
1.2312
1.23128
1.23136
1.23144
1.23151
1.23158
1.23164
1.23171
1.23177
1.23183
1.23189
1.23194
1.23199
1.23205
1.2321
1.23215
1.23219
1.23224
1.23228
1.23233
1.23237
1.23241
1.23245
1.23249
1.23253
1.23257
1.23261
1.23265
1.23269
1.23273
1.23278
1.23282
1.23287
1.23292
1.23297
1.23303
1.2331
1.23317
1.23325
1.23333
1.23342
1.23352
1.23364
1.23376
1.23389
1.23404
1.2342
1.23438
1.23457
1.23477
1.235
1.23524
1.2355
1.23578
1.23609
1.23641
1.23676
1.23713
1.23753
1.23795
1.23841
1.23888
1.23939
1.23993
1.2405
1.2411
1.24173
1.2424
1.24311
1.24385
1.24464
1.24546
1.24633
1.24725
1.24822
1.24924
1.25033
1.25148
1.2527
1.25401
1.25541
1.25692
1.25855
1.26033
1.26228
1.26446
1.26691
1.2697
1.27296
1.27685
1.28165
1.2877
1.29559
1.30714
1.32731
1.35909
1.18495
1.18325
1.19039
1.19636
1.2001
1.20279
1.20473
1.2061
1.20709
1.20784
1.20841
1.20887
1.20923
1.20952
1.20976
1.20995
1.21011
1.21024
1.21034
1.21042
1.21049
1.21054
1.21058
1.21061
1.21062
1.21063
1.21063
1.21062
1.2106
1.21058
1.21055
1.21052
1.21048
1.21044
1.21039
1.21034
1.21029
1.21023
1.21018
1.21012
1.21005
1.20999
1.20992
1.20986
1.20979
1.20973
1.20966
1.2096
1.20953
1.20947
1.20941
1.20935
1.2093
1.20925
1.2092
1.20915
1.20911
1.20908
1.20905
1.20903
1.20901
1.20899
1.20899
1.20899
1.209
1.20901
1.20904
1.20907
1.2091
1.20915
1.2092
1.20926
1.20934
1.20941
1.2095
1.20959
1.2097
1.20981
1.20993
1.21005
1.21019
1.21033
1.21048
1.21064
1.2108
1.21098
1.21115
1.21134
1.21153
1.21173
1.21193
1.21214
1.21235
1.21256
1.21278
1.21301
1.21323
1.21346
1.21368
1.21391
1.21414
1.21437
1.21459
1.21482
1.21504
1.21526
1.21547
1.21568
1.21589
1.21609
1.21629
1.21647
1.21666
1.21683
1.21699
1.21715
1.2173
1.21744
1.21757
1.21769
1.21781
1.21791
1.218
1.21809
1.21816
1.21823
1.21829
1.21834
1.21839
1.21843
1.21846
1.21848
1.2185
1.21852
1.21853
1.21853
1.21853
1.21853
1.21852
1.21851
1.2185
1.21849
1.21847
1.21846
1.21844
1.21842
1.2184
1.21838
1.21836
1.21834
1.21832
1.2183
1.21828
1.21826
1.21824
1.21822
1.21821
1.21819
1.21817
1.21816
1.21815
1.21813
1.21812
1.21811
1.2181
1.21809
1.21808
1.21807
1.21806
1.21805
1.21805
1.21804
1.21804
1.21803
1.21803
1.21803
1.21802
1.21802
1.21802
1.21802
1.21801
1.21801
1.21801
1.21801
1.21801
1.218
1.218
1.218
1.218
1.21799
1.21799
1.21799
1.21798
1.21798
1.21797
1.21797
1.21796
1.21795
1.21795
1.21794
1.21793
1.21792
1.21791
1.2179
1.21789
1.21788
1.21787
1.21786
1.21785
1.21784
1.21783
1.21782
1.2178
1.21779
1.21778
1.21777
1.21776
1.21776
1.21775
1.21774
1.21774
1.21774
1.21774
1.21774
1.21774
1.21775
1.21776
1.21777
1.21779
1.21781
1.21783
1.21786
1.21789
1.21793
1.21797
1.21801
1.21807
1.21813
1.21819
1.21826
1.21834
1.21842
1.21852
1.21862
1.21873
1.21884
1.21896
1.2191
1.21924
1.21939
1.21954
1.21971
1.21989
1.22007
1.22026
1.22047
1.22068
1.2209
1.22112
1.22136
1.2216
1.22185
1.22211
1.22237
1.22264
1.22291
1.22319
1.22348
1.22377
1.22406
1.22435
1.22464
1.22493
1.22523
1.22552
1.22581
1.2261
1.22638
1.22666
1.22693
1.2272
1.22746
1.22772
1.22796
1.2282
1.22843
1.22865
1.22886
1.22906
1.22926
1.22944
1.22962
1.22978
1.22994
1.23009
1.23023
1.23036
1.23049
1.23061
1.23072
1.23083
1.23093
1.23103
1.23112
1.2312
1.23128
1.23136
1.23144
1.23151
1.23158
1.23164
1.23171
1.23177
1.23183
1.23189
1.23194
1.232
1.23205
1.2321
1.23215
1.23219
1.23224
1.23229
1.23233
1.23237
1.23241
1.23245
1.23249
1.23253
1.23257
1.23261
1.23265
1.23269
1.23273
1.23278
1.23282
1.23287
1.23292
1.23298
1.23304
1.2331
1.23317
1.23325
1.23333
1.23343
1.23353
1.23364
1.23377
1.2339
1.23405
1.23421
1.23439
1.23458
1.23479
1.23502
1.23526
1.23553
1.23581
1.23612
1.23644
1.23679
1.23717
1.23757
1.238
1.23845
1.23893
1.23944
1.23998
1.24055
1.24116
1.2418
1.24247
1.24318
1.24393
1.24471
1.24554
1.24642
1.24734
1.24832
1.24935
1.25044
1.25159
1.25283
1.25414
1.25555
1.25706
1.25871
1.2605
1.26247
1.26466
1.26712
1.26993
1.27319
1.27703
1.28167
1.28749
1.29501
1.30447
1.31475
1.32437
1.193
1.19207
1.19434
1.19705
1.2
1.20238
1.20413
1.20544
1.20647
1.20727
1.2079
1.20841
1.20881
1.20914
1.20942
1.20964
1.20983
1.20998
1.21011
1.21021
1.21029
1.21036
1.21041
1.21045
1.21047
1.21049
1.2105
1.2105
1.21049
1.21047
1.21045
1.21042
1.21039
1.21035
1.21031
1.21026
1.21021
1.21016
1.21011
1.21005
1.20999
1.20993
1.20986
1.2098
1.20974
1.20967
1.20961
1.20955
1.20949
1.20942
1.20937
1.20931
1.20926
1.20921
1.20916
1.20912
1.20908
1.20905
1.20902
1.209
1.20898
1.20897
1.20897
1.20897
1.20898
1.20899
1.20902
1.20905
1.20909
1.20914
1.20919
1.20926
1.20933
1.20941
1.2095
1.20959
1.2097
1.20981
1.20993
1.21006
1.21019
1.21034
1.21049
1.21065
1.21081
1.21099
1.21117
1.21135
1.21154
1.21174
1.21195
1.21215
1.21237
1.21258
1.2128
1.21303
1.21325
1.21348
1.21371
1.21393
1.21416
1.21439
1.21462
1.21484
1.21506
1.21528
1.2155
1.21571
1.21591
1.21611
1.21631
1.21649
1.21668
1.21685
1.21701
1.21717
1.21732
1.21746
1.21758
1.2177
1.21782
1.21792
1.21801
1.21809
1.21817
1.21823
1.21829
1.21834
1.21839
1.21842
1.21845
1.21848
1.2185
1.21851
1.21852
1.21852
1.21852
1.21852
1.21851
1.2185
1.21849
1.21848
1.21846
1.21845
1.21843
1.21841
1.21839
1.21837
1.21835
1.21833
1.21831
1.21829
1.21827
1.21826
1.21824
1.21822
1.2182
1.21819
1.21817
1.21816
1.21814
1.21813
1.21812
1.21811
1.21809
1.21809
1.21808
1.21807
1.21806
1.21805
1.21805
1.21804
1.21804
1.21804
1.21803
1.21803
1.21803
1.21802
1.21802
1.21802
1.21802
1.21802
1.21802
1.21801
1.21801
1.21801
1.21801
1.21801
1.218
1.218
1.218
1.21799
1.21799
1.21799
1.21798
1.21797
1.21797
1.21796
1.21795
1.21795
1.21794
1.21793
1.21792
1.21791
1.2179
1.21789
1.21788
1.21787
1.21786
1.21785
1.21783
1.21782
1.21781
1.2178
1.21779
1.21778
1.21777
1.21776
1.21776
1.21775
1.21775
1.21774
1.21774
1.21775
1.21775
1.21776
1.21777
1.21778
1.21779
1.21781
1.21784
1.21786
1.2179
1.21793
1.21798
1.21802
1.21808
1.21814
1.2182
1.21827
1.21835
1.21844
1.21853
1.21863
1.21874
1.21886
1.21898
1.21911
1.21925
1.2194
1.21956
1.21973
1.21991
1.22009
1.22029
1.22049
1.2207
1.22092
1.22115
1.22138
1.22163
1.22188
1.22214
1.2224
1.22267
1.22295
1.22323
1.22351
1.2238
1.22409
1.22438
1.22468
1.22497
1.22527
1.22556
1.22585
1.22614
1.22642
1.2267
1.22697
1.22724
1.2275
1.22775
1.228
1.22823
1.22846
1.22868
1.22889
1.22909
1.22928
1.22946
1.22964
1.2298
1.22996
1.23011
1.23025
1.23038
1.2305
1.23062
1.23073
1.23084
1.23094
1.23103
1.23112
1.23121
1.23129
1.23137
1.23144
1.23151
1.23158
1.23165
1.23171
1.23177
1.23183
1.23189
1.23195
1.232
1.23205
1.2321
1.23215
1.2322
1.23225
1.23229
1.23233
1.23238
1.23242
1.23246
1.2325
1.23254
1.23258
1.23262
1.23265
1.23269
1.23274
1.23278
1.23282
1.23287
1.23292
1.23298
1.23304
1.2331
1.23317
1.23325
1.23333
1.23343
1.23353
1.23364
1.23377
1.2339
1.23405
1.23422
1.23439
1.23459
1.23479
1.23502
1.23527
1.23553
1.23582
1.23613
1.23645
1.23681
1.23718
1.23759
1.23801
1.23847
1.23895
1.23946
1.24001
1.24058
1.24119
1.24183
1.2425
1.24321
1.24396
1.24475
1.24558
1.24646
1.24739
1.24836
1.24939
1.25048
1.25164
1.25287
1.25418
1.25558
1.25709
1.25872
1.2605
1.26245
1.2646
1.26701
1.26974
1.27286
1.27648
1.28072
1.28569
1.29146
1.29785
1.30305
1.30317
1.19735
1.19689
1.19749
1.199
1.20086
1.20253
1.20397
1.20516
1.20612
1.2069
1.20754
1.20805
1.20848
1.20884
1.20913
1.20938
1.20958
1.20975
1.20989
1.21001
1.21011
1.21019
1.21025
1.2103
1.21033
1.21036
1.21037
1.21038
1.21038
1.21037
1.21035
1.21033
1.2103
1.21027
1.21023
1.21019
1.21014
1.21009
1.21004
1.20998
1.20993
1.20987
1.20981
1.20974
1.20968
1.20962
1.20956
1.2095
1.20944
1.20938
1.20932
1.20927
1.20922
1.20917
1.20912
1.20908
1.20904
1.20901
1.20899
1.20896
1.20895
1.20894
1.20894
1.20894
1.20895
1.20897
1.209
1.20903
1.20907
1.20912
1.20918
1.20924
1.20932
1.2094
1.20949
1.20958
1.20969
1.2098
1.20993
1.21005
1.21019
1.21034
1.21049
1.21065
1.21082
1.21099
1.21117
1.21136
1.21156
1.21176
1.21196
1.21217
1.21238
1.2126
1.21282
1.21305
1.21327
1.2135
1.21373
1.21396
1.21419
1.21442
1.21464
1.21487
1.21509
1.21531
1.21553
1.21574
1.21594
1.21614
1.21634
1.21652
1.2167
1.21688
1.21704
1.2172
1.21734
1.21748
1.21761
1.21773
1.21784
1.21794
1.21803
1.21811
1.21818
1.21825
1.2183
1.21835
1.21839
1.21843
1.21846
1.21848
1.2185
1.21851
1.21852
1.21852
1.21852
1.21852
1.21851
1.2185
1.21849
1.21847
1.21846
1.21844
1.21842
1.21841
1.21839
1.21837
1.21835
1.21833
1.21831
1.21829
1.21827
1.21825
1.21823
1.21822
1.2182
1.21818
1.21817
1.21815
1.21814
1.21813
1.21812
1.21811
1.2181
1.21809
1.21808
1.21807
1.21806
1.21806
1.21805
1.21805
1.21804
1.21804
1.21804
1.21803
1.21803
1.21803
1.21803
1.21803
1.21803
1.21802
1.21802
1.21802
1.21802
1.21802
1.21802
1.21802
1.21801
1.21801
1.21801
1.218
1.218
1.218
1.21799
1.21799
1.21798
1.21797
1.21797
1.21796
1.21795
1.21794
1.21793
1.21792
1.21791
1.2179
1.21789
1.21788
1.21787
1.21786
1.21784
1.21783
1.21782
1.21781
1.2178
1.21779
1.21778
1.21777
1.21777
1.21776
1.21776
1.21775
1.21775
1.21775
1.21776
1.21776
1.21777
1.21779
1.2178
1.21782
1.21784
1.21787
1.2179
1.21794
1.21798
1.21803
1.21808
1.21814
1.21821
1.21828
1.21836
1.21845
1.21854
1.21864
1.21875
1.21887
1.21899
1.21913
1.21927
1.21942
1.21958
1.21975
1.21992
1.22011
1.2203
1.22051
1.22072
1.22094
1.22117
1.22141
1.22165
1.2219
1.22216
1.22243
1.2227
1.22298
1.22326
1.22355
1.22384
1.22413
1.22442
1.22472
1.22501
1.22531
1.2256
1.22589
1.22618
1.22646
1.22674
1.22702
1.22728
1.22754
1.22779
1.22804
1.22827
1.2285
1.22872
1.22893
1.22913
1.22932
1.2295
1.22967
1.22983
1.22999
1.23013
1.23027
1.2304
1.23052
1.23064
1.23075
1.23085
1.23095
1.23105
1.23113
1.23122
1.2313
1.23138
1.23145
1.23152
1.23159
1.23166
1.23172
1.23178
1.23184
1.2319
1.23195
1.23201
1.23206
1.23211
1.23216
1.23221
1.23225
1.2323
1.23234
1.23239
1.23243
1.23247
1.23251
1.23254
1.23258
1.23262
1.23266
1.2327
1.23274
1.23278
1.23283
1.23287
1.23292
1.23298
1.23304
1.2331
1.23317
1.23325
1.23333
1.23342
1.23353
1.23364
1.23376
1.2339
1.23404
1.23421
1.23438
1.23458
1.23479
1.23501
1.23526
1.23552
1.23581
1.23612
1.23645
1.2368
1.23718
1.23758
1.23801
1.23846
1.23895
1.23946
1.24
1.24058
1.24119
1.24183
1.2425
1.24321
1.24396
1.24475
1.24558
1.24646
1.24738
1.24835
1.24938
1.25046
1.25161
1.25283
1.25412
1.25551
1.257
1.2586
1.26033
1.26223
1.26431
1.26661
1.26917
1.27205
1.27529
1.27893
1.28294
1.28705
1.29074
1.29327
1.29258
1.20038
1.19986
1.20001
1.20083
1.20191
1.20308
1.20419
1.20517
1.20601
1.20672
1.20732
1.20782
1.20824
1.2086
1.2089
1.20916
1.20938
1.20956
1.20971
1.20984
1.20995
1.21003
1.21011
1.21016
1.21021
1.21024
1.21026
1.21027
1.21028
1.21027
1.21026
1.21024
1.21022
1.21019
1.21015
1.21011
1.21007
1.21002
1.20997
1.20992
1.20987
1.20981
1.20975
1.20969
1.20963
1.20957
1.20951
1.20945
1.20939
1.20933
1.20928
1.20923
1.20918
1.20913
1.20908
1.20904
1.20901
1.20898
1.20895
1.20893
1.20892
1.20891
1.20891
1.20891
1.20892
1.20894
1.20897
1.20901
1.20905
1.2091
1.20916
1.20922
1.2093
1.20938
1.20947
1.20957
1.20968
1.20979
1.20992
1.21005
1.21019
1.21033
1.21049
1.21065
1.21082
1.211
1.21118
1.21137
1.21156
1.21176
1.21197
1.21218
1.2124
1.21262
1.21284
1.21307
1.21329
1.21352
1.21375
1.21398
1.21422
1.21444
1.21467
1.2149
1.21512
1.21534
1.21556
1.21577
1.21598
1.21618
1.21637
1.21656
1.21674
1.21691
1.21708
1.21723
1.21738
1.21751
1.21764
1.21776
1.21787
1.21796
1.21805
1.21813
1.2182
1.21827
1.21832
1.21837
1.21841
1.21844
1.21847
1.21849
1.2185
1.21851
1.21852
1.21852
1.21852
1.21852
1.21851
1.2185
1.21849
1.21847
1.21846
1.21844
1.21842
1.2184
1.21838
1.21836
1.21834
1.21832
1.21831
1.21829
1.21827
1.21825
1.21823
1.21821
1.2182
1.21818
1.21817
1.21815
1.21814
1.21813
1.21812
1.21811
1.2181
1.21809
1.21808
1.21808
1.21807
1.21806
1.21806
1.21806
1.21805
1.21805
1.21805
1.21804
1.21804
1.21804
1.21804
1.21804
1.21804
1.21804
1.21804
1.21803
1.21803
1.21803
1.21803
1.21803
1.21803
1.21802
1.21802
1.21802
1.21801
1.21801
1.21801
1.218
1.21799
1.21799
1.21798
1.21797
1.21796
1.21795
1.21795
1.21794
1.21793
1.21791
1.2179
1.21789
1.21788
1.21787
1.21786
1.21784
1.21783
1.21782
1.21781
1.2178
1.21779
1.21778
1.21778
1.21777
1.21776
1.21776
1.21776
1.21776
1.21777
1.21777
1.21778
1.21779
1.21781
1.21783
1.21785
1.21788
1.21791
1.21795
1.21799
1.21804
1.21809
1.21815
1.21821
1.21829
1.21837
1.21845
1.21855
1.21865
1.21876
1.21887
1.219
1.21913
1.21928
1.21943
1.21959
1.21976
1.21993
1.22012
1.22032
1.22052
1.22074
1.22096
1.22119
1.22143
1.22167
1.22193
1.22219
1.22246
1.22273
1.22301
1.22329
1.22358
1.22387
1.22417
1.22446
1.22476
1.22506
1.22535
1.22565
1.22594
1.22623
1.22651
1.22679
1.22707
1.22733
1.22759
1.22785
1.22809
1.22833
1.22855
1.22877
1.22898
1.22917
1.22936
1.22954
1.22971
1.22987
1.23002
1.23017
1.2303
1.23043
1.23055
1.23067
1.23077
1.23088
1.23097
1.23107
1.23115
1.23124
1.23132
1.23139
1.23147
1.23154
1.23161
1.23167
1.23173
1.2318
1.23185
1.23191
1.23197
1.23202
1.23207
1.23212
1.23217
1.23222
1.23227
1.23231
1.23236
1.2324
1.23244
1.23248
1.23252
1.23255
1.23259
1.23263
1.23267
1.23271
1.23275
1.23279
1.23283
1.23288
1.23292
1.23298
1.23303
1.2331
1.23316
1.23324
1.23332
1.23341
1.23351
1.23363
1.23375
1.23388
1.23403
1.23419
1.23437
1.23456
1.23477
1.23499
1.23524
1.2355
1.23579
1.23609
1.23642
1.23677
1.23715
1.23755
1.23798
1.23844
1.23892
1.23943
1.23997
1.24055
1.24115
1.24179
1.24247
1.24318
1.24392
1.24471
1.24553
1.24641
1.24732
1.24829
1.2493
1.25037
1.25151
1.25271
1.25398
1.25534
1.25679
1.25834
1.26001
1.26182
1.26379
1.26594
1.26829
1.27087
1.27367
1.27665
1.27971
1.28259
1.28481
1.28594
1.28566
1.20246
1.20192
1.20191
1.20232
1.20298
1.20378
1.20459
1.20536
1.20606
1.20668
1.20722
1.20769
1.20809
1.20844
1.20874
1.20899
1.20921
1.2094
1.20956
1.20969
1.20981
1.2099
1.20998
1.21004
1.21009
1.21013
1.21016
1.21017
1.21018
1.21018
1.21017
1.21016
1.21014
1.21011
1.21008
1.21004
1.21
1.20996
1.20991
1.20986
1.20981
1.20975
1.2097
1.20964
1.20958
1.20952
1.20946
1.2094
1.20935
1.20929
1.20924
1.20918
1.20913
1.20909
1.20904
1.209
1.20897
1.20894
1.20891
1.20889
1.20888
1.20887
1.20887
1.20888
1.20889
1.20891
1.20894
1.20898
1.20902
1.20907
1.20914
1.2092
1.20928
1.20936
1.20946
1.20956
1.20967
1.20978
1.20991
1.21004
1.21018
1.21033
1.21048
1.21065
1.21082
1.211
1.21118
1.21137
1.21157
1.21177
1.21198
1.21219
1.21241
1.21263
1.21286
1.21309
1.21332
1.21355
1.21378
1.21401
1.21424
1.21448
1.21471
1.21493
1.21516
1.21538
1.2156
1.21581
1.21602
1.21622
1.21642
1.2166
1.21678
1.21696
1.21712
1.21727
1.21742
1.21756
1.21768
1.2178
1.2179
1.218
1.21809
1.21817
1.21823
1.21829
1.21835
1.21839
1.21843
1.21846
1.21849
1.2185
1.21852
1.21853
1.21853
1.21853
1.21853
1.21852
1.21851
1.2185
1.21849
1.21847
1.21846
1.21844
1.21842
1.2184
1.21838
1.21836
1.21834
1.21832
1.21831
1.21829
1.21827
1.21825
1.21823
1.21822
1.2182
1.21819
1.21817
1.21816
1.21815
1.21813
1.21812
1.21811
1.21811
1.2181
1.21809
1.21808
1.21808
1.21807
1.21807
1.21807
1.21806
1.21806
1.21806
1.21806
1.21806
1.21805
1.21805
1.21805
1.21805
1.21805
1.21805
1.21805
1.21805
1.21805
1.21805
1.21805
1.21804
1.21804
1.21804
1.21804
1.21803
1.21803
1.21802
1.21802
1.21801
1.21801
1.218
1.21799
1.21798
1.21797
1.21796
1.21795
1.21794
1.21793
1.21792
1.21791
1.2179
1.21788
1.21787
1.21786
1.21785
1.21784
1.21782
1.21781
1.2178
1.21779
1.21779
1.21778
1.21778
1.21777
1.21777
1.21777
1.21777
1.21778
1.21779
1.2178
1.21782
1.21783
1.21786
1.21788
1.21792
1.21795
1.21799
1.21804
1.21809
1.21815
1.21822
1.21829
1.21837
1.21845
1.21855
1.21865
1.21876
1.21888
1.219
1.21914
1.21928
1.21943
1.21959
1.21976
1.21994
1.22013
1.22033
1.22053
1.22075
1.22097
1.2212
1.22144
1.22169
1.22195
1.22221
1.22248
1.22275
1.22304
1.22332
1.22361
1.22391
1.2242
1.2245
1.2248
1.2251
1.2254
1.2257
1.22599
1.22628
1.22657
1.22685
1.22713
1.22739
1.22765
1.22791
1.22815
1.22839
1.22861
1.22883
1.22903
1.22923
1.22941
1.22959
1.22976
1.22992
1.23007
1.23021
1.23034
1.23047
1.23059
1.2307
1.2308
1.23091
1.231
1.23109
1.23118
1.23126
1.23134
1.23141
1.23149
1.23156
1.23162
1.23169
1.23175
1.23181
1.23187
1.23193
1.23198
1.23204
1.23209
1.23214
1.23219
1.23224
1.23228
1.23233
1.23237
1.23241
1.23245
1.23249
1.23253
1.23257
1.2326
1.23264
1.23268
1.23272
1.23275
1.23279
1.23283
1.23288
1.23292
1.23298
1.23303
1.23309
1.23316
1.23323
1.23331
1.2334
1.2335
1.23361
1.23373
1.23386
1.234
1.23416
1.23434
1.23453
1.23473
1.23496
1.2352
1.23546
1.23575
1.23605
1.23638
1.23673
1.23711
1.23751
1.23793
1.23839
1.23887
1.23938
1.23992
1.24049
1.24109
1.24173
1.2424
1.2431
1.24385
1.24463
1.24545
1.24631
1.24721
1.24817
1.24917
1.25022
1.25134
1.25251
1.25375
1.25507
1.25647
1.25796
1.25955
1.26126
1.2631
1.26507
1.26718
1.26943
1.27179
1.27419
1.27648
1.27846
1.27987
1.28042
1.28019
1.20392
1.20345
1.20335
1.20354
1.20394
1.20448
1.20507
1.20567
1.20623
1.20676
1.20723
1.20765
1.20802
1.20834
1.20863
1.20888
1.20909
1.20928
1.20944
1.20957
1.20969
1.20979
1.20987
1.20994
1.20999
1.21003
1.21006
1.21008
1.2101
1.2101
1.2101
1.21008
1.21007
1.21004
1.21001
1.20998
1.20994
1.2099
1.20985
1.20981
1.20976
1.2097
1.20965
1.20959
1.20953
1.20947
1.20942
1.20936
1.2093
1.20925
1.20919
1.20914
1.20909
1.20905
1.209
1.20897
1.20893
1.2089
1.20888
1.20886
1.20885
1.20884
1.20884
1.20885
1.20886
1.20888
1.20891
1.20895
1.209
1.20905
1.20911
1.20918
1.20926
1.20934
1.20944
1.20954
1.20965
1.20977
1.20989
1.21003
1.21017
1.21032
1.21048
1.21064
1.21081
1.21099
1.21118
1.21137
1.21157
1.21178
1.21199
1.2122
1.21242
1.21265
1.21288
1.21311
1.21334
1.21357
1.21381
1.21404
1.21427
1.21451
1.21474
1.21497
1.2152
1.21542
1.21564
1.21585
1.21606
1.21627
1.21646
1.21665
1.21683
1.21701
1.21717
1.21733
1.21747
1.21761
1.21773
1.21785
1.21795
1.21804
1.21813
1.21821
1.21827
1.21833
1.21838
1.21842
1.21846
1.21849
1.21851
1.21852
1.21854
1.21854
1.21855
1.21854
1.21854
1.21853
1.21852
1.21851
1.2185
1.21848
1.21846
1.21844
1.21843
1.21841
1.21839
1.21837
1.21835
1.21833
1.21831
1.21829
1.21827
1.21825
1.21824
1.21822
1.21821
1.21819
1.21818
1.21816
1.21815
1.21814
1.21813
1.21812
1.21811
1.21811
1.2181
1.21809
1.21809
1.21809
1.21808
1.21808
1.21808
1.21807
1.21807
1.21807
1.21807
1.21807
1.21807
1.21807
1.21807
1.21807
1.21807
1.21807
1.21807
1.21807
1.21807
1.21807
1.21806
1.21806
1.21806
1.21806
1.21805
1.21805
1.21804
1.21804
1.21803
1.21803
1.21802
1.21801
1.218
1.21799
1.21798
1.21797
1.21796
1.21795
1.21794
1.21793
1.21791
1.2179
1.21789
1.21788
1.21786
1.21785
1.21784
1.21783
1.21782
1.21781
1.2178
1.21779
1.21779
1.21778
1.21778
1.21778
1.21778
1.21779
1.2178
1.21781
1.21782
1.21784
1.21786
1.21789
1.21792
1.21795
1.218
1.21804
1.2181
1.21815
1.21822
1.21829
1.21837
1.21845
1.21855
1.21865
1.21876
1.21888
1.219
1.21914
1.21928
1.21943
1.21959
1.21976
1.21994
1.22013
1.22033
1.22054
1.22075
1.22098
1.22121
1.22145
1.2217
1.22196
1.22223
1.2225
1.22278
1.22306
1.22335
1.22364
1.22394
1.22424
1.22454
1.22484
1.22515
1.22545
1.22575
1.22605
1.22634
1.22663
1.22691
1.22719
1.22746
1.22772
1.22797
1.22822
1.22845
1.22868
1.22889
1.2291
1.22929
1.22948
1.22965
1.22982
1.22997
1.23012
1.23026
1.23039
1.23051
1.23063
1.23074
1.23084
1.23094
1.23103
1.23112
1.23121
1.23129
1.23136
1.23144
1.23151
1.23158
1.23165
1.23171
1.23177
1.23183
1.23189
1.23195
1.232
1.23206
1.23211
1.23216
1.23221
1.23226
1.2323
1.23235
1.23239
1.23243
1.23247
1.23251
1.23255
1.23259
1.23262
1.23266
1.23269
1.23273
1.23276
1.2328
1.23284
1.23288
1.23293
1.23297
1.23303
1.23308
1.23315
1.23322
1.2333
1.23338
1.23348
1.23359
1.2337
1.23383
1.23397
1.23413
1.2343
1.23449
1.23469
1.23491
1.23515
1.23541
1.23569
1.236
1.23632
1.23667
1.23704
1.23744
1.23786
1.23831
1.23879
1.2393
1.23983
1.2404
1.241
1.24163
1.2423
1.243
1.24373
1.2445
1.24531
1.24617
1.24706
1.248
1.24898
1.25001
1.2511
1.25224
1.25344
1.25471
1.25605
1.25747
1.25897
1.26057
1.26226
1.26404
1.26591
1.26785
1.26981
1.2717
1.27342
1.27481
1.27572
1.27603
1.2757
1.20499
1.2046
1.20446
1.20453
1.20478
1.20514
1.20556
1.20602
1.20647
1.2069
1.20731
1.20767
1.20801
1.2083
1.20857
1.2088
1.20901
1.20919
1.20935
1.20948
1.2096
1.2097
1.20978
1.20985
1.2099
1.20995
1.20998
1.21
1.21002
1.21002
1.21002
1.21001
1.21
1.20998
1.20995
1.20992
1.20988
1.20984
1.2098
1.20975
1.2097
1.20965
1.2096
1.20954
1.20949
1.20943
1.20937
1.20932
1.20926
1.2092
1.20915
1.2091
1.20905
1.20901
1.20897
1.20893
1.20889
1.20886
1.20884
1.20882
1.20881
1.2088
1.20881
1.20881
1.20883
1.20885
1.20888
1.20892
1.20897
1.20902
1.20908
1.20915
1.20923
1.20932
1.20942
1.20952
1.20963
1.20975
1.20988
1.21001
1.21016
1.21031
1.21047
1.21063
1.21081
1.21099
1.21118
1.21137
1.21157
1.21178
1.21199
1.21221
1.21244
1.21266
1.21289
1.21312
1.21336
1.21359
1.21383
1.21407
1.21431
1.21454
1.21477
1.21501
1.21524
1.21546
1.21568
1.2159
1.21611
1.21632
1.21652
1.21671
1.21689
1.21706
1.21723
1.21738
1.21753
1.21766
1.21779
1.2179
1.218
1.2181
1.21818
1.21825
1.21832
1.21837
1.21842
1.21846
1.21849
1.21852
1.21854
1.21855
1.21856
1.21856
1.21857
1.21856
1.21856
1.21855
1.21853
1.21852
1.21851
1.21849
1.21847
1.21845
1.21843
1.21841
1.21839
1.21837
1.21835
1.21833
1.21831
1.2183
1.21828
1.21826
1.21824
1.21823
1.21821
1.2182
1.21819
1.21817
1.21816
1.21815
1.21814
1.21813
1.21813
1.21812
1.21811
1.21811
1.2181
1.2181
1.2181
1.21809
1.21809
1.21809
1.21809
1.21809
1.21809
1.21809
1.21809
1.21809
1.21809
1.21809
1.21809
1.21809
1.21809
1.21809
1.21809
1.21809
1.21809
1.21809
1.21808
1.21808
1.21808
1.21807
1.21807
1.21806
1.21806
1.21805
1.21804
1.21804
1.21803
1.21802
1.21801
1.218
1.21799
1.21797
1.21796
1.21795
1.21794
1.21792
1.21791
1.2179
1.21788
1.21787
1.21786
1.21785
1.21783
1.21782
1.21782
1.21781
1.2178
1.2178
1.21779
1.21779
1.21779
1.2178
1.2178
1.21781
1.21783
1.21784
1.21787
1.21789
1.21792
1.21796
1.218
1.21804
1.2181
1.21815
1.21822
1.21829
1.21837
1.21845
1.21855
1.21865
1.21875
1.21887
1.219
1.21913
1.21928
1.21943
1.21959
1.21976
1.21994
1.22013
1.22033
1.22054
1.22076
1.22098
1.22122
1.22146
1.22171
1.22197
1.22224
1.22252
1.2228
1.22308
1.22338
1.22367
1.22397
1.22428
1.22458
1.22489
1.22519
1.2255
1.2258
1.2261
1.2264
1.22669
1.22698
1.22726
1.22753
1.22779
1.22805
1.22829
1.22853
1.22875
1.22897
1.22917
1.22936
1.22955
1.22972
1.22988
1.23004
1.23018
1.23032
1.23044
1.23056
1.23068
1.23078
1.23089
1.23098
1.23107
1.23116
1.23124
1.23132
1.23139
1.23147
1.23154
1.23161
1.23167
1.23173
1.2318
1.23186
1.23191
1.23197
1.23203
1.23208
1.23213
1.23218
1.23223
1.23228
1.23233
1.23237
1.23241
1.23246
1.23249
1.23253
1.23257
1.2326
1.23264
1.23267
1.23271
1.23274
1.23277
1.23281
1.23285
1.23289
1.23293
1.23297
1.23302
1.23308
1.23314
1.23321
1.23328
1.23336
1.23346
1.23356
1.23367
1.2338
1.23394
1.23409
1.23426
1.23444
1.23464
1.23486
1.2351
1.23535
1.23563
1.23593
1.23625
1.23659
1.23696
1.23736
1.23778
1.23822
1.2387
1.2392
1.23973
1.24029
1.24088
1.24151
1.24217
1.24286
1.24358
1.24435
1.24515
1.24598
1.24686
1.24778
1.24874
1.24975
1.2508
1.25191
1.25307
1.25428
1.25556
1.25689
1.2583
1.25977
1.26131
1.26291
1.26455
1.2662
1.26781
1.26931
1.27061
1.2716
1.27221
1.27236
1.27201
1.20582
1.20549
1.20534
1.20535
1.20549
1.20573
1.20604
1.20638
1.20674
1.20709
1.20743
1.20775
1.20804
1.20831
1.20855
1.20877
1.20896
1.20913
1.20928
1.20941
1.20953
1.20962
1.20971
1.20978
1.20983
1.20988
1.20991
1.20994
1.20995
1.20996
1.20996
1.20995
1.20994
1.20992
1.2099
1.20987
1.20983
1.20979
1.20975
1.20971
1.20966
1.20961
1.20956
1.2095
1.20945
1.20939
1.20933
1.20928
1.20922
1.20917
1.20911
1.20906
1.20902
1.20897
1.20893
1.20889
1.20886
1.20883
1.20881
1.20879
1.20878
1.20877
1.20877
1.20878
1.2088
1.20882
1.20885
1.20889
1.20894
1.20899
1.20906
1.20913
1.20921
1.2093
1.20939
1.2095
1.20961
1.20973
1.20986
1.21
1.21014
1.21029
1.21045
1.21062
1.2108
1.21098
1.21117
1.21137
1.21157
1.21178
1.212
1.21222
1.21244
1.21267
1.21291
1.21314
1.21338
1.21362
1.21386
1.2141
1.21434
1.21457
1.21481
1.21504
1.21528
1.2155
1.21573
1.21595
1.21616
1.21637
1.21657
1.21676
1.21695
1.21712
1.21729
1.21744
1.21759
1.21772
1.21785
1.21796
1.21806
1.21815
1.21823
1.2183
1.21837
1.21842
1.21846
1.2185
1.21853
1.21855
1.21857
1.21858
1.21859
1.21859
1.21859
1.21858
1.21858
1.21856
1.21855
1.21854
1.21852
1.2185
1.21848
1.21846
1.21844
1.21842
1.2184
1.21838
1.21836
1.21834
1.21832
1.2183
1.21829
1.21827
1.21825
1.21824
1.21822
1.21821
1.2182
1.21818
1.21817
1.21816
1.21815
1.21815
1.21814
1.21813
1.21813
1.21812
1.21812
1.21812
1.21812
1.21811
1.21811
1.21811
1.21811
1.21811
1.21811
1.21811
1.21811
1.21811
1.21812