# vtk DataFile Version 2.0
LBE mesh
ASCII
DATASET STRUCTURED_POINTS
DIMENSIONS 400 100 1
ASPECT_RATIO 1 1 1
ORIGIN 0 0 0
POINT_DATA 40000
SCALARS rho double 1
LOOKUP_TABLE default
1.04557
1.10287
1.11999
1.12421
1.12642
1.12815
1.12937
1.13017
1.13071
1.13111
1.13141
1.13164
1.13182
1.13196
1.13207
1.13216
1.13222
1.13228
1.13232
1.13235
1.13237
1.13238
1.13239
1.13239
1.13239
1.13238
1.13238
1.13236
1.13235
1.13234
1.13232
1.1323
1.13228
1.13227
1.13225
1.13223
1.13221
1.1322
1.13218
1.13217
1.13215
1.13214
1.13213
1.13213
1.13212
1.13212
1.13212
1.13213
1.13214
1.13216
1.13218
1.1322
1.13223
1.13227
1.13231
1.13236
1.13241
1.13247
1.13254
1.13262
1.13271
1.1328
1.1329
1.13302
1.13314
1.13327
1.13341
1.13356
1.13372
1.1339
1.13408
1.13427
1.13447
1.13469
1.13491
1.13514
1.13539
1.13564
1.13591
1.13618
1.13647
1.13676
1.13706
1.13738
1.1377
1.13802
1.13836
1.1387
1.13904
1.1394
1.13975
1.14011
1.14048
1.14084
1.14121
1.14158
1.14194
1.14231
1.14267
1.14304
1.14339
1.14375
1.1441
1.14444
1.14478
1.1451
1.14542
1.14573
1.14604
1.14633
1.14661
1.14688
1.14714
1.14738
1.14761
1.14783
1.14804
1.14824
1.14842
1.14859
1.14874
1.14889
1.14902
1.14914
1.14925
1.14935
1.14944
1.14952
1.1496
1.14966
1.14972
1.14977
1.14981
1.14985
1.14989
1.14992
1.14994
1.14997
1.14999
1.15001
1.15003
1.15004
1.15006
1.15007
1.15009
1.15011
1.15012
1.15014
1.15016
1.15018
1.1502
1.15022
1.15024
1.15027
1.1503
1.15033
1.15036
1.1504
1.15044
1.15048
1.15052
1.15057
1.15062
1.15067
1.15073
1.15079
1.15085
1.15091
1.15097
1.15104
1.15111
1.15119
1.15126
1.15134
1.15142
1.1515
1.15159
1.15168
1.15176
1.15185
1.15194
1.15204
1.15213
1.15222
1.15232
1.15241
1.15251
1.15261
1.1527
1.1528
1.1529
1.15299
1.15309
1.15318
1.15328
1.15337
1.15346
1.15356
1.15365
1.15373
1.15382
1.15391
1.15399
1.15408
1.15416
1.15424
1.15432
1.1544
1.15447
1.15455
1.15462
1.15469
1.15477
1.15483
1.1549
1.15497
1.15504
1.1551
1.15517
1.15523
1.1553
1.15536
1.15543
1.1555
1.15556
1.15563
1.1557
1.15577
1.15584
1.15591
1.15599
1.15607
1.15615
1.15624
1.15633
1.15642
1.15652
1.15663
1.15673
1.15685
1.15697
1.1571
1.15723
1.15737
1.15752
1.15768
1.15785
1.15802
1.1582
1.1584
1.1586
1.15881
1.15904
1.15927
1.15952
1.15977
1.16004
1.16032
1.16061
1.1609
1.16122
1.16154
1.16187
1.16221
1.16256
1.16292
1.16329
1.16367
1.16406
1.16445
1.16485
1.16526
1.16566
1.16608
1.1665
1.16691
1.16733
1.16775
1.16817
1.16859
1.169
1.16941
1.16982
1.17022
1.17062
1.17101
1.17139
1.17177
1.17213
1.17249
1.17284
1.17319
1.17352
1.17385
1.17416
1.17447
1.17477
1.17506
1.17534
1.17562
1.17588
1.17614
1.17639
1.17663
1.17687
1.17709
1.17731
1.17753
1.17773
1.17793
1.17812
1.1783
1.17847
1.17864
1.1788
1.17895
1.17909
1.17922
1.17935
1.17946
1.17957
1.17967
1.17977
1.17985
1.17993
1.18
1.18006
1.18011
1.18016
1.1802
1.18024
1.18027
1.1803
1.18032
1.18034
1.18036
1.18038
1.18039
1.18041
1.18043
1.18044
1.18047
1.18049
1.18053
1.18056
1.18061
1.18066
1.18073
1.1808
1.18088
1.18098
1.18109
1.18122
1.18136
1.18152
1.1817
1.1819
1.18212
1.18236
1.18262
1.18291
1.18322
1.18355
1.18392
1.18431
1.18473
1.18518
1.18566
1.18617
1.18672
1.1873
1.18791
1.18857
1.18926
1.18999
1.19076
1.19157
1.19243
1.19334
1.19431
1.19533
1.19641
1.19757
1.19879
1.20011
1.20152
1.20305
1.20471
1.20653
1.20855
1.2108
1.21336
1.21632
1.21982
1.22405
1.22952
1.23723
1.24815
1.26273
1.28941
1.08927
1.10065
1.1116
1.1198
1.12413
1.12645
1.12793
1.12898
1.12976
1.13032
1.13075
1.13107
1.13133
1.13153
1.13169
1.13182
1.13193
1.13201
1.13207
1.13213
1.13217
1.1322
1.13222
1.13224
1.13225
1.13225
1.13225
1.13225
1.13224
1.13224
1.13223
1.13222
1.1322
1.13219
1.13218
1.13216
1.13215
1.13214
1.13212
1.13211
1.1321
1.13209
1.13209
1.13208
1.13208
1.13209
1.13209
1.1321
1.13211
1.13213
1.13215
1.13218
1.13221
1.13225
1.13229
1.13234
1.1324
1.13246
1.13253
1.13262
1.1327
1.1328
1.1329
1.13302
1.13314
1.13328
1.13342
1.13357
1.13374
1.13391
1.13409
1.13429
1.13449
1.13471
1.13493
1.13517
1.13541
1.13567
1.13594
1.13621
1.1365
1.13679
1.13709
1.13741
1.13773
1.13805
1.13839
1.13873
1.13908
1.13943
1.13978
1.14014
1.14051
1.14087
1.14124
1.1416
1.14197
1.14234
1.1427
1.14306
1.14342
1.14377
1.14411
1.14446
1.14479
1.14512
1.14543
1.14574
1.14604
1.14633
1.14661
1.14688
1.14713
1.14738
1.14761
1.14782
1.14803
1.14822
1.1484
1.14857
1.14873
1.14887
1.149
1.14912
1.14923
1.14933
1.14942
1.1495
1.14957
1.14964
1.1497
1.14975
1.14979
1.14983
1.14987
1.1499
1.14993
1.14995
1.14997
1.14999
1.15001
1.15003
1.15005
1.15006
1.15008
1.1501
1.15011
1.15013
1.15015
1.15017
1.15019
1.15022
1.15024
1.15027
1.1503
1.15033
1.15036
1.1504
1.15044
1.15048
1.15053
1.15057
1.15062
1.15068
1.15073
1.15079
1.15085
1.15091
1.15098
1.15105
1.15112
1.15119
1.15127
1.15135
1.15143
1.15151
1.1516
1.15168
1.15177
1.15186
1.15195
1.15205
1.15214
1.15223
1.15233
1.15242
1.15252
1.15262
1.15271
1.15281
1.15291
1.153
1.1531
1.15319
1.15329
1.15338
1.15347
1.15357
1.15366
1.15374
1.15383
1.15392
1.154
1.15409
1.15417
1.15425
1.15433
1.15441
1.15448
1.15456
1.15463
1.1547
1.15477
1.15484
1.15491
1.15498
1.15505
1.15511
1.15518
1.15524
1.15531
1.15537
1.15544
1.1555
1.15557
1.15564
1.15571
1.15578
1.15585
1.15593
1.156
1.15608
1.15617
1.15625
1.15634
1.15644
1.15654
1.15664
1.15675
1.15687
1.15699
1.15712
1.15725
1.1574
1.15755
1.15771
1.15787
1.15805
1.15823
1.15843
1.15863
1.15885
1.15907
1.15931
1.15955
1.15981
1.16008
1.16036
1.16065
1.16095
1.16126
1.16158
1.16191
1.16225
1.16261
1.16297
1.16334
1.16372
1.1641
1.16449
1.16489
1.1653
1.16571
1.16612
1.16654
1.16695
1.16737
1.16779
1.16821
1.16862
1.16903
1.16944
1.16985
1.17025
1.17064
1.17103
1.17141
1.17178
1.17215
1.1725
1.17285
1.17319
1.17353
1.17385
1.17416
1.17447
1.17477
1.17506
1.17534
1.17561
1.17588
1.17613
1.17638
1.17663
1.17686
1.17709
1.1773
1.17752
1.17772
1.17792
1.1781
1.17828
1.17846
1.17862
1.17878
1.17893
1.17907
1.1792
1.17933
1.17945
1.17955
1.17966
1.17975
1.17983
1.17991
1.17998
1.18004
1.18009
1.18014
1.18018
1.18022
1.18025
1.18028
1.1803
1.18032
1.18034
1.18036
1.18038
1.18039
1.18041
1.18043
1.18046
1.18049
1.18052
1.18056
1.18061
1.18066
1.18073
1.1808
1.18089
1.18099
1.18111
1.18124
1.18138
1.18155
1.18173
1.18193
1.18215
1.18239
1.18266
1.18295
1.18327
1.18361
1.18397
1.18437
1.18479
1.18525
1.18573
1.18625
1.1868
1.18739
1.18801
1.18867
1.18936
1.1901
1.19088
1.1917
1.19257
1.19349
1.19446
1.19549
1.19659
1.19776
1.199
1.20034
1.20178
1.20334
1.20504
1.20691
1.20899
1.21133
1.214
1.21712
1.22083
1.22542
1.23121
1.23865
1.24936
1.26848
1.29949
1.10757
1.10757
1.11399
1.11927
1.12267
1.12511
1.12684
1.12808
1.12897
1.12965
1.13016
1.13057
1.13089
1.13114
1.13135
1.13152
1.13165
1.13176
1.13185
1.13192
1.13198
1.13203
1.13206
1.13209
1.13211
1.13213
1.13214
1.13214
1.13215
1.13214
1.13214
1.13213
1.13213
1.13212
1.13211
1.1321
1.13209
1.13208
1.13207
1.13206
1.13206
1.13205
1.13205
1.13205
1.13205
1.13205
1.13206
1.13207
1.13208
1.1321
1.13213
1.13216
1.13219
1.13223
1.13227
1.13233
1.13239
1.13245
1.13253
1.13261
1.1327
1.1328
1.1329
1.13302
1.13314
1.13328
1.13342
1.13358
1.13374
1.13392
1.1341
1.1343
1.1345
1.13472
1.13495
1.13519
1.13543
1.13569
1.13596
1.13624
1.13652
1.13682
1.13712
1.13743
1.13775
1.13808
1.13842
1.13876
1.13911
1.13946
1.13981
1.14018
1.14054
1.1409
1.14127
1.14164
1.142
1.14237
1.14273
1.14309
1.14344
1.14379
1.14414
1.14448
1.14481
1.14514
1.14545
1.14576
1.14606
1.14635
1.14662
1.14689
1.14714
1.14739
1.14761
1.14783
1.14804
1.14823
1.14841
1.14857
1.14873
1.14887
1.149
1.14912
1.14923
1.14932
1.14941
1.14949
1.14957
1.14963
1.14969
1.14974
1.14978
1.14982
1.14986
1.14989
1.14992
1.14994
1.14997
1.14999
1.15001
1.15003
1.15004
1.15006
1.15008
1.1501
1.15011
1.15013
1.15015
1.15017
1.1502
1.15022
1.15025
1.15027
1.1503
1.15034
1.15037
1.15041
1.15045
1.15049
1.15054
1.15058
1.15063
1.15069
1.15074
1.1508
1.15086
1.15093
1.151
1.15107
1.15114
1.15121
1.15129
1.15137
1.15145
1.15153
1.15162
1.1517
1.15179
1.15188
1.15197
1.15207
1.15216
1.15225
1.15235
1.15244
1.15254
1.15264
1.15273
1.15283
1.15293
1.15302
1.15312
1.15321
1.15331
1.1534
1.15349
1.15359
1.15368
1.15376
1.15385
1.15394
1.15402
1.15411
1.15419
1.15427
1.15435
1.15443
1.1545
1.15458
1.15465
1.15472
1.15479
1.15486
1.15493
1.155
1.15506
1.15513
1.1552
1.15526
1.15533
1.15539
1.15546
1.15552
1.15559
1.15566
1.15573
1.1558
1.15587
1.15594
1.15602
1.1561
1.15619
1.15627
1.15636
1.15646
1.15656
1.15666
1.15677
1.15689
1.15701
1.15714
1.15728
1.15742
1.15757
1.15773
1.1579
1.15808
1.15826
1.15846
1.15866
1.15888
1.1591
1.15934
1.15959
1.15985
1.16011
1.16039
1.16068
1.16099
1.1613
1.16162
1.16195
1.1623
1.16265
1.16301
1.16338
1.16376
1.16415
1.16454
1.16494
1.16534
1.16575
1.16617
1.16658
1.167
1.16741
1.16783
1.16825
1.16866
1.16907
1.16948
1.16988
1.17028
1.17067
1.17106
1.17144
1.17181
1.17217
1.17253
1.17287
1.17321
1.17354
1.17386
1.17418
1.17448
1.17478
1.17507
1.17535
1.17562
1.17588
1.17614
1.17639
1.17663
1.17686
1.17708
1.1773
1.17751
1.17772
1.17791
1.1781
1.17828
1.17845
1.17862
1.17878
1.17892
1.17906
1.1792
1.17932
1.17944
1.17955
1.17965
1.17974
1.17982
1.1799
1.17997
1.18003
1.18008
1.18013
1.18017
1.18021
1.18024
1.18027
1.18029
1.18031
1.18033
1.18035
1.18037
1.18038
1.1804
1.18042
1.18045
1.18048
1.18051
1.18055
1.1806
1.18066
1.18073
1.1808
1.18089
1.181
1.18111
1.18124
1.18139
1.18156
1.18174
1.18194
1.18217
1.18241
1.18268
1.18298
1.18329
1.18364
1.18401
1.18441
1.18484
1.18529
1.18578
1.1863
1.18686
1.18745
1.18807
1.18873
1.18943
1.19017
1.19095
1.19178
1.19265
1.19358
1.19456
1.1956
1.1967
1.19787
1.19912
1.20047
1.20192
1.20349
1.2052
1.20708
1.20918
1.21153
1.21422
1.21733
1.221
1.22542
1.23097
1.23815
1.24709
1.25679
1.26671
1.11587
1.11514
1.11731
1.11993
1.1226
1.12473
1.1263
1.1275
1.12842
1.12914
1.12971
1.13016
1.13052
1.13081
1.13105
1.13124
1.1314
1.13154
1.13165
1.13174
1.13181
1.13187
1.13192
1.13196
1.13199
1.13201
1.13203
1.13205
1.13205
1.13206
1.13206
1.13206
1.13206
1.13205
1.13205
1.13204
1.13204
1.13203
1.13202
1.13202
1.13201
1.13201
1.13201
1.13201
1.13201
1.13202
1.13203
1.13204
1.13206
1.13208
1.1321
1.13214
1.13217
1.13221
1.13226
1.13231
1.13237
1.13244
1.13252
1.1326
1.13269
1.13279
1.1329
1.13302
1.13314
1.13328
1.13342
1.13358
1.13375
1.13392
1.13411
1.13431
1.13451
1.13473
1.13496
1.1352
1.13545
1.13571
1.13598
1.13625
1.13654
1.13684
1.13714
1.13746
1.13778
1.13811
1.13845
1.13879
1.13914
1.13949
1.13985
1.14021
1.14057
1.14094
1.1413
1.14167
1.14204
1.1424
1.14276
1.14312
1.14348
1.14383
1.14417
1.14451
1.14485
1.14517
1.14549
1.14579
1.14609
1.14638
1.14665
1.14692
1.14717
1.14741
1.14764
1.14785
1.14806
1.14825
1.14842
1.14859
1.14874
1.14888
1.14901
1.14913
1.14923
1.14933
1.14942
1.1495
1.14957
1.14963
1.14969
1.14974
1.14979
1.14983
1.14986
1.14989
1.14992
1.14995
1.14997
1.14999
1.15001
1.15003
1.15005
1.15007
1.15008
1.1501
1.15012
1.15014
1.15016
1.15018
1.15021
1.15023
1.15026
1.15029
1.15032
1.15035
1.15039
1.15043
1.15047
1.15051
1.15056
1.1506
1.15066
1.15071
1.15077
1.15083
1.15089
1.15095
1.15102
1.15109
1.15116
1.15124
1.15131
1.15139
1.15147
1.15156
1.15164
1.15173
1.15182
1.15191
1.152
1.15209
1.15219
1.15228
1.15238
1.15247
1.15257
1.15267
1.15276
1.15286
1.15296
1.15305
1.15315
1.15324
1.15334
1.15343
1.15352
1.15362
1.15371
1.15379
1.15388
1.15397
1.15405
1.15414
1.15422
1.1543
1.15438
1.15445
1.15453
1.1546
1.15468
1.15475
1.15482
1.15489
1.15496
1.15502
1.15509
1.15516
1.15522
1.15529
1.15535
1.15542
1.15548
1.15555
1.15561
1.15568
1.15575
1.15582
1.15589
1.15597
1.15605
1.15613
1.15621
1.1563
1.15639
1.15648
1.15658
1.15669
1.1568
1.15692
1.15704
1.15717
1.1573
1.15745
1.1576
1.15776
1.15793
1.15811
1.15829
1.15849
1.15869
1.15891
1.15914
1.15937
1.15962
1.15988
1.16015
1.16043
1.16072
1.16102
1.16134
1.16166
1.162
1.16234
1.16269
1.16306
1.16343
1.16381
1.1642
1.16459
1.16499
1.16539
1.1658
1.16622
1.16663
1.16705
1.16746
1.16788
1.1683
1.16871
1.16912
1.16953
1.16993
1.17033
1.17072
1.1711
1.17148
1.17185
1.17221
1.17256
1.17291
1.17324
1.17357
1.17389
1.1742
1.1745
1.1748
1.17508
1.17536
1.17563
1.17589
1.17615
1.1764
1.17664
1.17687
1.17709
1.17731
1.17752
1.17772
1.17792
1.1781
1.17828
1.17846
1.17862
1.17878
1.17893
1.17907
1.1792
1.17932
1.17944
1.17955
1.17965
1.17974
1.17982
1.1799
1.17996
1.18002
1.18008
1.18012
1.18017
1.1802
1.18023
1.18026
1.18028
1.1803
1.18032
1.18034
1.18036
1.18037
1.18039
1.18042
1.18044
1.18047
1.1805
1.18055
1.18059
1.18065
1.18072
1.1808
1.18089
1.18099
1.18111
1.18124
1.18139
1.18156
1.18174
1.18195
1.18217
1.18242
1.18269
1.18298
1.1833
1.18365
1.18402
1.18442
1.18485
1.18531
1.1858
1.18633
1.18688
1.18747
1.1881
1.18876
1.18947
1.19021
1.19099
1.19182
1.1927
1.19362
1.1946
1.19564
1.19674
1.19791
1.19916
1.2005
1.20194
1.2035
1.2052
1.20706
1.20912
1.21143
1.21403
1.21701
1.22047
1.22452
1.22925
1.23475
1.24091
1.24591
1.24616
1.12003
1.11955
1.12022
1.12164
1.12335
1.12487
1.12618
1.12725
1.12812
1.12882
1.12938
1.12985
1.13023
1.13054
1.1308
1.13101
1.13119
1.13134
1.13147
1.13157
1.13166
1.13173
1.13179
1.13184
1.13188
1.13191
1.13194
1.13196
1.13197
1.13198
1.13199
1.13199
1.132
1.132
1.13199
1.13199
1.13199
1.13199
1.13198
1.13198
1.13198
1.13198
1.13198
1.13198
1.13199
1.13199
1.13201
1.13202
1.13204
1.13206
1.13209
1.13212
1.13215
1.1322
1.13224
1.1323
1.13236
1.13243
1.13251
1.13259
1.13268
1.13278
1.13289
1.13301
1.13314
1.13328
1.13342
1.13358
1.13375
1.13393
1.13411
1.13431
1.13452
1.13474
1.13497
1.13521
1.13546
1.13572
1.13599
1.13627
1.13656
1.13686
1.13716
1.13748
1.1378
1.13813
1.13847
1.13881
1.13916
1.13952
1.13988
1.14024
1.1406
1.14097
1.14134
1.14171
1.14207
1.14244
1.1428
1.14316
1.14352
1.14387
1.14422
1.14456
1.14489
1.14521
1.14553
1.14584
1.14613
1.14642
1.14669
1.14696
1.14721
1.14745
1.14768
1.14789
1.14809
1.14828
1.14846
1.14862
1.14877
1.14891
1.14904
1.14915
1.14926
1.14935
1.14944
1.14952
1.14959
1.14965
1.14971
1.14976
1.1498
1.14984
1.14988
1.14991
1.14994
1.14996
1.14998
1.15001
1.15003
1.15005
1.15006
1.15008
1.1501
1.15012
1.15014
1.15016
1.15018
1.1502
1.15023
1.15025
1.15028
1.15031
1.15034
1.15038
1.15041
1.15045
1.15049
1.15054
1.15058
1.15063
1.15068
1.15074
1.1508
1.15086
1.15092
1.15099
1.15105
1.15112
1.1512
1.15127
1.15135
1.15143
1.15151
1.1516
1.15168
1.15177
1.15186
1.15195
1.15204
1.15213
1.15223
1.15232
1.15242
1.15251
1.15261
1.15271
1.1528
1.1529
1.153
1.15309
1.15319
1.15328
1.15338
1.15347
1.15356
1.15365
1.15374
1.15383
1.15392
1.15401
1.15409
1.15417
1.15426
1.15434
1.15441
1.15449
1.15457
1.15464
1.15471
1.15478
1.15485
1.15492
1.15499
1.15506
1.15512
1.15519
1.15525
1.15532
1.15538
1.15545
1.15551
1.15558
1.15565
1.15571
1.15578
1.15585
1.15592
1.156
1.15608
1.15616
1.15624
1.15633
1.15642
1.15651
1.15661
1.15672
1.15683
1.15694
1.15707
1.1572
1.15733
1.15748
1.15763
1.15779
1.15796
1.15814
1.15832
1.15852
1.15872
1.15894
1.15917
1.15941
1.15965
1.15991
1.16018
1.16047
1.16076
1.16106
1.16138
1.1617
1.16204
1.16238
1.16274
1.1631
1.16347
1.16385
1.16424
1.16464
1.16504
1.16544
1.16585
1.16627
1.16668
1.1671
1.16752
1.16794
1.16835
1.16877
1.16918
1.16958
1.16998
1.17038
1.17077
1.17115
1.17153
1.17189
1.17225
1.1726
1.17295
1.17328
1.17361
1.17393
1.17423
1.17453
1.17483
1.17511
1.17539
1.17566
1.17592
1.17617
1.17642
1.17665
1.17688
1.17711
1.17732
1.17753
1.17774
1.17793
1.17812
1.1783
1.17847
1.17863
1.17879
1.17894
1.17908
1.17921
1.17933
1.17945
1.17956
1.17965
1.17975
1.17983
1.1799
1.17997
1.18003
1.18008
1.18013
1.18017
1.1802
1.18023
1.18026
1.18028
1.1803
1.18032
1.18034
1.18035
1.18037
1.18039
1.18041
1.18043
1.18046
1.1805
1.18054
1.18058
1.18064
1.18071
1.18079
1.18088
1.18098
1.1811
1.18123
1.18138
1.18154
1.18173
1.18193
1.18216
1.18241
1.18268
1.18297
1.18329
1.18364
1.18401
1.18441
1.18485
1.18531
1.1858
1.18632
1.18688
1.18747
1.1881
1.18876
1.18946
1.1902
1.19099
1.19182
1.19269
1.19361
1.19459
1.19562
1.19671
1.19787
1.19911
1.20043
1.20185
1.20338
1.20504
1.20685
1.20883
1.21103
1.21348
1.21623
1.21933
1.22281
1.22665
1.23058
1.23413
1.23661
1.23596
1.1228
1.12234
1.12253
1.12329
1.1243
1.12537
1.12638
1.12727
1.12802
1.12866
1.1292
1.12965
1.13003
1.13034
1.13061
1.13083
1.13102
1.13118
1.13132
1.13143
1.13153
1.13161
1.13168
1.13174
1.13178
1.13182
1.13185
1.13188
1.1319
1.13191
1.13193
1.13193
1.13194
1.13194
1.13195
1.13195
1.13195
1.13195
1.13195
1.13195
1.13195
1.13195
1.13195
1.13196
1.13196
1.13197
1.13198
1.132
1.13202
1.13204
1.13207
1.1321
1.13214
1.13218
1.13223
1.13229
1.13235
1.13242
1.1325
1.13258
1.13267
1.13277
1.13288
1.133
1.13313
1.13327
1.13342
1.13358
1.13375
1.13393
1.13411
1.13431
1.13452
1.13474
1.13497
1.13522
1.13547
1.13573
1.136
1.13628
1.13657
1.13687
1.13718
1.1375
1.13782
1.13816
1.13849
1.13884
1.13919
1.13955
1.13991
1.14027
1.14064
1.14101
1.14138
1.14175
1.14212
1.14248
1.14285
1.14321
1.14357
1.14392
1.14427
1.14461
1.14494
1.14526
1.14558
1.14589
1.14619
1.14647
1.14675
1.14701
1.14726
1.1475
1.14773
1.14794
1.14814
1.14833
1.1485
1.14866
1.14881
1.14895
1.14908
1.14919
1.14929
1.14939
1.14947
1.14955
1.14962
1.14968
1.14973
1.14978
1.14983
1.14987
1.1499
1.14993
1.14996
1.14998
1.15001
1.15003
1.15005
1.15007
1.15009
1.15011
1.15013
1.15015
1.15017
1.15019
1.15021
1.15023
1.15026
1.15028
1.15031
1.15034
1.15037
1.15041
1.15045
1.15049
1.15053
1.15057
1.15062
1.15067
1.15072
1.15078
1.15084
1.1509
1.15096
1.15103
1.1511
1.15117
1.15124
1.15132
1.15139
1.15147
1.15156
1.15164
1.15173
1.15182
1.15191
1.152
1.15209
1.15218
1.15228
1.15237
1.15247
1.15256
1.15266
1.15276
1.15285
1.15295
1.15305
1.15314
1.15324
1.15333
1.15343
1.15352
1.15361
1.1537
1.15379
1.15388
1.15397
1.15406
1.15414
1.15422
1.1543
1.15438
1.15446
1.15454
1.15461
1.15469
1.15476
1.15483
1.1549
1.15497
1.15503
1.1551
1.15517
1.15523
1.1553
1.15536
1.15542
1.15549
1.15555
1.15562
1.15568
1.15575
1.15582
1.15589
1.15596
1.15604
1.15611
1.15619
1.15627
1.15636
1.15645
1.15655
1.15665
1.15675
1.15686
1.15698
1.1571
1.15723
1.15736
1.15751
1.15766
1.15782
1.15799
1.15817
1.15835
1.15855
1.15876
1.15897
1.1592
1.15944
1.15969
1.15995
1.16022
1.1605
1.16079
1.1611
1.16141
1.16174
1.16208
1.16242
1.16278
1.16314
1.16352
1.1639
1.16429
1.16469
1.16509
1.1655
1.16591
1.16632
1.16674
1.16716
1.16758
1.168
1.16841
1.16883
1.16924
1.16964
1.17004
1.17044
1.17083
1.17121
1.17158
1.17195
1.17231
1.17266
1.173
1.17333
1.17365
1.17397
1.17428
1.17457
1.17486
1.17515
1.17542
1.17569
1.17595
1.1762
1.17644
1.17668
1.17691
1.17713
1.17735
1.17756
1.17776
1.17795
1.17814
1.17832
1.17849
1.17865
1.17881
1.17896
1.1791
1.17923
1.17935
1.17947
1.17957
1.17967
1.17976
1.17984
1.17992
1.17998
1.18004
1.1801
1.18014
1.18018
1.18021
1.18024
1.18027
1.18029
1.18031
1.18032
1.18034
1.18035
1.18037
1.18038
1.1804
1.18043
1.18045
1.18049
1.18053
1.18057
1.18063
1.18069
1.18077
1.18086
1.18096
1.18108
1.18121
1.18136
1.18152
1.18171
1.18191
1.18214
1.18238
1.18265
1.18295
1.18327
1.18361
1.18399
1.18439
1.18482
1.18528
1.18577
1.18629
1.18685
1.18744
1.18806
1.18873
1.18943
1.19017
1.19095
1.19177
1.19264
1.19355
1.19452
1.19554
1.19662
1.19776
1.19898
1.20027
1.20166
1.20314
1.20474
1.20647
1.20835
1.2104
1.21265
1.21511
1.21779
1.22065
1.22357
1.22634
1.22848
1.2296
1.22935
1.12474
1.12427
1.12428
1.12468
1.12529
1.12602
1.12677
1.12746
1.1281
1.12865
1.12914
1.12955
1.12991
1.13022
1.13048
1.13071
1.1309
1.13106
1.1312
1.13132
1.13143
1.13151
1.13159
1.13165
1.1317
1.13175
1.13178
1.13181
1.13184
1.13186
1.13187
1.13189
1.13189
1.1319
1.13191
1.13191
1.13191
1.13192
1.13192
1.13192
1.13192
1.13192
1.13193
1.13194
1.13194
1.13195
1.13197
1.13198
1.132
1.13203
1.13206
1.13209
1.13213
1.13217
1.13222
1.13228
1.13234
1.13241
1.13249
1.13257
1.13267
1.13277
1.13288
1.133
1.13313
1.13327
1.13341
1.13357
1.13374
1.13392
1.13411
1.13431
1.13452
1.13475
1.13498
1.13522
1.13547
1.13573
1.13601
1.13629
1.13658
1.13688
1.13719
1.13751
1.13784
1.13817
1.13851
1.13886
1.13922
1.13958
1.13994
1.1403
1.14067
1.14104
1.14142
1.14179
1.14216
1.14253
1.1429
1.14326
1.14362
1.14397
1.14432
1.14466
1.145
1.14532
1.14564
1.14595
1.14625
1.14654
1.14681
1.14708
1.14733
1.14757
1.14779
1.148
1.1482
1.14839
1.14856
1.14872
1.14887
1.14901
1.14913
1.14924
1.14934
1.14944
1.14952
1.14959
1.14966
1.14972
1.14977
1.14982
1.14986
1.1499
1.14993
1.14997
1.14999
1.15002
1.15004
1.15006
1.15008
1.1501
1.15012
1.15014
1.15016
1.15018
1.1502
1.15022
1.15024
1.15027
1.15029
1.15032
1.15035
1.15038
1.15042
1.15045
1.15049
1.15053
1.15057
1.15062
1.15067
1.15072
1.15077
1.15083
1.15088
1.15095
1.15101
1.15108
1.15115
1.15122
1.15129
1.15137
1.15145
1.15153
1.15161
1.1517
1.15178
1.15187
1.15196
1.15205
1.15215
1.15224
1.15233
1.15243
1.15253
1.15262
1.15272
1.15282
1.15291
1.15301
1.15311
1.1532
1.1533
1.15339
1.15349
1.15358
1.15367
1.15376
1.15385
1.15394
1.15403
1.15411
1.1542
1.15428
1.15436
1.15444
1.15452
1.15459
1.15467
1.15474
1.15481
1.15488
1.15495
1.15502
1.15509
1.15515
1.15522
1.15528
1.15535
1.15541
1.15547
1.15554
1.1556
1.15566
1.15573
1.1558
1.15586
1.15593
1.156
1.15608
1.15615
1.15623
1.15631
1.1564
1.15649
1.15658
1.15668
1.15679
1.1569
1.15701
1.15713
1.15726
1.1574
1.15754
1.15769
1.15785
1.15802
1.1582
1.15838
1.15858
1.15879
1.159
1.15923
1.15947
1.15972
1.15998
1.16025
1.16053
1.16083
1.16113
1.16145
1.16178
1.16211
1.16246
1.16282
1.16319
1.16356
1.16395
1.16434
1.16474
1.16514
1.16555
1.16596
1.16638
1.1668
1.16722
1.16764
1.16806
1.16848
1.16889
1.1693
1.16971
1.17011
1.17051
1.1709
1.17128
1.17165
1.17201
1.17237
1.17272
1.17306
1.17339
1.17371
1.17402
1.17433
1.17462
1.17491
1.17519
1.17546
1.17573
1.17598
1.17623
1.17648
1.17671
1.17694
1.17716
1.17738
1.17758
1.17779
1.17798
1.17817
1.17834
1.17852
1.17868
1.17884
1.17898
1.17912
1.17926
1.17938
1.17949
1.1796
1.1797
1.17979
1.17987
1.17994
1.18001
1.18007
1.18012
1.18016
1.1802
1.18023
1.18026
1.18028
1.1803
1.18032
1.18033
1.18034
1.18036
1.18037
1.18038
1.1804
1.18042
1.18045
1.18048
1.18051
1.18056
1.18061
1.18068
1.18075
1.18084
1.18094
1.18105
1.18118
1.18133
1.18149
1.18167
1.18187
1.1821
1.18234
1.18261
1.1829
1.18322
1.18357
1.18394
1.18434
1.18476
1.18522
1.18571
1.18623
1.18679
1.18738
1.188
1.18866
1.18935
1.19009
1.19086
1.19168
1.19254
1.19344
1.19439
1.1954
1.19646
1.19758
1.19876
1.20002
1.20136
1.20278
1.2043
1.20593
1.20768
1.20957
1.21159
1.21374
1.216
1.2183
1.2205
1.22241
1.22378
1.22432
1.22412
1.12612
1.12571
1.12563
1.12582
1.12619
1.12669
1.12723
1.12777
1.12828
1.12875
1.12917
1.12954
1.12987
1.13016
1.13041
1.13062
1.13081
1.13098
1.13112
1.13124
1.13135
1.13144
1.13151
1.13158
1.13164
1.13169
1.13173
1.13176
1.13179
1.13181
1.13183
1.13185
1.13186
1.13187
1.13187
1.13188
1.13188
1.13189
1.13189
1.1319
1.1319
1.13191
1.13191
1.13192
1.13193
1.13194
1.13195
1.13197
1.13199
1.13202
1.13205
1.13208
1.13212
1.13216
1.13221
1.13227
1.13233
1.1324
1.13248
1.13257
1.13266
1.13276
1.13287
1.13299
1.13312
1.13326
1.13341
1.13357
1.13374
1.13392
1.13411
1.13431
1.13452
1.13475
1.13498
1.13522
1.13547
1.13574
1.13601
1.1363
1.13659
1.13689
1.1372
1.13753
1.13785
1.13819
1.13853
1.13888
1.13924
1.1396
1.13997
1.14034
1.14071
1.14108
1.14146
1.14183
1.14221
1.14258
1.14295
1.14331
1.14367
1.14403
1.14438
1.14473
1.14506
1.14539
1.14571
1.14602
1.14632
1.14661
1.14688
1.14715
1.1474
1.14764
1.14787
1.14808
1.14828
1.14846
1.14864
1.14879
1.14894
1.14907
1.14919
1.14931
1.1494
1.1495
1.14958
1.14965
1.14971
1.14977
1.14982
1.14987
1.14991
1.14995
1.14998
1.15001
1.15004
1.15006
1.15008
1.1501
1.15012
1.15014
1.15016
1.15018
1.1502
1.15022
1.15024
1.15027
1.15029
1.15031
1.15034
1.15037
1.1504
1.15043
1.15046
1.1505
1.15054
1.15058
1.15062
1.15067
1.15072
1.15077
1.15083
1.15088
1.15094
1.151
1.15107
1.15114
1.15121
1.15128
1.15135
1.15143
1.15151
1.15159
1.15168
1.15176
1.15185
1.15194
1.15203
1.15212
1.15221
1.15231
1.1524
1.1525
1.15259
1.15269
1.15279
1.15288
1.15298
1.15308
1.15317
1.15327
1.15337
1.15346
1.15355
1.15365
1.15374
1.15383
1.15392
1.15401
1.15409
1.15418
1.15426
1.15435
1.15443
1.1545
1.15458
1.15466
1.15473
1.1548
1.15488
1.15495
1.15501
1.15508
1.15515
1.15521
1.15528
1.15534
1.1554
1.15547
1.15553
1.15559
1.15565
1.15572
1.15578
1.15585
1.15591
1.15598
1.15605
1.15613
1.1562
1.15628
1.15636
1.15645
1.15653
1.15663
1.15673
1.15683
1.15694
1.15705
1.15717
1.1573
1.15743
1.15758
1.15773
1.15789
1.15805
1.15823
1.15842
1.15861
1.15882
1.15903
1.15926
1.1595
1.15975
1.16001
1.16028
1.16056
1.16086
1.16116
1.16148
1.16181
1.16215
1.1625
1.16286
1.16323
1.1636
1.16399
1.16438
1.16479
1.16519
1.1656
1.16602
1.16644
1.16686
1.16729
1.16771
1.16813
1.16855
1.16897
1.16938
1.16979
1.17019
1.17058
1.17097
1.17135
1.17172
1.17209
1.17244
1.17279
1.17312
1.17345
1.17377
1.17408
1.17438
1.17468
1.17496
1.17524
1.17551
1.17577
1.17603
1.17628
1.17652
1.17675
1.17698
1.1772
1.17741
1.17762
1.17782
1.17801
1.1782
1.17838
1.17855
1.17871
1.17887
1.17902
1.17916
1.17929
1.17941
1.17953
1.17963
1.17973
1.17982
1.1799
1.17997
1.18004
1.1801
1.18014
1.18019
1.18022
1.18025
1.18028
1.1803
1.18032
1.18033
1.18034
1.18035
1.18036
1.18037
1.18039
1.1804
1.18042
1.18044
1.18047
1.1805
1.18055
1.1806
1.18066
1.18073
1.18081
1.18091
1.18102
1.18115
1.18129
1.18145
1.18163
1.18183
1.18205
1.18229
1.18256
1.18285
1.18316
1.1835
1.18387
1.18427
1.18469
1.18515
1.18564
1.18615
1.1867
1.18729
1.18791
1.18856
1.18925
1.18998
1.19074
1.19155
1.19239
1.19329
1.19422
1.19521
1.19624
1.19733
1.19848
1.19969
1.20097
1.20232
1.20376
1.20528
1.20689
1.2086
1.21039
1.21224
1.21412
1.21594
1.21759
1.21893
1.21982
1.22013
1.21983
1.12715
1.1268
1.12669
1.12676
1.12699
1.12732
1.12771
1.12812
1.12853
1.12891
1.12927
1.1296
1.12989
1.13015
1.13039
1.13059
1.13077
1.13093
1.13107
1.13119
1.13129
1.13139
1.13147
1.13153
1.13159
1.13164
1.13169
1.13172
1.13175
1.13178
1.1318
1.13182
1.13183
1.13184
1.13185
1.13186
1.13187
1.13187
1.13188
1.13188
1.13189
1.1319
1.1319
1.13191
1.13192
1.13193
1.13195
1.13197
1.13199
1.13201
1.13204
1.13208
1.13212
1.13216
1.13221
1.13227
1.13233
1.1324
1.13248
1.13256
1.13265
1.13276
1.13287
1.13299
1.13312
1.13326
1.13341
1.13357
1.13374
1.13392
1.13411
1.13431
1.13452
1.13474
1.13498
1.13522
1.13548
1.13574
1.13601
1.1363
1.13659
1.1369
1.13721
1.13753
1.13786
1.1382
1.13855
1.1389
1.13926
1.13963
1.13999
1.14037
1.14074
1.14112
1.1415
1.14187
1.14225
1.14263
1.143
1.14337
1.14373
1.14409
1.14444
1.14479
1.14513
1.14546
1.14578
1.1461
1.1464
1.14669
1.14697
1.14723
1.14749
1.14773
1.14795
1.14817
1.14836
1.14855
1.14872
1.14888
1.14902
1.14915
1.14927
1.14938
1.14948
1.14956
1.14964
1.14971
1.14978
1.14983
1.14988
1.14993
1.14997
1.15
1.15003
1.15006
1.15009
1.15011
1.15013
1.15016
1.15018
1.1502
1.15022
1.15023
1.15025
1.15028
1.1503
1.15032
1.15034
1.15037
1.15039
1.15042
1.15045
1.15049
1.15052
1.15056
1.1506
1.15064
1.15068
1.15073
1.15078
1.15083
1.15089
1.15095
1.15101
1.15107
1.15114
1.1512
1.15127
1.15135
1.15142
1.1515
1.15158
1.15166
1.15175
1.15183
1.15192
1.15201
1.1521
1.15219
1.15229
1.15238
1.15248
1.15257
1.15267
1.15277
1.15286
1.15296
1.15306
1.15315
1.15325
1.15335
1.15344
1.15354
1.15363
1.15372
1.15382
1.15391
1.154
1.15408
1.15417
1.15425
1.15434
1.15442
1.1545
1.15458
1.15465
1.15473
1.1548
1.15488
1.15495
1.15502
1.15508
1.15515
1.15522
1.15528
1.15534
1.15541
1.15547
1.15553
1.15559
1.15565
1.15572
1.15578
1.15584
1.15591
1.15597
1.15604
1.15611
1.15618
1.15625
1.15633
1.15641
1.15649
1.15658
1.15667
1.15677
1.15687
1.15698
1.15709
1.15721
1.15734
1.15747
1.15761
1.15776
1.15792
1.15809
1.15826
1.15845
1.15864
1.15885
1.15906
1.15929
1.15953
1.15978
1.16004
1.16031
1.16059
1.16089
1.16119
1.16151
1.16184
1.16218
1.16253
1.16289
1.16326
1.16364
1.16403
1.16443
1.16483
1.16524
1.16566
1.16608
1.1665
1.16692
1.16735
1.16778
1.1682
1.16862
1.16904
1.16945
1.16986
1.17027
1.17066
1.17105
1.17143
1.1718
1.17216
1.17252
1.17286
1.1732
1.17352
1.17384
1.17415
1.17445
1.17474
1.17502
1.1753
1.17557
1.17583
1.17608
1.17632
1.17656
1.1768
1.17702
1.17724
1.17745
1.17766
1.17786
1.17805
1.17824
1.17842
1.17859
1.17875
1.17891
1.17906
1.1792
1.17933
1.17946
1.17957
1.17968
1.17977
1.17986
1.17994
1.18001
1.18008
1.18013
1.18018
1.18022
1.18026
1.18028
1.18031
1.18033
1.18034
1.18035
1.18036
1.18037
1.18038
1.18038
1.18039
1.1804
1.18042
1.18044
1.18046
1.18049
1.18053
1.18058
1.18064
1.1807
1.18078
1.18088
1.18098
1.18111
1.18125
1.1814
1.18158
1.18178
1.18199
1.18223
1.18249
1.18278
1.18309
1.18343
1.18379
1.18418
1.1846
1.18506
1.18554
1.18605
1.18659
1.18717
1.18778
1.18843
1.18911
1.18983
1.19058
1.19138
1.19221
1.19308
1.194
1.19496
1.19596
1.19702
1.19812
1.19928
1.2005
1.20178
1.20312
1.20453
1.206
1.20753
1.20909
1.21067
1.21222
1.21366
1.21492
1.21588
1.21647
1.21663
1.2163
1.12795
1.12766
1.12753
1.12754
1.12768
1.1279
1.12818
1.12849
1.12881
1.12912
1.12942
1.1297
1.12996
1.13019
1.13041
1.1306
1.13076
1.13091
1.13105
1.13116
1.13127
1.13136
1.13143
1.1315
1.13156
1.13161
1.13166
1.1317
1.13173
1.13175
1.13178
1.1318
1.13181
1.13183
1.13184
1.13185
1.13186
1.13186
1.13187
1.13188
1.13188
1.13189
1.1319
1.13191
1.13192
1.13193
1.13195
1.13197
1.13199
1.13201
1.13204
1.13208
1.13212
1.13216
1.13221
1.13227
1.13233
1.1324
1.13248
1.13256
1.13265
1.13276
1.13287
1.13299
1.13312
1.13326
1.1334
1.13357
1.13373
1.13392
1.13411
1.13431
1.13452
1.13474
1.13498
1.13522
1.13548
1.13574
1.13602
1.1363
1.1366
1.13691
1.13722
1.13754
1.13788
1.13822
1.13857
1.13892
1.13928
1.13965
1.14002
1.1404
1.14078
1.14116
1.14154
1.14192
1.1423
1.14268
1.14305
1.14343
1.14379
1.14416
1.14451
1.14486
1.1452
1.14554
1.14586
1.14618
1.14648
1.14677
1.14705
1.14732
1.14758
1.14782
1.14805
1.14826
1.14846
1.14864
1.14881
1.14897
1.14911
1.14924
1.14936
1.14946
1.14956
1.14964
1.14972
1.14979
1.14985
1.1499
1.14995
1.14999
1.15003
1.15007
1.1501
1.15012
1.15015
1.15017
1.15019
1.15022
1.15023
1.15025
1.15027
1.15029
1.15031
1.15034
1.15036
1.15038
1.1504
1.15043
1.15046
1.15049
1.15052
1.15055
1.15059
1.15063
1.15067
1.15071
1.15075
1.1508
1.15085
1.15091
1.15096
1.15102
1.15108
1.15114
1.15121
1.15128
1.15135
1.15143
1.1515
1.15158
1.15166
1.15174
1.15183
1.15192
1.152
1.15209
1.15218