# vtk DataFile Version 2.0
LBE mesh
ASCII
DATASET STRUCTURED_POINTS
DIMENSIONS 400 100 1
ASPECT_RATIO 1 1 1
ORIGIN 0 0 0
POINT_DATA 40000
SCALARS rho double 1
LOOKUP_TABLE default
0.954257
0.987407
0.997865
1.00178
1.00412
1.00571
1.00676
1.00746
1.00796
1.00832
1.0086
1.00881
1.00898
1.00912
1.00924
1.00934
1.00943
1.00952
1.0096
1.00969
1.00978
1.00987
1.00996
1.01006
1.01017
1.01028
1.0104
1.01053
1.01066
1.0108
1.01095
1.0111
1.01126
1.01142
1.01159
1.01176
1.01193
1.0121
1.01228
1.01245
1.01263
1.0128
1.01297
1.01315
1.01332
1.01348
1.01365
1.01381
1.01397
1.01413
1.01429
1.01444
1.01459
1.01475
1.0149
1.01505
1.0152
1.01535
1.01551
1.01567
1.01583
1.01599
1.01616
1.01633
1.01651
1.01669
1.01689
1.01708
1.01729
1.0175
1.01772
1.01795
1.01819
1.01843
1.01869
1.01895
1.01922
1.0195
1.0198
1.0201
1.02041
1.02073
1.02106
1.0214
1.02174
1.0221
1.02247
1.02284
1.02323
1.02362
1.02402
1.02442
1.02483
1.02525
1.02567
1.02609
1.02652
1.02695
1.02738
1.02781
1.02824
1.02867
1.02909
1.02951
1.02993
1.03034
1.03075
1.03115
1.03155
1.03193
1.03231
1.03268
1.03304
1.03339
1.03373
1.03406
1.03438
1.03469
1.03499
1.03528
1.03556
1.03584
1.0361
1.03635
1.03659
1.03682
1.03705
1.03726
1.03747
1.03768
1.03787
1.03806
1.03825
1.03843
1.0386
1.03877
1.03893
1.0391
1.03925
1.03941
1.03956
1.03971
1.03986
1.04001
1.04015
1.04029
1.04044
1.04058
1.04072
1.04086
1.041
1.04114
1.04127
1.04141
1.04154
1.04168
1.04181
1.04194
1.04206
1.04219
1.04231
1.04243
1.04255
1.04266
1.04277
1.04288
1.04298
1.04308
1.04317
1.04326
1.04334
1.04342
1.04349
1.04356
1.04363
1.04369
1.04374
1.0438
1.04384
1.04389
1.04393
1.04397
1.04401
1.04405
1.04409
1.04412
1.04416
1.04419
1.04423
1.04427
1.04431
1.04435
1.0444
1.04445
1.04451
1.04457
1.04463
1.0447
1.04477
1.04485
1.04494
1.04504
1.04514
1.04525
1.04536
1.04549
1.04562
1.04576
1.04591
1.04607
1.04624
1.04641
1.04659
1.04678
1.04698
1.04718
1.0474
1.04761
1.04784
1.04807
1.0483
1.04854
1.04878
1.04902
1.04926
1.0495
1.04974
1.04998
1.05022
1.05045
1.05068
1.0509
1.05112
1.05133
1.05153
1.05172
1.0519
1.05207
1.05223
1.05238
1.05252
1.05264
1.05276
1.05286
1.05295
1.05303
1.0531
1.05316
1.05322
1.05326
1.0533
1.05333
1.05336
1.05338
1.05341
1.05343
1.05345
1.05347
1.0535
1.05353
1.05357
1.05361
1.05366
1.05372
1.05379
1.05386
1.05395
1.05405
1.05417
1.05429
1.05443
1.05457
1.05473
1.0549
1.05508
1.05528
1.05548
1.05569
1.0559
1.05613
1.05636
1.0566
1.05684
1.05709
1.05734
1.05759
1.05785
1.0581
1.05837
1.05863
1.05889
1.05916
1.05943
1.0597
1.05997
1.06024
1.06052
1.0608
1.06108
1.06137
1.06166
1.06195
1.06225
1.06255
1.06286
1.06317
1.06349
1.06382
1.06414
1.06448
1.06481
1.06516
1.0655
1.06585
1.0662
1.06655
1.06691
1.06726
1.06761
1.06797
1.06832
1.06867
1.06902
1.06936
1.06971
1.07005
1.07038
1.07072
1.07105
1.07138
1.0717
1.07202
1.07234
1.07266
1.07297
1.07328
1.07359
1.0739
1.07421
1.07452
1.07482
1.07513
1.07543
1.07573
1.07603
1.07632
1.07661
1.0769
1.07718
1.07746
1.07773
1.078
1.07826
1.07851
1.07876
1.079
1.07924
1.07947
1.0797
1.07992
1.08014
1.08036
1.08058
1.0808
1.08102
1.08125
1.08149
1.08174
1.08201
1.08229
1.0826
1.08292
1.08328
1.08368
1.08411
1.08458
1.0851
1.08568
1.08631
1.08701
1.08778
1.08863
1.08956
1.09059
1.09172
1.09297
1.09434
1.09586
1.09754
1.09941
1.10151
1.1039
1.10666
1.10989
1.11378
1.11875
1.12582
1.13587
1.14793
1.16684
0.969577
0.983413
0.993093
0.999033
1.00229
1.00425
1.00556
1.00649
1.00716
1.00766
1.00804
1.00833
1.00857
1.00876
1.00892
1.00906
1.00919
1.0093
1.00941
1.00952
1.00962
1.00973
1.00984
1.00995
1.01007
1.01019
1.01032
1.01045
1.01059
1.01074
1.01089
1.01105
1.01121
1.01137
1.01154
1.01171
1.01189
1.01206
1.01224
1.01241
1.01259
1.01277
1.01294
1.01311
1.01328
1.01345
1.01362
1.01378
1.01394
1.0141
1.01426
1.01442
1.01457
1.01472
1.01488
1.01503
1.01518
1.01534
1.0155
1.01566
1.01582
1.01598
1.01615
1.01633
1.01651
1.0167
1.01689
1.01709
1.0173
1.01751
1.01774
1.01797
1.01821
1.01845
1.01871
1.01898
1.01925
1.01953
1.01983
1.02013
1.02044
1.02076
1.02109
1.02144
1.02179
1.02215
1.02251
1.02289
1.02327
1.02367
1.02406
1.02447
1.02488
1.0253
1.02572
1.02614
1.02656
1.02699
1.02742
1.02785
1.02828
1.0287
1.02912
1.02954
1.02996
1.03037
1.03077
1.03117
1.03156
1.03195
1.03232
1.03269
1.03304
1.03339
1.03373
1.03406
1.03438
1.03468
1.03498
1.03527
1.03555
1.03581
1.03607
1.03632
1.03656
1.0368
1.03702
1.03724
1.03744
1.03765
1.03784
1.03803
1.03821
1.03839
1.03857
1.03874
1.0389
1.03906
1.03922
1.03938
1.03953
1.03968
1.03983
1.03997
1.04012
1.04026
1.04041
1.04055
1.04069
1.04083
1.04097
1.04111
1.04125
1.04138
1.04152
1.04165
1.04179
1.04192
1.04205
1.04217
1.0423
1.04242
1.04254
1.04265
1.04276
1.04287
1.04297
1.04307
1.04316
1.04325
1.04334
1.04342
1.04349
1.04356
1.04362
1.04368
1.04374
1.04379
1.04384
1.04389
1.04393
1.04397
1.04401
1.04405
1.04409
1.04412
1.04416
1.0442
1.04423
1.04427
1.04432
1.04436
1.04441
1.04446
1.04452
1.04458
1.04464
1.04472
1.04479
1.04488
1.04496
1.04506
1.04516
1.04528
1.04539
1.04552
1.04565
1.0458
1.04595
1.04611
1.04627
1.04645
1.04663
1.04682
1.04702
1.04722
1.04744
1.04765
1.04788
1.0481
1.04834
1.04857
1.04881
1.04905
1.04929
1.04953
1.04977
1.05001
1.05024
1.05047
1.0507
1.05092
1.05113
1.05134
1.05154
1.05173
1.0519
1.05207
1.05223
1.05238
1.05251
1.05264
1.05275
1.05285
1.05294
1.05302
1.05309
1.05315
1.05321
1.05325
1.05329
1.05332
1.05335
1.05338
1.0534
1.05342
1.05345
1.05347
1.0535
1.05353
1.05357
1.05362
1.05367
1.05373
1.0538
1.05388
1.05398
1.05408
1.05419
1.05432
1.05446
1.05461
1.05477
1.05494
1.05512
1.05531
1.05552
1.05573
1.05594
1.05617
1.0564
1.05664
1.05688
1.05713
1.05738
1.05763
1.05789
1.05815
1.05841
1.05867
1.05893
1.0592
1.05947
1.05974
1.06001
1.06028
1.06056
1.06083
1.06112
1.0614
1.06169
1.06198
1.06228
1.06258
1.06289
1.0632
1.06352
1.06384
1.06417
1.0645
1.06483
1.06517
1.06551
1.06586
1.06621
1.06656
1.06691
1.06726
1.06761
1.06796
1.06831
1.06866
1.06901
1.06935
1.06969
1.07003
1.07037
1.0707
1.07103
1.07136
1.07168
1.072
1.07232
1.07264
1.07295
1.07326
1.07357
1.07388
1.07419
1.0745
1.0748
1.0751
1.07541
1.07571
1.076
1.07629
1.07658
1.07687
1.07715
1.07743
1.0777
1.07797
1.07823
1.07848
1.07873
1.07897
1.07921
1.07944
1.07967
1.07989
1.08011
1.08033
1.08055
1.08078
1.081
1.08124
1.08148
1.08174
1.08201
1.0823
1.08261
1.08294
1.08331
1.08371
1.08415
1.08464
1.08517
1.08576
1.08641
1.08712
1.08791
1.08877
1.08973
1.09078
1.09193
1.09321
1.09461
1.09617
1.0979
1.09983
1.10202
1.10451
1.10739
1.11082
1.11504
1.12032
1.127
1.13642
1.1536
1.18227
0.986098
0.988754
0.994083
0.998321
1.00121
1.00326
1.00471
1.00576
1.00653
1.00711
1.00757
1.00792
1.00821
1.00845
1.00865
1.00882
1.00897
1.00911
1.00924
1.00936
1.00948
1.0096
1.00972
1.00985
1.00997
1.01011
1.01024
1.01038
1.01053
1.01068
1.01083
1.01099
1.01116
1.01132
1.01149
1.01167
1.01184
1.01202
1.0122
1.01238
1.01255
1.01273
1.0129
1.01308
1.01325
1.01342
1.01358
1.01375
1.01391
1.01407
1.01423
1.01439
1.01454
1.0147
1.01485
1.01501
1.01516
1.01532
1.01548
1.01564
1.0158
1.01597
1.01614
1.01632
1.01651
1.01669
1.01689
1.01709
1.0173
1.01752
1.01774
1.01798
1.01822
1.01847
1.01872
1.01899
1.01927
1.01955
1.01985
1.02015
1.02047
1.02079
1.02112
1.02147
1.02182
1.02218
1.02255
1.02293
1.02331
1.02371
1.0241
1.02451
1.02492
1.02534
1.02576
1.02618
1.02661
1.02704
1.02746
1.02789
1.02832
1.02874
1.02916
1.02958
1.02999
1.0304
1.0308
1.0312
1.03158
1.03196
1.03234
1.0327
1.03305
1.0334
1.03373
1.03406
1.03437
1.03467
1.03497
1.03525
1.03553
1.03579
1.03605
1.0363
1.03653
1.03676
1.03699
1.0372
1.03741
1.03761
1.0378
1.03799
1.03817
1.03835
1.03853
1.0387
1.03886
1.03902
1.03918
1.03934
1.03949
1.03964
1.03979
1.03994
1.04008
1.04023
1.04037
1.04051
1.04066
1.0408
1.04094
1.04108
1.04122
1.04136
1.0415
1.04163
1.04177
1.0419
1.04203
1.04216
1.04228
1.04241
1.04253
1.04264
1.04275
1.04286
1.04297
1.04307
1.04316
1.04325
1.04334
1.04342
1.04349
1.04356
1.04363
1.04369
1.04375
1.0438
1.04385
1.0439
1.04394
1.04398
1.04402
1.04406
1.0441
1.04414
1.04417
1.04421
1.04425
1.04429
1.04434
1.04438
1.04443
1.04449
1.04455
1.04461
1.04468
1.04475
1.04483
1.04492
1.04501
1.04511
1.04521
1.04533
1.04545
1.04557
1.04571
1.04585
1.04601
1.04617
1.04633
1.04651
1.04669
1.04688
1.04708
1.04729
1.0475
1.04771
1.04793
1.04816
1.04839
1.04862
1.04886
1.0491
1.04934
1.04958
1.04981
1.05005
1.05028
1.05051
1.05073
1.05095
1.05116
1.05136
1.05156
1.05174
1.05192
1.05208
1.05224
1.05238
1.05252
1.05264
1.05275
1.05285
1.05294
1.05302
1.05309
1.05315
1.0532
1.05325
1.05328
1.05332
1.05335
1.05338
1.0534
1.05342
1.05345
1.05348
1.05351
1.05354
1.05358
1.05363
1.05369
1.05375
1.05382
1.05391
1.054
1.05411
1.05423
1.05435
1.05449
1.05465
1.05481
1.05498
1.05517
1.05536
1.05556
1.05577
1.05599
1.05622
1.05645
1.05669
1.05693
1.05718
1.05743
1.05769
1.05794
1.0582
1.05846
1.05872
1.05899
1.05925
1.05952
1.05979
1.06006
1.06033
1.0606
1.06088
1.06116
1.06145
1.06173
1.06202
1.06232
1.06262
1.06293
1.06324
1.06355
1.06387
1.06419
1.06452
1.06486
1.06519
1.06553
1.06588
1.06622
1.06657
1.06692
1.06727
1.06761
1.06796
1.06831
1.06866
1.069
1.06934
1.06968
1.07002
1.07035
1.07069
1.07101
1.07134
1.07166
1.07198
1.0723
1.07262
1.07293
1.07324
1.07355
1.07386
1.07417
1.07447
1.07478
1.07508
1.07538
1.07568
1.07597
1.07627
1.07656
1.07684
1.07712
1.0774
1.07767
1.07793
1.07819
1.07844
1.07869
1.07893
1.07917
1.0794
1.07963
1.07985
1.08007
1.08029
1.08051
1.08074
1.08097
1.0812
1.08145
1.08171
1.08198
1.08227
1.08259
1.08293
1.0833
1.08371
1.08415
1.08464
1.08518
1.08578
1.08644
1.08716
1.08795
1.08883
1.0898
1.09086
1.09203
1.09331
1.09473
1.0963
1.09805
1.1
1.1022
1.1047
1.10759
1.11098
1.11504
1.1201
1.12662
1.13466
1.14335
1.15299
0.994853
0.99444
0.996483
0.998956
1.0012
1.00296
1.00429
1.00531
1.0061
1.00672
1.00721
1.0076
1.00792
1.00819
1.00842
1.00862
1.00879
1.00895
1.00909
1.00923
1.00936
1.0095
1.00963
1.00976
1.00989
1.01003
1.01017
1.01032
1.01047
1.01062
1.01078
1.01095
1.01111
1.01128
1.01145
1.01163
1.0118
1.01198
1.01216
1.01234
1.01251
1.01269
1.01286
1.01304
1.01321
1.01338
1.01355
1.01371
1.01387
1.01403
1.01419
1.01435
1.01451
1.01466
1.01482
1.01498
1.01513
1.01529
1.01545
1.01562
1.01578
1.01595
1.01613
1.01631
1.01649
1.01669
1.01688
1.01709
1.0173
1.01752
1.01774
1.01798
1.01822
1.01847
1.01873
1.019
1.01928
1.01957
1.01986
1.02017
1.02048
1.02081
1.02114
1.02149
1.02184
1.02221
1.02258
1.02296
1.02334
1.02374
1.02414
1.02455
1.02496
1.02538
1.0258
1.02622
1.02665
1.02708
1.0275
1.02793
1.02836
1.02878
1.0292
1.02962
1.03003
1.03043
1.03083
1.03122
1.03161
1.03199
1.03235
1.03271
1.03306
1.0334
1.03373
1.03405
1.03437
1.03467
1.03496
1.03524
1.03551
1.03577
1.03602
1.03627
1.0365
1.03673
1.03695
1.03716
1.03737
1.03757
1.03776
1.03795
1.03813
1.03831
1.03848
1.03865
1.03881
1.03898
1.03913
1.03929
1.03944
1.0396
1.03975
1.03989
1.04004
1.04019
1.04033
1.04048
1.04062
1.04077
1.04091
1.04105
1.04119
1.04133
1.04147
1.04161
1.04175
1.04188
1.04202
1.04215
1.04228
1.0424
1.04252
1.04264
1.04275
1.04286
1.04297
1.04307
1.04317
1.04326
1.04334
1.04343
1.0435
1.04357
1.04364
1.0437
1.04376
1.04382
1.04387
1.04392
1.04396
1.044
1.04404
1.04408
1.04412
1.04416
1.0442
1.04424
1.04428
1.04433
1.04437
1.04442
1.04448
1.04453
1.04459
1.04466
1.04473
1.04481
1.04489
1.04498
1.04507
1.04517
1.04528
1.0454
1.04552
1.04565
1.04579
1.04593
1.04609
1.04625
1.04642
1.04659
1.04678
1.04697
1.04716
1.04737
1.04758
1.04779
1.04801
1.04824
1.04847
1.0487
1.04893
1.04917
1.0494
1.04964
1.04987
1.0501
1.05033
1.05055
1.05077
1.05099
1.05119
1.05139
1.05158
1.05177
1.05194
1.0521
1.05225
1.05239
1.05252
1.05264
1.05275
1.05285
1.05294
1.05302
1.05309
1.05315
1.0532
1.05324
1.05328
1.05332
1.05335
1.05338
1.0534
1.05343
1.05346
1.05349
1.05352
1.05356
1.0536
1.05365
1.05371
1.05378
1.05385
1.05394
1.05404
1.05414
1.05426
1.05439
1.05454
1.05469
1.05485
1.05503
1.05522
1.05541
1.05562
1.05583
1.05605
1.05628
1.05651
1.05675
1.05699
1.05724
1.05749
1.05775
1.058
1.05826
1.05852
1.05878
1.05905
1.05931
1.05958
1.05984
1.06011
1.06038
1.06066
1.06093
1.06121
1.0615
1.06178
1.06207
1.06237
1.06267
1.06297
1.06328
1.06359
1.06391
1.06423
1.06456
1.06489
1.06522
1.06556
1.0659
1.06624
1.06658
1.06693
1.06728
1.06762
1.06797
1.06831
1.06866
1.069
1.06934
1.06968
1.07001
1.07034
1.07067
1.071
1.07132
1.07165
1.07197
1.07228
1.0726
1.07291
1.07322
1.07353
1.07384
1.07415
1.07445
1.07475
1.07506
1.07536
1.07565
1.07595
1.07624
1.07652
1.07681
1.07709
1.07736
1.07763
1.07789
1.07815
1.0784
1.07865
1.07889
1.07912
1.07935
1.07958
1.0798
1.08002
1.08024
1.08046
1.08069
1.08091
1.08115
1.0814
1.08166
1.08193
1.08222
1.08254
1.08288
1.08326
1.08366
1.08411
1.08461
1.08515
1.08575
1.08641
1.08713
1.08793
1.08881
1.08978
1.09084
1.09201
1.09329
1.09471
1.09627
1.098
1.09992
1.10208
1.10451
1.10728
1.11048
1.11421
1.11854
1.12355
1.12919
1.13377
1.13415
0.998769
0.998261
0.999026
1.00034
1.0018
1.00312
1.00424
1.00515
1.00589
1.00649
1.00698
1.00739
1.00772
1.00801
1.00825
1.00846
1.00865
1.00882
1.00898
1.00913
1.00927
1.00941
1.00955
1.00969
1.00983
1.00997
1.01012
1.01027
1.01042
1.01058
1.01074
1.0109
1.01107
1.01124
1.01141
1.01159
1.01176
1.01194
1.01212
1.0123
1.01247
1.01265
1.01282
1.013
1.01317
1.01334
1.0135
1.01367
1.01383
1.01399
1.01415
1.01431
1.01447
1.01463
1.01478
1.01494
1.0151
1.01526
1.01542
1.01559
1.01576
1.01593
1.01611
1.01629
1.01648
1.01667
1.01687
1.01707
1.01729
1.01751
1.01773
1.01797
1.01821
1.01847
1.01873
1.019
1.01928
1.01957
1.01986
1.02017
1.02049
1.02082
1.02115
1.0215
1.02186
1.02222
1.0226
1.02298
1.02337
1.02377
1.02417
1.02458
1.02499
1.02541
1.02584
1.02626
1.02669
1.02712
1.02755
1.02797
1.0284
1.02882
1.02924
1.02965
1.03006
1.03047
1.03086
1.03126
1.03164
1.03201
1.03238
1.03273
1.03308
1.03341
1.03374
1.03406
1.03436
1.03466
1.03495
1.03522
1.03549
1.03575
1.036
1.03624
1.03647
1.03669
1.03691
1.03712
1.03732
1.03752
1.03771
1.0379
1.03808
1.03826
1.03843
1.0386
1.03876
1.03892
1.03908
1.03924
1.03939
1.03955
1.0397
1.03985
1.04
1.04015
1.04029
1.04044
1.04059
1.04073
1.04088
1.04102
1.04117
1.04131
1.04145
1.04159
1.04173
1.04187
1.04201
1.04214
1.04227
1.0424
1.04252
1.04264
1.04276
1.04287
1.04298
1.04308
1.04318
1.04327
1.04336
1.04344
1.04352
1.04359
1.04366
1.04373
1.04378
1.04384
1.04389
1.04394
1.04399
1.04403
1.04408
1.04412
1.04416
1.0442
1.04424
1.04429
1.04433
1.04438
1.04443
1.04448
1.04453
1.04459
1.04466
1.04473
1.0448
1.04488
1.04496
1.04506
1.04515
1.04526
1.04537
1.04549
1.04561
1.04574
1.04588
1.04603
1.04619
1.04635
1.04652
1.04669
1.04688
1.04707
1.04726
1.04747
1.04768
1.04789
1.04811
1.04833
1.04856
1.04878
1.04901
1.04925
1.04948
1.04971
1.04994
1.05017
1.05039
1.05061
1.05083
1.05104
1.05124
1.05143
1.05162
1.0518
1.05197
1.05212
1.05227
1.05241
1.05254
1.05266
1.05276
1.05286
1.05295
1.05302
1.05309
1.05315
1.0532
1.05325
1.05329
1.05332
1.05335
1.05338
1.05341
1.05344
1.05347
1.0535
1.05353
1.05357
1.05362
1.05367
1.05373
1.0538
1.05388
1.05397
1.05407
1.05418
1.0543
1.05444
1.05458
1.05474
1.0549
1.05508
1.05527
1.05547
1.05567
1.05589
1.05611
1.05634
1.05657
1.05681
1.05706
1.05731
1.05756
1.05781
1.05807
1.05833
1.05859
1.05885
1.05911
1.05938
1.05964
1.05991
1.06018
1.06045
1.06072
1.061
1.06127
1.06155
1.06184
1.06213
1.06242
1.06272
1.06302
1.06332
1.06363
1.06395
1.06427
1.06459
1.06492
1.06525
1.06559
1.06593
1.06627
1.06661
1.06695
1.06729
1.06764
1.06798
1.06832
1.06866
1.069
1.06934
1.06968
1.07001
1.07034
1.07067
1.07099
1.07131
1.07163
1.07195
1.07227
1.07258
1.07289
1.0732
1.07351
1.07382
1.07412
1.07443
1.07473
1.07503
1.07533
1.07562
1.07592
1.07621
1.07649
1.07677
1.07705
1.07732
1.07759
1.07785
1.0781
1.07835
1.0786
1.07883
1.07907
1.07929
1.07952
1.07974
1.07996
1.08018
1.0804
1.08062
1.08085
1.08108
1.08133
1.08158
1.08186
1.08215
1.08246
1.0828
1.08318
1.08358
1.08403
1.08452
1.08506
1.08566
1.08631
1.08703
1.08783
1.0887
1.08966
1.09071
1.09187
1.09313
1.09453
1.09606
1.09774
1.0996
1.10166
1.10396
1.10653
1.10941
1.11263
1.11617
1.11978
1.12306
1.12539
1.12482
1.00117
1.00081
1.00105
1.00174
1.00265
1.00358
1.00445
1.00522
1.00587
1.00641
1.00688
1.00727
1.0076
1.00789
1.00813
1.00835
1.00855
1.00873
1.00889
1.00905
1.0092
1.00935
1.00949
1.00964
1.00978
1.00993
1.01008
1.01023
1.01039
1.01055
1.01071
1.01087
1.01104
1.01121
1.01138
1.01156
1.01173
1.01191
1.01208
1.01226
1.01243
1.01261
1.01278
1.01295
1.01312
1.01329
1.01346
1.01362
1.01379
1.01395
1.01411
1.01427
1.01443
1.01459
1.01474
1.0149
1.01506
1.01523
1.01539
1.01556
1.01573
1.0159
1.01608
1.01626
1.01645
1.01665
1.01685
1.01706
1.01727
1.01749
1.01772
1.01796
1.0182
1.01846
1.01872
1.01899
1.01927
1.01956
1.01986
1.02017
1.02049
1.02082
1.02116
1.02151
1.02187
1.02223
1.02261
1.02299
1.02339
1.02379
1.02419
1.02461
1.02502
1.02545
1.02587
1.0263
1.02673
1.02716
1.02758
1.02801
1.02844
1.02886
1.02928
1.02969
1.0301
1.0305
1.0309
1.03129
1.03167
1.03204
1.0324
1.03275
1.03309
1.03343
1.03375
1.03406
1.03436
1.03465
1.03494
1.03521
1.03547
1.03572
1.03597
1.03621
1.03643
1.03666
1.03687
1.03708
1.03728
1.03747
1.03766
1.03785
1.03803
1.0382
1.03837
1.03854
1.03871
1.03887
1.03903
1.03919
1.03934
1.0395
1.03965
1.0398
1.03995
1.0401
1.04025
1.0404
1.04055
1.0407
1.04085
1.04099
1.04114
1.04129
1.04143
1.04158
1.04172
1.04186
1.042
1.04214
1.04227
1.0424
1.04253
1.04265
1.04277
1.04288
1.04299
1.0431
1.0432
1.04329
1.04338
1.04347
1.04355
1.04362
1.04369
1.04376
1.04382
1.04388
1.04393
1.04398
1.04403
1.04408
1.04412
1.04417
1.04421
1.04425
1.0443
1.04434
1.04439
1.04444
1.04449
1.04455
1.04461
1.04467
1.04474
1.04481
1.04489
1.04497
1.04506
1.04515
1.04526
1.04536
1.04548
1.0456
1.04572
1.04586
1.046
1.04615
1.04631
1.04647
1.04664
1.04682
1.047
1.04719
1.04739
1.04759
1.04779
1.04801
1.04822
1.04844
1.04866
1.04889
1.04912
1.04934
1.04957
1.0498
1.05002
1.05025
1.05047
1.05068
1.05089
1.05109
1.05129
1.05148
1.05166
1.05184
1.052
1.05216
1.0523
1.05244
1.05256
1.05268
1.05278
1.05287
1.05296
1.05303
1.0531
1.05316
1.05321
1.05325
1.05329
1.05333
1.05336
1.05339
1.05342
1.05345
1.05348
1.05352
1.05355
1.0536
1.05364
1.0537
1.05376
1.05383
1.05392
1.05401
1.05411
1.05422
1.05435
1.05448
1.05463
1.05479
1.05496
1.05514
1.05533
1.05553
1.05574
1.05595
1.05618
1.05641
1.05664
1.05689
1.05713
1.05738
1.05763
1.05789
1.05815
1.0584
1.05866
1.05892
1.05919
1.05945
1.05971
1.05998
1.06025
1.06052
1.06079
1.06106
1.06134
1.06162
1.0619
1.06219
1.06248
1.06277
1.06307
1.06337
1.06368
1.064
1.06431
1.06464
1.06496
1.06529
1.06562
1.06596
1.0663
1.06663
1.06697
1.06732
1.06766
1.068
1.06834
1.06867
1.06901
1.06935
1.06968
1.07001
1.07034
1.07066
1.07098
1.0713
1.07162
1.07194
1.07225
1.07257
1.07288
1.07319
1.07349
1.0738
1.0741
1.07441
1.07471
1.07501
1.0753
1.0756
1.07589
1.07617
1.07646
1.07674
1.07701
1.07728
1.07754
1.0778
1.07806
1.0783
1.07854
1.07878
1.07901
1.07923
1.07945
1.07967
1.07989
1.08011
1.08032
1.08054
1.08077
1.081
1.08124
1.0815
1.08176
1.08205
1.08236
1.0827
1.08307
1.08347
1.08391
1.0844
1.08493
1.08552
1.08617
1.08688
1.08766
1.08852
1.08946
1.0905
1.09163
1.09287
1.09422
1.09569
1.09731
1.09908
1.10101
1.10313
1.10545
1.10796
1.11062
1.11335
1.11593
1.11793
1.119
1.11879
1.00292
1.00258
1.00262
1.00299
1.00355
1.0042
1.00484
1.00545
1.00599
1.00647
1.00689
1.00725
1.00757
1.00784
1.00809
1.0083
1.0085
1.00868
1.00885
1.00901
1.00917
1.00932
1.00946
1.00961
1.00976
1.00991
1.01006
1.01021
1.01037
1.01052
1.01069
1.01085
1.01102
1.01118
1.01135
1.01153
1.0117
1.01187
1.01205
1.01222
1.0124
1.01257
1.01274
1.01291
1.01308
1.01325
1.01341
1.01358
1.01374
1.0139
1.01406
1.01422
1.01438
1.01454
1.0147
1.01486
1.01502
1.01519
1.01535
1.01552
1.01569
1.01587
1.01605
1.01623
1.01642
1.01662
1.01682
1.01703
1.01724
1.01747
1.0177
1.01794
1.01818
1.01844
1.0187
1.01897
1.01925
1.01955
1.01985
1.02016
1.02048
1.02081
1.02115
1.0215
1.02186
1.02223
1.02261
1.023
1.0234
1.0238
1.02421
1.02462
1.02504
1.02547
1.0259
1.02633
1.02676
1.02719
1.02762
1.02805
1.02848
1.0289
1.02932
1.02973
1.03014
1.03054
1.03093
1.03132
1.0317
1.03207
1.03242
1.03277
1.03311
1.03344
1.03376
1.03407
1.03436
1.03465
1.03493
1.03519
1.03545
1.0357
1.03594
1.03617
1.0364
1.03662
1.03683
1.03703
1.03723
1.03742
1.03761
1.03779
1.03797
1.03815
1.03832
1.03849
1.03865
1.03881
1.03897
1.03913
1.03929
1.03944
1.0396
1.03975
1.0399
1.04006
1.04021
1.04036
1.04051
1.04066
1.04081
1.04097
1.04112
1.04127
1.04141
1.04156
1.04171
1.04185
1.04199
1.04213
1.04227
1.0424
1.04253
1.04266
1.04278
1.0429
1.04301
1.04312
1.04322
1.04332
1.04341
1.0435
1.04358
1.04365
1.04373
1.04379
1.04386
1.04392
1.04397
1.04403
1.04408
1.04413
1.04418
1.04422
1.04427
1.04432
1.04436
1.04441
1.04446
1.04452
1.04457
1.04463
1.04469
1.04476
1.04483
1.04491
1.04499
1.04508
1.04517
1.04527
1.04537
1.04548
1.0456
1.04572
1.04585
1.04599
1.04613
1.04628
1.04644
1.04661
1.04678
1.04695
1.04714
1.04733
1.04752
1.04772
1.04792
1.04813
1.04835
1.04856
1.04878
1.049
1.04923
1.04945
1.04967
1.0499
1.05012
1.05033
1.05055
1.05076
1.05096
1.05116
1.05135
1.05154
1.05172
1.05189
1.05205
1.0522
1.05234
1.05247
1.05259
1.0527
1.0528
1.05289
1.05297
1.05305
1.05311
1.05317
1.05322
1.05327
1.05331
1.05334
1.05337
1.05341
1.05344
1.05347
1.0535
1.05354
1.05357
1.05362
1.05367
1.05373
1.05379
1.05387
1.05395
1.05404
1.05415
1.05426
1.05439
1.05453
1.05468
1.05484
1.05501
1.05519
1.05539
1.05559
1.0558
1.05602
1.05624
1.05648
1.05671
1.05696
1.0572
1.05746
1.05771
1.05796
1.05822
1.05848
1.05874
1.059
1.05926
1.05953
1.05979
1.06005
1.06032
1.06059
1.06086
1.06113
1.0614
1.06168
1.06196
1.06225
1.06254
1.06283
1.06313
1.06343
1.06373
1.06405
1.06436
1.06468
1.065
1.06533
1.06566
1.06599
1.06633
1.06667
1.067
1.06734
1.06768
1.06802
1.06835
1.06869
1.06902
1.06935
1.06968
1.07001
1.07034
1.07066
1.07098
1.0713
1.07162
1.07193
1.07224
1.07255
1.07286
1.07317
1.07348
1.07378
1.07408
1.07439
1.07469
1.07498
1.07528
1.07557
1.07586
1.07614
1.07642
1.0767
1.07697
1.07724
1.0775
1.07775
1.078
1.07825
1.07848
1.07872
1.07894
1.07917
1.07938
1.0796
1.07981
1.08002
1.08024
1.08045
1.08067
1.0809
1.08114
1.08139
1.08165
1.08194
1.08224
1.08257
1.08293
1.08333
1.08376
1.08423
1.08476
1.08533
1.08597
1.08666
1.08743
1.08827
1.08919
1.09019
1.09129
1.09248
1.09378
1.09519
1.09672
1.09838
1.10016
1.10208
1.10413
1.10627
1.10844
1.11052
1.11233
1.11364
1.11418
1.11401
1.00422
1.00391
1.00386
1.00405
1.00439
1.00483
1.00531
1.00578
1.00622
1.00662
1.00699
1.00731
1.0076
1.00786
1.00809
1.0083
1.0085
1.00867
1.00884
1.009
1.00916
1.00931
1.00946
1.0096
1.00975
1.0099
1.01005
1.0102
1.01036
1.01052
1.01068
1.01084
1.011
1.01117
1.01134
1.01151
1.01168
1.01185
1.01202
1.01219
1.01236
1.01253
1.0127
1.01287
1.01304
1.01321
1.01337
1.01353
1.0137
1.01386
1.01402
1.01418
1.01434
1.0145
1.01466
1.01482
1.01498
1.01515
1.01532
1.01549
1.01566
1.01584
1.01602
1.0162
1.01639
1.01659
1.01679
1.017
1.01722
1.01744
1.01767
1.01791
1.01816
1.01841
1.01868
1.01895
1.01923
1.01953
1.01983
1.02014
1.02046
1.0208
1.02114
1.02149
1.02186
1.02223
1.02261
1.023
1.0234
1.02381
1.02422
1.02464
1.02506
1.02549
1.02592
1.02635
1.02679
1.02722
1.02765
1.02808
1.02851
1.02893
1.02935
1.02977
1.03017
1.03058
1.03097
1.03135
1.03173
1.03209
1.03245
1.03279
1.03313
1.03345
1.03377
1.03407
1.03436
1.03464
1.03492
1.03518
1.03543
1.03568
1.03591
1.03614
1.03636
1.03658
1.03678
1.03698
1.03718
1.03737
1.03756
1.03774
1.03792
1.03809
1.03826
1.03843
1.03859
1.03876
1.03892
1.03908
1.03923
1.03939
1.03955
1.0397
1.03986
1.04001
1.04017
1.04032
1.04048
1.04063
1.04078
1.04094
1.04109
1.04125
1.0414
1.04155
1.0417
1.04185
1.04199
1.04214
1.04228
1.04241
1.04255
1.04267
1.0428
1.04292
1.04303
1.04315
1.04325
1.04335
1.04344
1.04353
1.04362
1.0437
1.04377
1.04384
1.04391
1.04397
1.04403
1.04409
1.04414
1.04419
1.04424
1.04429
1.04434
1.04439
1.04444
1.0445
1.04455
1.04461
1.04467
1.04473
1.0448
1.04487
1.04494
1.04502
1.04511
1.0452
1.0453
1.0454
1.04551
1.04562
1.04574
1.04587
1.046
1.04614
1.04628
1.04644
1.04659
1.04676
1.04693
1.04711
1.04729
1.04748
1.04767
1.04787
1.04807
1.04828
1.04849
1.0487
1.04892
1.04913
1.04935
1.04957
1.04979
1.05001
1.05022
1.05043
1.05064
1.05085
1.05105
1.05124
1.05143
1.05161
1.05178
1.05194
1.0521
1.05224
1.05238
1.0525
1.05262
1.05273
1.05283
1.05292
1.053
1.05307
1.05313
1.05319
1.05324
1.05328
1.05332
1.05336
1.05339
1.05343
1.05346
1.05349
1.05352
1.05356
1.0536
1.05365
1.0537
1.05376
1.05383
1.0539
1.05399
1.05409
1.05419
1.05431
1.05444
1.05458
1.05473
1.0549
1.05507
1.05525
1.05545
1.05565
1.05587
1.05609
1.05631
1.05655
1.05679
1.05703
1.05728
1.05753
1.05779
1.05804
1.0583
1.05856
1.05882
1.05908
1.05934
1.0596
1.05987
1.06013
1.0604
1.06066
1.06093
1.0612
1.06147
1.06175
1.06203
1.06231
1.0626
1.06289
1.06318
1.06348
1.06379
1.0641
1.06441
1.06473
1.06505
1.06537
1.0657
1.06603
1.06637
1.0667
1.06703
1.06737
1.06771
1.06804
1.06837
1.06871
1.06904
1.06937
1.0697
1.07002
1.07034
1.07066
1.07098
1.0713
1.07161
1.07193
1.07224
1.07255
1.07286
1.07316
1.07347
1.07377
1.07407
1.07437
1.07467
1.07496
1.07525
1.07554
1.07583
1.07611
1.07639
1.07666
1.07693
1.0772
1.07745
1.07771
1.07795
1.07819
1.07843
1.07866
1.07888
1.0791
1.07931
1.07952
1.07973
1.07994
1.08015
1.08036
1.08058
1.0808
1.08103
1.08127
1.08153
1.08181
1.0821
1.08243
1.08278
1.08316
1.08358
1.08404
1.08455
1.08511
1.08573
1.08641
1.08715
1.08797
1.08885
1.08982
1.09088
1.09202
1.09326
1.09459
1.09602
1.09756
1.09919
1.10091
1.10269
1.10449
1.10625
1.10785
1.10915
1.11002
1.11032
1.11006
1.00523
1.00496
1.00488
1.00496
1.00517
1.00547
1.00581
1.00617
1.00652
1.00686
1.00717
1.00745
1.00771
1.00794
1.00816
1.00836
1.00854
1.00871
1.00888
1.00903
1.00919
1.00933
1.00948
1.00963
1.00977
1.00992
1.01007
1.01022
1.01037
1.01052
1.01068
1.01084
1.011
1.01117
1.01133
1.0115
1.01166
1.01183
1.012
1.01217
1.01234
1.0125
1.01267
1.01284
1.013
1.01317
1.01333
1.01349
1.01365
1.01381
1.01397
1.01413
1.01429
1.01445
1.01461
1.01478
1.01494
1.01511
1.01527
1.01545
1.01562
1.0158
1.01598
1.01617
1.01636
1.01656
1.01676
1.01697
1.01719
1.01741
1.01764
1.01788
1.01813
1.01838
1.01865
1.01892
1.01921
1.0195
1.0198
1.02012
1.02044
1.02077
1.02112
1.02147
1.02184
1.02221
1.0226
1.02299
1.02339
1.0238
1.02422
1.02464
1.02507
1.0255
1.02593
1.02637
1.02681
1.02724
1.02768
1.02811
1.02854
1.02896
1.02938
1.0298
1.03021
1.03061
1.031
1.03138
1.03175
1.03212
1.03247
1.03281
1.03314
1.03347
1.03378
1.03407
1.03436
1.03464
1.03491
1.03517
1.03541
1.03565
1.03588
1.03611
1.03633
1.03654
1.03674
1.03694
1.03713
1.03732
1.0375
1.03768
1.03786
1.03803
1.0382
1.03837
1.03853
1.0387
1.03886
1.03902
1.03918
1.03933
1.03949
1.03965
1.03981
1.03997
1.04012
1.04028
1.04044
1.0406
1.04075
1.04091
1.04107
1.04122
1.04138
1.04154
1.04169
1.04184
1.04199
1.04214
1.04228
1.04242
1.04256
1.04269
1.04282
1.04294
1.04306
1.04318
1.04328
1.04339
1.04348
1.04358
1.04366
1.04375
1.04382
1.0439
1.04396
1.04403
1.04409
1.04415
1.04421
1.04426
1.04432
1.04437
1.04442
1.04448
1.04453
1.04459
1.04465
1.04471
1.04477
1.04484
1.04491
1.04499
1.04507
1.04515
1.04524
1.04533
1.04543
1.04554
1.04565
1.04577
1.04589
1.04602
1.04616
1.0463
1.04645
1.0466
1.04676
1.04692
1.04709
1.04727
1.04745
1.04764
1.04783
1.04803
1.04823
1.04843
1.04864
1.04885
1.04906
1.04927
1.04949
1.0497
1.04991
1.05013
1.05033
1.05054
1.05074
1.05094
1.05114
1.05132
1.0515
1.05168
1.05184
1.052
1.05215
1.05229
1.05242
1.05255
1.05266
1.05276
1.05286
1.05294
1.05302
1.05309
1.05315
1.05321
1.05326
1.0533
1.05334
1.05338
1.05341
1.05344
1.05348
1.05351
1.05355
1.05358
1.05363
1.05367
1.05373
1.05379
1.05386
1.05394
1.05403
1.05412
1.05423
1.05435
1.05448
1.05463
1.05478
1.05495
1.05512
1.05531
1.05551
1.05571
1.05593
1.05615
1.05638
1.05662
1.05686
1.05711
1.05736
1.05761
1.05786
1.05812
1.05838
1.05864
1.0589
1.05916
1.05942
1.05968
1.05994
1.06021
1.06047
1.06074
1.061
1.06127
1.06154
1.06182
1.06209
1.06237
1.06266
1.06295
1.06324
1.06354
1.06384
1.06415
1.06446
1.06478
1.06509
1.06542
1.06574
1.06607
1.0664
1.06674
1.06707
1.0674
1.06774
1.06807
1.0684
1.06873
1.06906
1.06939
1.06971
1.07003
1.07035
1.07067
1.07099
1.0713
1.07162
1.07193
1.07224
1.07254
1.07285
1.07315
1.07346
1.07376
1.07406
1.07435
1.07465
1.07494
1.07523
1.07552
1.0758
1.07608
1.07636
1.07663
1.07689
1.07715
1.07741
1.07765
1.0779
1.07813
1.07836
1.07859
1.07881
1.07902
1.07923
1.07944
1.07964
1.07985
1.08005
1.08026
1.08047
1.08068
1.08091
1.08114
1.08139
1.08166
1.08195
1.08226
1.0826
1.08297
1.08338
1.08382
1.08432
1.08486
1.08545
1.08611
1.08682
1.0876
1.08846
1.08939
1.09039
1.09148
1.09265
1.0939
1.09523
1.09664
1.09812
1.09965
1.1012
1.10272
1.10415
1.10539
1.10635
1.10695
1.10711
1.1068
1.00605
1.00582
1.00572
1.00574
1.00587
1.00607
1.00631
1.00658
1.00686
1.00713
1.00739
1.00763
1.00786
1.00807
1.00827
1.00845
1.00862
1.00879
1.00894
1.00909
1.00924
1.00938
1.00953
1.00967
1.00981
1.00996
1.0101
1.01025
1.0104
1.01055
1.0107
1.01086
1.01102
1.01117
1.01134
1.0115
1.01166
1.01182
1.01199
1.01215
1.01232
1.01248
1.01265
1.01281
1.01297
1.01313
1.01329
1.01345
1.01361
1.01377
1.01393
1.01409
1.01425
1.01441
1.01457
1.01474
1.0149
1.01507
1.01524
1.01541
1.01558
1.01576
1.01595
1.01613
1.01633
1.01652
1.01673
1.01694
1.01716
1.01738
1.01761
1.01785
1.0181
1.01835
1.01862
1.01889
1.01918
1.01947
1.01977
1.02009
1.02041
1.02075
1.02109
1.02145
1.02182
1.0222
1.02258
1.02298
1.02338
1.0238
1.02422
1.02464
1.02507
1.02551
1.02594
1.02638
1.02682
1.02726
1.0277
1.02813
1.02856
1.02899
1.02941
1.02982
1.03023
1.03063
1.03102
1.0314
1.03178
1.03214
1.03249
1.03283
1.03316
1.03347
1.03378
1.03408
1.03436
1.03463
1.0349
1.03515
1.03539
1.03563
1.03586
1.03608
1.03629
1.03649
1.03669
1.03689
1.03708
1.03727
1.03745
1.03763
1.0378
1.03797
1.03814
1.03831
1.03847
1.03864
1.0388
1.03896
1.03912
1.03928
1.03944
1.0396
1.03976
1.03992
1.04008
1.04024
1.0404
1.04056
1.04072
1.04089
1.04105
1.04121
1.04137
1.04153
1.04168
1.04184
1.04199
1.04214
1.04229
1.04244
1.04258
1.04271
1.04285
1.04297
1.0431
1.04321
1.04332
1.04343
1.04353
1.04363
1.04372
1.0438
1.04388
1.04396
1.04403
1.0441
1.04416
1.04423