# vtk DataFile Version 2.0
LBE mesh
ASCII
DATASET STRUCTURED_POINTS
DIMENSIONS 400 100 1
ASPECT_RATIO 1 1 1
ORIGIN 0 0 0
POINT_DATA 40000
SCALARS rho double 1
LOOKUP_TABLE default
1.02481
1.07652
1.0921
1.09623
1.09846
1.10017
1.10136
1.10215
1.10271
1.10312
1.10344
1.1037
1.10391
1.10409
1.10423
1.10436
1.10447
1.10456
1.10465
1.10472
1.10479
1.10486
1.10491
1.10496
1.10501
1.10506
1.1051
1.10513
1.10517
1.1052
1.10523
1.10526
1.10529
1.10532
1.10534
1.10536
1.10538
1.1054
1.10542
1.10544
1.10546
1.10548
1.10549
1.10551
1.10552
1.10554
1.10556
1.10557
1.10559
1.10561
1.10563
1.10565
1.10568
1.1057
1.10573
1.10577
1.1058
1.10584
1.10589
1.10594
1.10599
1.10605
1.10612
1.10619
1.10627
1.10635
1.10644
1.10654
1.10665
1.10676
1.10688
1.10701
1.10715
1.10729
1.10744
1.1076
1.10777
1.10795
1.10813
1.10832
1.10852
1.10873
1.10894
1.10916
1.10939
1.10963
1.10987
1.11011
1.11037
1.11063
1.11089
1.11116
1.11143
1.1117
1.11198
1.11226
1.11254
1.11283
1.11311
1.1134
1.11368
1.11397
1.11425
1.11453
1.11481
1.11508
1.11536
1.11563
1.11589
1.11615
1.11641
1.11665
1.1169
1.11714
1.11737
1.11759
1.11781
1.11802
1.11823
1.11842
1.11861
1.11879
1.11897
1.11914
1.1193
1.11946
1.11961
1.11975
1.11989
1.12002
1.12015
1.12028
1.1204
1.12052
1.12063
1.12074
1.12085
1.12096
1.12106
1.12116
1.12126
1.12136
1.12146
1.12156
1.12165
1.12175
1.12184
1.12194
1.12203
1.12213
1.12222
1.12232
1.12242
1.12251
1.12261
1.12271
1.12281
1.12291
1.12301
1.12311
1.12321
1.12331
1.12342
1.12352
1.12363
1.12374
1.12385
1.12396
1.12407
1.12418
1.12429
1.1244
1.12452
1.12463
1.12475
1.12486
1.12498
1.12509
1.12521
1.12532
1.12544
1.12555
1.12567
1.12578
1.1259
1.12601
1.12612
1.12623
1.12634
1.12646
1.12657
1.12667
1.12678
1.12689
1.12699
1.1271
1.1272
1.12731
1.12741
1.12751
1.12761
1.12772
1.12782
1.12792
1.12802
1.12812
1.12822
1.12832
1.12842
1.12852
1.12862
1.12873
1.12883
1.12893
1.12904
1.12915
1.12925
1.12936
1.12947
1.12959
1.1297
1.12982
1.12993
1.13005
1.13017
1.13029
1.13042
1.13054
1.13067
1.1308
1.13093
1.13106
1.1312
1.13133
1.13147
1.13161
1.13176
1.1319
1.13205
1.1322
1.13235
1.1325
1.13266
1.13282
1.13299
1.13315
1.13333
1.1335
1.13368
1.13386
1.13405
1.13424
1.13444
1.13465
1.13486
1.13507
1.13529
1.13552
1.13575
1.13599
1.13624
1.13649
1.13675
1.13702
1.13729
1.13757
1.13786
1.13815
1.13845
1.13875
1.13906
1.13937
1.13968
1.14
1.14032
1.14064
1.14096
1.14128
1.14161
1.14193
1.14225
1.14256
1.14287
1.14318
1.14349
1.14379
1.14408
1.14437
1.14465
1.14493
1.1452
1.14546
1.14572
1.14597
1.14621
1.14645
1.14668
1.14691
1.14713
1.14734
1.14755
1.14776
1.14796
1.14816
1.14835
1.14854
1.14872
1.14891
1.14909
1.14926
1.14943
1.14961
1.14977
1.14994
1.1501
1.15026
1.15042
1.15057
1.15072
1.15087
1.15101
1.15115
1.15129
1.15142
1.15155
1.15168
1.1518
1.15192
1.15204
1.15215
1.15226
1.15237
1.15247
1.15257
1.15267
1.15277
1.15286
1.15296
1.15305
1.15315
1.15324
1.15334
1.15344
1.15354
1.15364
1.15375
1.15387
1.15399
1.15412
1.15426
1.15441
1.15457
1.15474
1.15493
1.15513
1.15534
1.15558
1.15583
1.15611
1.1564
1.15672
1.15706
1.15743
1.15783
1.15825
1.15871
1.15919
1.15971
1.16026
1.16084
1.16147
1.16212
1.16282
1.16356
1.16433
1.16516
1.16602
1.16694
1.1679
1.16891
1.16999
1.17112
1.17232
1.17359
1.17495
1.1764
1.17795
1.17964
1.18147
1.18349
1.18574
1.18827
1.19119
1.19463
1.19877
1.2041
1.21163
1.2223
1.23626
1.26117
1.06201
1.0739
1.08452
1.09219
1.09628
1.09852
1.09997
1.10101
1.10178
1.10236
1.1028
1.10315
1.10344
1.10367
1.10387
1.10403
1.10418
1.1043
1.10441
1.10451
1.10459
1.10467
1.10474
1.10481
1.10487
1.10492
1.10497
1.10502
1.10506
1.1051
1.10514
1.10517
1.1052
1.10523
1.10526
1.10529
1.10531
1.10534
1.10536
1.10538
1.1054
1.10542
1.10544
1.10546
1.10548
1.10549
1.10551
1.10553
1.10555
1.10557
1.10559
1.10562
1.10565
1.10567
1.10571
1.10574
1.10578
1.10582
1.10587
1.10592
1.10598
1.10604
1.10611
1.10618
1.10626
1.10635
1.10644
1.10654
1.10665
1.10676
1.10689
1.10701
1.10715
1.1073
1.10745
1.10761
1.10778
1.10796
1.10814
1.10834
1.10854
1.10874
1.10896
1.10918
1.10941
1.10965
1.10989
1.11014
1.11039
1.11065
1.11091
1.11118
1.11145
1.11173
1.112
1.11228
1.11257
1.11285
1.11313
1.11342
1.1137
1.11398
1.11426
1.11454
1.11482
1.1151
1.11537
1.11563
1.1159
1.11616
1.11641
1.11666
1.1169
1.11713
1.11736
1.11759
1.1178
1.11801
1.11822
1.11841
1.1186
1.11878
1.11895
1.11912
1.11928
1.11944
1.11959
1.11973
1.11987
1.12
1.12013
1.12026
1.12038
1.1205
1.12061
1.12072
1.12083
1.12094
1.12104
1.12114
1.12124
1.12134
1.12144
1.12154
1.12164
1.12173
1.12183
1.12192
1.12202
1.12211
1.12221
1.12231
1.1224
1.1225
1.1226
1.1227
1.1228
1.1229
1.123
1.1231
1.1232
1.12331
1.12341
1.12352
1.12363
1.12373
1.12384
1.12395
1.12406
1.12418
1.12429
1.1244
1.12452
1.12463
1.12475
1.12486
1.12498
1.12509
1.12521
1.12532
1.12544
1.12555
1.12567
1.12578
1.1259
1.12601
1.12612
1.12624
1.12635
1.12646
1.12657
1.12668
1.12678
1.12689
1.127
1.1271
1.12721
1.12731
1.12741
1.12751
1.12762
1.12772
1.12782
1.12792
1.12802
1.12812
1.12822
1.12832
1.12842
1.12852
1.12863
1.12873
1.12883
1.12894
1.12904
1.12915
1.12926
1.12937
1.12948
1.12959
1.1297
1.12982
1.12994
1.13006
1.13018
1.1303
1.13042
1.13055
1.13067
1.1308
1.13093
1.13107
1.1312
1.13134
1.13148
1.13162
1.13176
1.13191
1.13206
1.13221
1.13236
1.13251
1.13267
1.13283
1.133
1.13317
1.13334
1.13351
1.13369
1.13388
1.13407
1.13426
1.13446
1.13467
1.13488
1.13509
1.13532
1.13554
1.13578
1.13602
1.13627
1.13652
1.13678
1.13705
1.13733
1.13761
1.13789
1.13818
1.13848
1.13878
1.13909
1.1394
1.13972
1.14003
1.14035
1.14067
1.14099
1.14132
1.14164
1.14196
1.14227
1.14259
1.1429
1.14321
1.14351
1.14381
1.1441
1.14439
1.14467
1.14494
1.14521
1.14547
1.14573
1.14598
1.14622
1.14646
1.14669
1.14691
1.14713
1.14735
1.14756
1.14776
1.14796
1.14816
1.14835
1.14854
1.14873
1.14891
1.14909
1.14926
1.14943
1.1496
1.14977
1.14994
1.1501
1.15026
1.15041
1.15057
1.15072
1.15086
1.15101
1.15115
1.15128
1.15142
1.15154
1.15167
1.15179
1.15191
1.15203
1.15214
1.15225
1.15236
1.15246
1.15256
1.15266
1.15276
1.15285
1.15295
1.15304
1.15314
1.15323
1.15333
1.15343
1.15353
1.15364
1.15375
1.15386
1.15399
1.15412
1.15426
1.15441
1.15457
1.15475
1.15494
1.15514
1.15536
1.1556
1.15586
1.15614
1.15643
1.15676
1.15711
1.15748
1.15788
1.15831
1.15877
1.15926
1.15978
1.16033
1.16092
1.16155
1.16222
1.16292
1.16366
1.16445
1.16527
1.16615
1.16707
1.16804
1.16907
1.17015
1.17129
1.17251
1.1738
1.17517
1.17665
1.17824
1.17996
1.18184
1.18392
1.18625
1.1889
1.19196
1.19562
1.20011
1.20576
1.21301
1.22339
1.24202
1.27244
1.07984
1.08042
1.08657
1.0916
1.09489
1.09724
1.09893
1.10013
1.10102
1.1017
1.10223
1.10266
1.103
1.10329
1.10353
1.10373
1.1039
1.10405
1.10418
1.1043
1.10441
1.1045
1.10458
1.10466
1.10473
1.10479
1.10485
1.1049
1.10495
1.105
1.10504
1.10508
1.10512
1.10515
1.10519
1.10522
1.10524
1.10527
1.1053
1.10532
1.10534
1.10536
1.10539
1.10541
1.10543
1.10545
1.10547
1.10549
1.10551
1.10553
1.10556
1.10558
1.10561
1.10564
1.10568
1.10571
1.10575
1.1058
1.10585
1.1059
1.10596
1.10602
1.10609
1.10616
1.10625
1.10633
1.10643
1.10653
1.10664
1.10676
1.10688
1.10701
1.10715
1.1073
1.10745
1.10762
1.10779
1.10797
1.10815
1.10835
1.10855
1.10876
1.10897
1.10919
1.10942
1.10966
1.1099
1.11015
1.11041
1.11067
1.11093
1.1112
1.11147
1.11175
1.11202
1.1123
1.11259
1.11287
1.11315
1.11344
1.11372
1.114
1.11428
1.11456
1.11484
1.11511
1.11538
1.11565
1.11591
1.11617
1.11642
1.11667
1.11691
1.11714
1.11737
1.11759
1.11781
1.11801
1.11822
1.11841
1.1186
1.11878
1.11895
1.11912
1.11928
1.11943
1.11958
1.11972
1.11986
1.11999
1.12012
1.12024
1.12036
1.12048
1.1206
1.12071
1.12081
1.12092
1.12102
1.12113
1.12123
1.12133
1.12143
1.12152
1.12162
1.12172
1.12181
1.12191
1.12201
1.1221
1.1222
1.1223
1.12239
1.12249
1.12259
1.12269
1.12279
1.12289
1.12299
1.1231
1.1232
1.1233
1.12341
1.12352
1.12362
1.12373
1.12384
1.12395
1.12407
1.12418
1.12429
1.1244
1.12452
1.12463
1.12475
1.12486
1.12498
1.1251
1.12521
1.12533
1.12544
1.12556
1.12567
1.12579
1.1259
1.12602
1.12613
1.12624
1.12635
1.12646
1.12657
1.12668
1.12679
1.1269
1.127
1.12711
1.12721
1.12732
1.12742
1.12752
1.12762
1.12772
1.12782
1.12792
1.12803
1.12813
1.12823
1.12833
1.12843
1.12853
1.12863
1.12873
1.12884
1.12894
1.12905
1.12916
1.12926
1.12937
1.12948
1.1296
1.12971
1.12983
1.12994
1.13006
1.13018
1.1303
1.13043
1.13055
1.13068
1.13081
1.13094
1.13107
1.13121
1.13135
1.13149
1.13163
1.13177
1.13192
1.13206
1.13221
1.13237
1.13252
1.13268
1.13284
1.13301
1.13318
1.13335
1.13353
1.13371
1.13389
1.13408
1.13428
1.13448
1.13468
1.1349
1.13511
1.13534
1.13557
1.1358
1.13604
1.13629
1.13655
1.13681
1.13708
1.13736
1.13764
1.13792
1.13822
1.13851
1.13882
1.13913
1.13944
1.13975
1.14007
1.14039
1.14071
1.14103
1.14135
1.14167
1.14199
1.14231
1.14262
1.14293
1.14324
1.14354
1.14384
1.14413
1.14441
1.14469
1.14497
1.14523
1.14549
1.14575
1.146
1.14624
1.14647
1.1467
1.14693
1.14715
1.14736
1.14757
1.14777
1.14797
1.14817
1.14836
1.14855
1.14873
1.14891
1.14909
1.14927
1.14944
1.14961
1.14978
1.14994
1.1501
1.15026
1.15042
1.15057
1.15072
1.15087
1.15101
1.15115
1.15128
1.15142
1.15154
1.15167
1.15179
1.15191
1.15203
1.15214
1.15225
1.15235
1.15245
1.15255
1.15265
1.15275
1.15284
1.15294
1.15303
1.15313
1.15322
1.15332
1.15342
1.15352
1.15363
1.15374
1.15385
1.15398
1.15411
1.15425
1.15441
1.15457
1.15475
1.15494
1.15514
1.15536
1.1556
1.15586
1.15614
1.15645
1.15677
1.15712
1.1575
1.1579
1.15833
1.1588
1.15929
1.15982
1.16038
1.16097
1.1616
1.16227
1.16298
1.16372
1.16451
1.16535
1.16622
1.16715
1.16813
1.16916
1.17025
1.1714
1.17262
1.17392
1.1753
1.17678
1.17838
1.18011
1.18201
1.1841
1.18644
1.1891
1.19217
1.19578
1.20011
1.20553
1.21254
1.22126
1.23071
1.24052
1.0882
1.08754
1.08966
1.09224
1.09482
1.09687
1.0984
1.09957
1.10048
1.10121
1.10178
1.10225
1.10264
1.10296
1.10323
1.10346
1.10365
1.10383
1.10398
1.10411
1.10423
1.10434
1.10443
1.10452
1.1046
1.10467
1.10474
1.1048
1.10485
1.1049
1.10495
1.105
1.10504
1.10508
1.10511
1.10515
1.10518
1.10521
1.10524
1.10526
1.10529
1.10531
1.10534
1.10536
1.10538
1.1054
1.10542
1.10545
1.10547
1.10549
1.10552
1.10555
1.10558
1.10561
1.10564
1.10568
1.10572
1.10577
1.10582
1.10587
1.10593
1.106
1.10607
1.10614
1.10623
1.10632
1.10641
1.10652
1.10663
1.10674
1.10687
1.107
1.10714
1.10729
1.10745
1.10761
1.10778
1.10796
1.10815
1.10835
1.10855
1.10876
1.10898
1.1092
1.10943
1.10967
1.10991
1.11016
1.11042
1.11068
1.11094
1.11121
1.11149
1.11176
1.11204
1.11232
1.11261
1.11289
1.11317
1.11346
1.11374
1.11402
1.11431
1.11458
1.11486
1.11513
1.1154
1.11567
1.11593
1.11619
1.11644
1.11669
1.11693
1.11716
1.11739
1.11761
1.11782
1.11803
1.11823
1.11842
1.1186
1.11878
1.11895
1.11912
1.11928
1.11943
1.11958
1.11972
1.11985
1.11999
1.12011
1.12024
1.12036
1.12047
1.12059
1.1207
1.1208
1.12091
1.12101
1.12112
1.12122
1.12132
1.12142
1.12151
1.12161
1.12171
1.1218
1.1219
1.122
1.12209
1.12219
1.12229
1.12239
1.12249
1.12259
1.12269
1.12279
1.12289
1.12299
1.12309
1.1232
1.1233
1.12341
1.12352
1.12363
1.12374
1.12385
1.12396
1.12407
1.12418
1.1243
1.12441
1.12452
1.12464
1.12476
1.12487
1.12499
1.1251
1.12522
1.12534
1.12545
1.12557
1.12568
1.1258
1.12591
1.12603
1.12614
1.12625
1.12636
1.12647
1.12658
1.12669
1.1268
1.12691
1.12701
1.12712
1.12722
1.12732
1.12743
1.12753
1.12763
1.12773
1.12783
1.12793
1.12803
1.12813
1.12824
1.12834
1.12844
1.12854
1.12864
1.12874
1.12885
1.12895
1.12906
1.12917
1.12927
1.12938
1.12949
1.12961
1.12972
1.12984
1.12995
1.13007
1.13019
1.13031
1.13044
1.13056
1.13069
1.13082
1.13095
1.13108
1.13122
1.13136
1.13149
1.13164
1.13178
1.13192
1.13207
1.13222
1.13238
1.13253
1.13269
1.13285
1.13302
1.13319
1.13336
1.13354
1.13372
1.1339
1.13409
1.13429
1.13449
1.1347
1.13491
1.13513
1.13535
1.13558
1.13582
1.13606
1.13631
1.13657
1.13684
1.13711
1.13738
1.13766
1.13795
1.13825
1.13855
1.13885
1.13916
1.13947
1.13979
1.14011
1.14043
1.14075
1.14107
1.14139
1.14171
1.14203
1.14235
1.14266
1.14297
1.14328
1.14358
1.14387
1.14417
1.14445
1.14473
1.145
1.14527
1.14552
1.14578
1.14602
1.14626
1.1465
1.14673
1.14695
1.14717
1.14738
1.14759
1.14779
1.14799
1.14818
1.14838
1.14856
1.14875
1.14893
1.14911
1.14928
1.14946
1.14962
1.14979
1.14996
1.15012
1.15027
1.15043
1.15058
1.15073
1.15088
1.15102
1.15116
1.15129
1.15142
1.15155
1.15168
1.1518
1.15191
1.15203
1.15214
1.15225
1.15235
1.15245
1.15255
1.15265
1.15274
1.15284
1.15293
1.15302
1.15312
1.15321
1.15331
1.15341
1.15351
1.15361
1.15372
1.15384
1.15396
1.1541
1.15424
1.15439
1.15455
1.15473
1.15492
1.15513
1.15535
1.15559
1.15585
1.15613
1.15644
1.15676
1.15712
1.15749
1.1579
1.15833
1.1588
1.15929
1.15982
1.16038
1.16098
1.16161
1.16228
1.16299
1.16374
1.16453
1.16537
1.16625
1.16718
1.16816
1.16919
1.17028
1.17143
1.17265
1.17394
1.17532
1.1768
1.17838
1.1801
1.18198
1.18404
1.18633
1.18891
1.19185
1.19525
1.19922
1.20386
1.20923
1.21526
1.22015
1.22043
1.09226
1.09178
1.09245
1.09385
1.0955
1.09699
1.09826
1.09932
1.10018
1.10088
1.10146
1.10194
1.10234
1.10268
1.10297
1.10322
1.10344
1.10363
1.10379
1.10394
1.10407
1.10419
1.10429
1.10439
1.10448
1.10456
1.10463
1.1047
1.10476
1.10482
1.10487
1.10492
1.10496
1.105
1.10504
1.10508
1.10512
1.10515
1.10518
1.10521
1.10523
1.10526
1.10529
1.10531
1.10533
1.10536
1.10538
1.1054
1.10543
1.10545
1.10548
1.10551
1.10554
1.10557
1.10561
1.10565
1.10569
1.10574
1.10579
1.10584
1.1059
1.10597
1.10604
1.10612
1.1062
1.10629
1.10639
1.10649
1.10661
1.10673
1.10685
1.10699
1.10713
1.10728
1.10744
1.1076
1.10777
1.10796
1.10814
1.10834
1.10855
1.10876
1.10898
1.1092
1.10943
1.10967
1.10992
1.11017
1.11043
1.11069
1.11096
1.11123
1.1115
1.11178
1.11206
1.11234
1.11263
1.11291
1.1132
1.11348
1.11377
1.11405
1.11433
1.11461
1.11489
1.11516
1.11543
1.1157
1.11596
1.11621
1.11647
1.11671
1.11695
1.11718
1.11741
1.11763
1.11784
1.11805
1.11824
1.11843
1.11862
1.11879
1.11896
1.11913
1.11929
1.11944
1.11958
1.11972
1.11986
1.11999
1.12011
1.12023
1.12035
1.12047
1.12058
1.12069
1.1208
1.1209
1.12101
1.12111
1.12121
1.12131
1.12141
1.12151
1.1216
1.1217
1.1218
1.1219
1.12199
1.12209
1.12219
1.12229
1.12238
1.12248
1.12258
1.12268
1.12279
1.12289
1.12299
1.12309
1.1232
1.12331
1.12341
1.12352
1.12363
1.12374
1.12385
1.12396
1.12408
1.12419
1.1243
1.12442
1.12453
1.12465
1.12476
1.12488
1.125
1.12511
1.12523
1.12535
1.12546
1.12558
1.12569
1.12581
1.12592
1.12604
1.12615
1.12626
1.12637
1.12648
1.12659
1.1267
1.12681
1.12692
1.12702
1.12713
1.12723
1.12734
1.12744
1.12754
1.12764
1.12774
1.12785
1.12795
1.12805
1.12815
1.12825
1.12835
1.12845
1.12855
1.12865
1.12876
1.12886
1.12897
1.12907
1.12918
1.12929
1.1294
1.12951
1.12962
1.12973
1.12985
1.12997
1.13009
1.13021
1.13033
1.13045
1.13058
1.1307
1.13083
1.13096
1.1311
1.13123
1.13137
1.1315
1.13165
1.13179
1.13193
1.13208
1.13223
1.13238
1.13254
1.1327
1.13286
1.13303
1.1332
1.13337
1.13355
1.13373
1.13391
1.1341
1.1343
1.1345
1.13471
1.13492
1.13514
1.13537
1.1356
1.13584
1.13608
1.13633
1.13659
1.13686
1.13713
1.13741
1.13769
1.13798
1.13828
1.13858
1.13888
1.1392
1.13951
1.13983
1.14015
1.14047
1.14079
1.14111
1.14144
1.14176
1.14208
1.1424
1.14271
1.14302
1.14332
1.14363
1.14392
1.14421
1.14449
1.14477
1.14504
1.1453
1.14556
1.14581
1.14606
1.1463
1.14653
1.14676
1.14698
1.1472
1.14741
1.14761
1.14782
1.14801
1.14821
1.1484
1.14859
1.14877
1.14895
1.14913
1.1493
1.14948
1.14964
1.14981
1.14997
1.15014
1.15029
1.15045
1.1506
1.15075
1.15089
1.15104
1.15117
1.15131
1.15144
1.15157
1.15169
1.15181
1.15193
1.15204
1.15215
1.15225
1.15236
1.15246
1.15255
1.15265
1.15274
1.15284
1.15293
1.15302
1.15311
1.1532
1.1533
1.15339
1.15349
1.1536
1.15371
1.15382
1.15395
1.15408
1.15422
1.15437
1.15453
1.15471
1.1549
1.1551
1.15532
1.15556
1.15582
1.15611
1.15641
1.15674
1.15709
1.15747
1.15787
1.15831
1.15877
1.15927
1.1598
1.16036
1.16096
1.16159
1.16226
1.16297
1.16372
1.16451
1.16535
1.16623
1.16715
1.16813
1.16916
1.17024
1.17138
1.17259
1.17388
1.17524
1.17669
1.17825
1.17993
1.18175
1.18374
1.18593
1.18837
1.19108
1.19413
1.19755
1.20131
1.20516
1.20864
1.21108
1.21045
1.09491
1.09447
1.09467
1.09542
1.09641
1.09746
1.09845
1.09932
1.10008
1.10072
1.10127
1.10174
1.10214
1.10248
1.10278
1.10304
1.10326
1.10346
1.10364
1.10379
1.10393
1.10406
1.10417
1.10427
1.10437
1.10445
1.10453
1.10461
1.10467
1.10473
1.10479
1.10484
1.10489
1.10494
1.10498
1.10502
1.10506
1.10509
1.10512
1.10516
1.10518
1.10521
1.10524
1.10526
1.10529
1.10531
1.10534
1.10536
1.10539
1.10541
1.10544
1.10547
1.1055
1.10554
1.10557
1.10561
1.10566
1.1057
1.10575
1.10581
1.10587
1.10594
1.10601
1.10609
1.10617
1.10627
1.10636
1.10647
1.10658
1.1067
1.10683
1.10696
1.10711
1.10726
1.10742
1.10758
1.10776
1.10794
1.10813
1.10833
1.10853
1.10875
1.10897
1.10919
1.10943
1.10967
1.10992
1.11017
1.11043
1.11069
1.11096
1.11124
1.11151
1.11179
1.11208
1.11236
1.11265
1.11293
1.11322
1.1135
1.11379
1.11408
1.11436
1.11464
1.11492
1.11519
1.11546
1.11573
1.11599
1.11625
1.1165
1.11674
1.11698
1.11722
1.11744
1.11766
1.11787
1.11808
1.11827
1.11846
1.11864
1.11882
1.11899
1.11915
1.1193
1.11945
1.11959
1.11973
1.11987
1.11999
1.12012
1.12024
1.12036
1.12047
1.12058
1.12069
1.1208
1.1209
1.12101
1.12111
1.12121
1.12131
1.12141
1.1215
1.1216
1.1217
1.1218
1.12189
1.12199
1.12209
1.12219
1.12229
1.12238
1.12248
1.12258
1.12269
1.12279
1.12289
1.12299
1.1231
1.1232
1.12331
1.12342
1.12353
1.12364
1.12375
1.12386
1.12397
1.12408
1.1242
1.12431
1.12443
1.12454
1.12466
1.12478
1.12489
1.12501
1.12513
1.12524
1.12536
1.12548
1.12559
1.12571
1.12582
1.12594
1.12605
1.12616
1.12628
1.12639
1.1265
1.12661
1.12672
1.12682
1.12693
1.12704
1.12714
1.12725
1.12735
1.12745
1.12756
1.12766
1.12776
1.12786
1.12796
1.12806
1.12816
1.12826
1.12836
1.12847
1.12857
1.12867
1.12877
1.12888
1.12898
1.12909
1.1292
1.1293
1.12941
1.12952
1.12964
1.12975
1.12987
1.12998
1.1301
1.13022
1.13034
1.13047
1.13059
1.13072
1.13085
1.13098
1.13111
1.13124
1.13138
1.13152
1.13166
1.1318
1.13194
1.13209
1.13224
1.13239
1.13255
1.13271
1.13287
1.13303
1.1332
1.13338
1.13355
1.13373
1.13392
1.13411
1.13431
1.13451
1.13472
1.13493
1.13515
1.13538
1.13561
1.13585
1.1361
1.13635
1.13661
1.13687
1.13715
1.13743
1.13771
1.13801
1.1383
1.13861
1.13892
1.13923
1.13955
1.13986
1.14019
1.14051
1.14084
1.14116
1.14148
1.14181
1.14213
1.14245
1.14276
1.14307
1.14338
1.14368
1.14397
1.14426
1.14454
1.14482
1.14509
1.14535
1.14561
1.14586
1.1461
1.14634
1.14657
1.1468
1.14702
1.14723
1.14744
1.14765
1.14785
1.14804
1.14824
1.14843
1.14861
1.1488
1.14898
1.14916
1.14933
1.1495
1.14967
1.14984
1.15
1.15016
1.15032
1.15047
1.15063
1.15077
1.15092
1.15106
1.1512
1.15133
1.15146
1.15159
1.15171
1.15183
1.15194
1.15206
1.15216
1.15227
1.15237
1.15247
1.15256
1.15266
1.15275
1.15284
1.15293
1.15302
1.1531
1.15319
1.15329
1.15338
1.15348
1.15358
1.15369
1.1538
1.15392
1.15405
1.15419
1.15434
1.1545
1.15467
1.15486
1.15506
1.15528
1.15552
1.15578
1.15606
1.15636
1.15669
1.15704
1.15741
1.15782
1.15825
1.15872
1.15921
1.15974
1.1603
1.1609
1.16153
1.1622
1.16291
1.16365
1.16444
1.16527
1.16615
1.16707
1.16804
1.16906
1.17013
1.17126
1.17246
1.17372
1.17505
1.17647
1.17799
1.17961
1.18135
1.18324
1.18529
1.18752
1.18996
1.1926
1.19541
1.19829
1.20101
1.20311
1.20421
1.20398
1.09676
1.09632
1.09634
1.09673
1.09734
1.09806
1.09879
1.09949
1.10013
1.10069
1.10119
1.10163
1.10201
1.10234
1.10263
1.10289
1.10312
1.10332
1.1035
1.10367
1.10381
1.10394
1.10406
1.10417
1.10427
1.10436
1.10444
1.10452
1.10459
1.10466
1.10472
1.10477
1.10483
1.10487
1.10492
1.10496
1.105
1.10504
1.10507
1.1051
1.10514
1.10516
1.10519
1.10522
1.10525
1.10527
1.1053
1.10532
1.10535
1.10538
1.1054
1.10543
1.10547
1.1055
1.10554
1.10558
1.10562
1.10567
1.10572
1.10578
1.10584
1.1059
1.10598
1.10606
1.10614
1.10623
1.10633
1.10644
1.10655
1.10667
1.1068
1.10694
1.10708
1.10723
1.10739
1.10756
1.10774
1.10792
1.10811
1.10831
1.10852
1.10873
1.10896
1.10918
1.10942
1.10966
1.10991
1.11017
1.11043
1.1107
1.11097
1.11124
1.11152
1.11181
1.11209
1.11238
1.11266
1.11295
1.11324
1.11353
1.11382
1.1141
1.11439
1.11467
1.11495
1.11523
1.1155
1.11577
1.11603
1.11629
1.11654
1.11678
1.11702
1.11726
1.11748
1.1177
1.11791
1.11811
1.11831
1.11849
1.11868
1.11885
1.11901
1.11917
1.11933
1.11947
1.11961
1.11975
1.11988
1.12001
1.12013
1.12025
1.12037
1.12048
1.12059
1.1207
1.1208
1.12091
1.12101
1.12111
1.12121
1.12131
1.12141
1.12151
1.1216
1.1217
1.1218
1.1219
1.12199
1.12209
1.12219
1.12229
1.12239
1.12249
1.12259
1.12269
1.12279
1.1229
1.123
1.12311
1.12321
1.12332
1.12343
1.12354
1.12365
1.12376
1.12387
1.12398
1.1241
1.12421
1.12433
1.12444
1.12456
1.12467
1.12479
1.12491
1.12502
1.12514
1.12526
1.12537
1.12549
1.12561
1.12572
1.12584
1.12595
1.12607
1.12618
1.12629
1.1264
1.12651
1.12662
1.12673
1.12684
1.12695
1.12705
1.12716
1.12726
1.12737
1.12747
1.12757
1.12768
1.12778
1.12788
1.12798
1.12808
1.12818
1.12828
1.12838
1.12849
1.12859
1.12869
1.12879
1.1289
1.129
1.12911
1.12922
1.12932
1.12943
1.12955
1.12966
1.12977
1.12989
1.13
1.13012
1.13024
1.13036
1.13048
1.13061
1.13073
1.13086
1.13099
1.13112
1.13126
1.13139
1.13153
1.13167
1.13181
1.13195
1.1321
1.13225
1.1324
1.13256
1.13271
1.13288
1.13304
1.13321
1.13338
1.13356
1.13374
1.13393
1.13412
1.13431
1.13452
1.13472
1.13494
1.13516
1.13539
1.13562
1.13586
1.13611
1.13636
1.13662
1.13689
1.13717
1.13745
1.13774
1.13803
1.13833
1.13864
1.13895
1.13926
1.13958
1.1399
1.14023
1.14055
1.14088
1.14121
1.14154
1.14186
1.14218
1.1425
1.14282
1.14313
1.14344
1.14374
1.14403
1.14432
1.1446
1.14488
1.14515
1.14541
1.14566
1.14591
1.14615
1.14639
1.14662
1.14684
1.14706
1.14727
1.14748
1.14768
1.14788
1.14808
1.14827
1.14846
1.14865
1.14883
1.14901
1.14919
1.14936
1.14953
1.1497
1.14987
1.15003
1.15019
1.15035
1.15051
1.15066
1.15081
1.15095
1.15109
1.15123
1.15136
1.15149
1.15162
1.15174
1.15185
1.15197
1.15208
1.15218
1.15229
1.15238
1.15248
1.15257
1.15266
1.15275
1.15284
1.15293
1.15301
1.1531
1.15319
1.15328
1.15337
1.15346
1.15356
1.15367
1.15378
1.15389
1.15402
1.15415
1.1543
1.15446
1.15463
1.15481
1.15501
1.15523
1.15547
1.15572
1.156
1.1563
1.15662
1.15697
1.15734
1.15774
1.15817
1.15864
1.15913
1.15965
1.16021
1.16081
1.16143
1.1621
1.16281
1.16355
1.16433
1.16516
1.16603
1.16694
1.1679
1.1689
1.16996
1.17108
1.17224
1.17348
1.17478
1.17615
1.17761
1.17915
1.1808
1.18256
1.18445
1.18646
1.18859
1.19083
1.19309
1.19525
1.19713
1.19848
1.19903
1.19884
1.09808
1.09769
1.09762
1.09781
1.09819
1.09868
1.09922
1.09976
1.10028
1.10076
1.1012
1.10159
1.10195
1.10226
1.10254
1.1028
1.10302
1.10322
1.1034
1.10357
1.10372
1.10385
1.10397
1.10409
1.10419
1.10428
1.10437
1.10445
1.10452
1.10459
1.10465
1.10471
1.10477
1.10482
1.10487
1.10491
1.10495
1.10499
1.10503
1.10506
1.10509
1.10512
1.10515
1.10518
1.10521
1.10523
1.10526
1.10528
1.10531
1.10534
1.10537
1.1054
1.10543
1.10546
1.1055
1.10554
1.10558
1.10563
1.10568
1.10574
1.1058
1.10587
1.10594
1.10602
1.10611
1.1062
1.1063
1.1064
1.10652
1.10664
1.10677
1.10691
1.10705
1.1072
1.10736
1.10753
1.10771
1.10789
1.10809
1.10829
1.1085
1.10871
1.10894
1.10917
1.10941
1.10965
1.1099
1.11016
1.11042
1.11069
1.11097
1.11125
1.11153
1.11181
1.1121
1.11239
1.11268
1.11297
1.11326
1.11355
1.11385
1.11413
1.11442
1.1147
1.11499
1.11526
1.11554
1.11581
1.11607
1.11633
1.11658
1.11683
1.11707
1.1173
1.11753
1.11774
1.11795
1.11816
1.11835
1.11854
1.11872
1.11889
1.11905
1.11921
1.11936
1.1195
1.11964
1.11978
1.11991
1.12003
1.12015
1.12027
1.12038
1.12049
1.1206
1.12071
1.12081
1.12092
1.12102
1.12112
1.12122
1.12132
1.12141
1.12151
1.12161
1.12171
1.1218
1.1219
1.122
1.1221
1.1222
1.12229
1.12239
1.12249
1.1226
1.1227
1.1228
1.12291
1.12301
1.12312
1.12322
1.12333
1.12344
1.12355
1.12366
1.12377
1.12388
1.124
1.12411
1.12423
1.12434
1.12446
1.12457
1.12469
1.12481
1.12492
1.12504
1.12516
1.12528
1.12539
1.12551
1.12563
1.12574
1.12586
1.12597
1.12609
1.1262
1.12631
1.12642
1.12653
1.12664
1.12675
1.12686
1.12697
1.12707
1.12718
1.12728
1.12739
1.12749
1.12759
1.1277
1.1278
1.1279
1.128
1.1281
1.1282
1.12831
1.12841
1.12851
1.12861
1.12871
1.12882
1.12892
1.12903
1.12913
1.12924
1.12935
1.12946
1.12957
1.12968
1.12979
1.12991
1.13002
1.13014
1.13026
1.13038
1.1305
1.13063
1.13075
1.13088
1.13101
1.13114
1.13127
1.13141
1.13154
1.13168
1.13182
1.13196
1.13211
1.13226
1.13241
1.13256
1.13272
1.13288
1.13305
1.13321
1.13339
1.13356
1.13374
1.13393
1.13412
1.13432
1.13452
1.13473
1.13494
1.13516
1.13539
1.13562
1.13586
1.13611
1.13637
1.13663
1.1369
1.13718
1.13746
1.13775
1.13805
1.13835
1.13866
1.13898
1.13929
1.13962
1.13994
1.14027
1.1406
1.14093
1.14126
1.14159
1.14192
1.14224
1.14256
1.14288
1.14319
1.1435
1.1438
1.1441
1.14439
1.14467
1.14494
1.14521
1.14547
1.14572
1.14597
1.14621
1.14644
1.14667
1.14689
1.14711
1.14732
1.14753
1.14773
1.14793
1.14812
1.14831
1.1485
1.14869
1.14887
1.14905
1.14923
1.1494
1.14957
1.14974
1.14991
1.15007
1.15023
1.15039
1.15054
1.1507
1.15084
1.15099
1.15113
1.15126
1.1514
1.15153
1.15165
1.15177
1.15189
1.152
1.15211
1.15221
1.15231
1.15241
1.1525
1.15259
1.15268
1.15277
1.15285
1.15293
1.15302
1.1531
1.15318
1.15327
1.15336
1.15345
1.15354
1.15364
1.15375
1.15386
1.15399
1.15412
1.15426
1.15441
1.15458
1.15476
1.15495
1.15517
1.1554
1.15565
1.15592
1.15622
1.15653
1.15688
1.15725
1.15765
1.15807
1.15853
1.15902
1.15954
1.16009
1.16068
1.1613
1.16197
1.16266
1.1634
1.16418
1.16499
1.16585
1.16675
1.1677
1.16869
1.16972
1.17081
1.17195
1.17315
1.1744
1.17572
1.17711
1.17857
1.18012
1.18174
1.18345
1.18523
1.18708
1.18894
1.19074
1.19237
1.19369
1.19458
1.19488
1.19461
1.09905
1.09872
1.09861
1.09869
1.09892
1.09926
1.09966
1.10008
1.10049
1.1009
1.10127
1.10162
1.10194
1.10223
1.1025
1.10274
1.10295
1.10315
1.10333
1.10349
1.10364
1.10377
1.1039
1.10401
1.10412
1.10421
1.1043
1.10438
1.10446
1.10453
1.1046
1.10466
1.10471
1.10477
1.10482
1.10486
1.1049
1.10494
1.10498
1.10502
1.10505
1.10508
1.10511
1.10514
1.10517
1.10519
1.10522
1.10525
1.10527
1.1053
1.10533
1.10536
1.10539
1.10543
1.10546
1.1055
1.10555
1.10559
1.10565
1.1057
1.10576
1.10583
1.10591
1.10598
1.10607
1.10616
1.10626
1.10637
1.10648
1.10661
1.10674
1.10687
1.10702
1.10717
1.10733
1.1075
1.10768
1.10787
1.10806
1.10826
1.10847
1.10869
1.10891
1.10915
1.10939
1.10964
1.10989
1.11015
1.11042
1.11069
1.11097
1.11125
1.11153
1.11182
1.11211
1.1124
1.1127
1.11299
1.11329
1.11358
1.11387
1.11416
1.11445
1.11474
1.11502
1.1153
1.11558
1.11585
1.11612
1.11638
1.11663
1.11688
1.11712
1.11735
1.11758
1.1178
1.11801
1.11821
1.1184
1.11858
1.11876
1.11893
1.11909
1.11925
1.1194
1.11954
1.11967
1.11981
1.11993
1.12006
1.12017
1.12029
1.1204
1.12051
1.12062
1.12072
1.12083
1.12093
1.12103
1.12113
1.12123
1.12133
1.12142
1.12152
1.12162
1.12171
1.12181
1.12191
1.12201
1.12211
1.1222
1.1223
1.1224
1.12251
1.12261
1.12271
1.12281
1.12292
1.12302
1.12313
1.12324
1.12335
1.12345
1.12357
1.12368
1.12379
1.1239
1.12402
1.12413
1.12424
1.12436
1.12448
1.12459
1.12471
1.12483
1.12494
1.12506
1.12518
1.1253
1.12541
1.12553
1.12565
1.12576
1.12588
1.12599
1.12611
1.12622
1.12633
1.12645
1.12656
1.12667
1.12678
1.12688
1.12699
1.1271
1.1272
1.12731
1.12741
1.12752
1.12762
1.12772
1.12782
1.12793
1.12803
1.12813
1.12823
1.12833
1.12843
1.12853
1.12864
1.12874
1.12884
1.12895
1.12905
1.12916
1.12927
1.12937
1.12948
1.12959
1.12971
1.12982
1.12993
1.13005
1.13017
1.13028
1.1304
1.13053
1.13065
1.13077
1.1309
1.13103
1.13116
1.13129
1.13142
1.13156
1.1317
1.13184
1.13198
1.13212
1.13227
1.13242
1.13257
1.13273
1.13289
1.13305
1.13322
1.13339
1.13357
1.13375
1.13393
1.13412
1.13432
1.13452
1.13473
1.13494
1.13516
1.13539
1.13563
1.13587
1.13612
1.13637
1.13664
1.13691
1.13719
1.13748
1.13777
1.13807
1.13837
1.13869
1.139
1.13932
1.13965
1.13998
1.14031
1.14064
1.14098
1.14131
1.14164
1.14197
1.1423
1.14263
1.14295
1.14326
1.14357
1.14387
1.14417
1.14446
1.14474
1.14501
1.14528
1.14554
1.14579
1.14603
1.14627
1.1465
1.14673
1.14695
1.14716
1.14737
1.14758
1.14778
1.14798
1.14817
1.14836
1.14855
1.14873
1.14891
1.14909
1.14927
1.14944
1.14961
1.14978
1.14995
1.15011
1.15027
1.15043
1.15059
1.15074
1.15089
1.15103
1.15117
1.15131
1.15144
1.15157
1.15169
1.15181
1.15192
1.15203
1.15214
1.15224
1.15234
1.15243
1.15252
1.15261
1.1527
1.15278
1.15286
1.15294
1.15302
1.1531
1.15318
1.15326
1.15335
1.15343
1.15352
1.15362
1.15372
1.15383
1.15395
1.15407
1.15421
1.15436
1.15452
1.1547
1.15489
1.15509
1.15532
1.15557
1.15583
1.15612
1.15644
1.15677
1.15714
1.15753
1.15795
1.1584
1.15888
1.1594
1.15995
1.16053
1.16115
1.1618
1.16249
1.16322
1.16398
1.16479
1.16563
1.16652
1.16745
1.16842
1.16943
1.17049
1.1716
1.17275
1.17396
1.17521
1.17653
1.1779
1.17933
1.18081
1.18235
1.18392
1.18549
1.18703
1.18846
1.1897
1.19065
1.19124
1.19141
1.19111
1.0998
1.09952
1.0994
1.09942
1.09956
1.09979
1.10008
1.1004
1.10074
1.10107
1.10139
1.1017
1.10198
1.10225
1.10249
1.10272
1.10292
1.10311
1.10328
1.10344
1.10359
1.10372
1.10384
1.10396
1.10406
1.10416
1.10425
1.10433
1.10441
1.10448
1.10455
1.10461
1.10467
1.10472
1.10477
1.10482
1.10486
1.10491
1.10494
1.10498
1.10501
1.10504
1.10508
1.1051
1.10513
1.10516
1.10519
1.10521
1.10524
1.10527
1.1053
1.10533
1.10536
1.10539
1.10543
1.10547
1.10551
1.10556
1.10561
1.10567
1.10573
1.10579
1.10587
1.10595
1.10603
1.10612
1.10622
1.10633
1.10645
1.10657
1.1067
1.10684
1.10698
1.10714
1.1073
1.10747
1.10765
1.10783
1.10803
1.10823
1.10844
1.10866
1.10889
1.10912
1.10936
1.10961
1.10987
1.11013
1.1104
1.11068
1.11096
1.11124
1.11153
1.11182
1.11212
1.11241
1.11271
1.11301
1.11331
1.1136
1.1139
1.11419
1.11449
1.11478
1.11506
1.11535
1.11562
1.1159
1.11617
1.11643
1.11668
1.11693
1.11718
1.11741
1.11764
1.11785
1.11806
1.11826
1.11846
1.11864
1.11881
1.11898
1.11914
1.11929
1.11944
1.11958
1.11971
1.11984
1.11997
1.12009
1.1202
1.12032
1.12043
1.12053
1.12064
1.12074
1.12085
1.12095
1.12105
1.12114
1.12124
1.12134
1.12144
1.12153
1.12163
1.12173
1.12182
1.12192
1.12202
1.12212
1.12222
1.12232
1.12242
1.12252
1.12262
1.12272
1.12283
1.12293
1.12304
1.12315
1.12325
1.12336
1.12347
1.12358
1.12369
1.12381
1.12392
1.12403
1.12415
1.12427
1.12438
1.1245
1.12461
1.12473
1.12485
1.12497
1.12508
1.1252