# vtk DataFile Version 2.0
LBE mesh
ASCII
DATASET STRUCTURED_POINTS
DIMENSIONS 400 100 1
ASPECT_RATIO 1 1 1
ORIGIN 0 0 0
POINT_DATA 40000
SCALARS rho double 1
LOOKUP_TABLE default
1.20315
1.3038
1.3322
1.33683
1.33888
1.34094
1.34251
1.34351
1.34418
1.34468
1.34507
1.34537
1.34562
1.34581
1.34598
1.34611
1.34622
1.3463
1.34638
1.34643
1.34648
1.34651
1.34653
1.34654
1.34655
1.34655
1.34654
1.34652
1.3465
1.34647
1.34644
1.3464
1.34636
1.34632
1.34627
1.34622
1.34617
1.34612
1.34607
1.34601
1.34596
1.3459
1.34585
1.34579
1.34574
1.34569
1.34564
1.3456
1.34556
1.34552
1.34549
1.34546
1.34543
1.34541
1.3454
1.3454
1.3454
1.34541
1.34542
1.34545
1.34548
1.34552
1.34557
1.34563
1.34569
1.34577
1.34586
1.34595
1.34606
1.34618
1.3463
1.34644
1.34658
1.34674
1.3469
1.34707
1.34726
1.34745
1.34765
1.34786
1.34808
1.3483
1.34854
1.34878
1.34903
1.34928
1.34954
1.34981
1.35009
1.35037
1.35065
1.35094
1.35124
1.35153
1.35183
1.35213
1.35243
1.35274
1.35304
1.35334
1.35364
1.35394
1.35423
1.35452
1.35481
1.35509
1.35537
1.35564
1.3559
1.35616
1.35641
1.35664
1.35687
1.35709
1.3573
1.3575
1.35769
1.35787
1.35803
1.35819
1.35833
1.35846
1.35858
1.35869
1.35879
1.35888
1.35896
1.35902
1.35908
1.35914
1.35918
1.35921
1.35924
1.35926
1.35928
1.35929
1.35929
1.35929
1.35928
1.35927
1.35926
1.35925
1.35923
1.35921
1.35918
1.35916
1.35913
1.3591
1.35907
1.35904
1.35901
1.35898
1.35895
1.35891
1.35888
1.35885
1.35882
1.35878
1.35875
1.35872
1.35869
1.35866
1.35863
1.3586
1.35857
1.35854
1.35851
1.35848
1.35845
1.35842
1.3584
1.35837
1.35835
1.35832
1.3583
1.35827
1.35825
1.35823
1.3582
1.35818
1.35816
1.35814
1.35812
1.3581
1.35808
1.35806
1.35805
1.35803
1.35801
1.358
1.35798
1.35797
1.35795
1.35794
1.35793
1.35792
1.35791
1.3579
1.35789
1.35789
1.35788
1.35788
1.35788
1.35788
1.35788
1.35789
1.3579
1.3579
1.35792
1.35793
1.35795
1.35797
1.35799
1.35801
1.35804
1.35808
1.35811
1.35815
1.3582
1.35825
1.3583
1.35836
1.35843
1.35849
1.35857
1.35865
1.35873
1.35883
1.35892
1.35903
1.35914
1.35926
1.35938
1.35952
1.35966
1.3598
1.35996
1.36012
1.36029
1.36047
1.36066
1.36086
1.36106
1.36128
1.3615
1.36173
1.36198
1.36223
1.36248
1.36275
1.36303
1.36332
1.36361
1.36391
1.36423
1.36455
1.36487
1.36521
1.36555
1.3659
1.36626
1.36662
1.36699
1.36737
1.36775
1.36813
1.36852
1.36891
1.36931
1.3697
1.37009
1.37049
1.37088
1.37128
1.37167
1.37205
1.37243
1.37281
1.37318
1.37355
1.3739
1.37425
1.37459
1.37492
1.37524
1.37555
1.37585
1.37613
1.37641
1.37667
1.37693
1.37717
1.3774
1.37762
1.37783
1.37803
1.37822
1.3784
1.37858
1.37874
1.37889
1.37904
1.37918
1.37931
1.37944
1.37956
1.37967
1.37978
1.37988
1.37998
1.38008
1.38017
1.38026
1.38034
1.38042
1.3805
1.38057
1.38064
1.38071
1.38078
1.38085
1.38091
1.38097
1.38103
1.38109
1.38115
1.38121
1.38127
1.38133
1.38139
1.38144
1.38151
1.38157
1.38163
1.3817
1.38177
1.38184
1.38192
1.38201
1.3821
1.38219
1.38229
1.3824
1.38252
1.38265
1.38279
1.38294
1.3831
1.38327
1.38346
1.38366
1.38388
1.38411
1.38436
1.38463
1.38492
1.38523
1.38555
1.3859
1.38627
1.38667
1.38709
1.38753
1.388
1.3885
1.38902
1.38958
1.39017
1.39079
1.39144
1.39213
1.39285
1.39361
1.39442
1.39526
1.39615
1.39709
1.39808
1.39912
1.40022
1.40139
1.40263
1.40395
1.40536
1.40688
1.4085
1.41027
1.41219
1.4143
1.41664
1.41926
1.42224
1.42569
1.42977
1.43473
1.44115
1.45009
1.46269
1.48097
1.51772
1.29651
1.30403
1.31742
1.32966
1.33587
1.33885
1.34065
1.34197
1.34296
1.34368
1.34423
1.34466
1.345
1.34528
1.3455
1.34569
1.34584
1.34596
1.34607
1.34615
1.34622
1.34627
1.34631
1.34634
1.34636
1.34637
1.34637
1.34636
1.34635
1.34633
1.34631
1.34628
1.34624
1.34621
1.34617
1.34612
1.34608
1.34603
1.34598
1.34593
1.34588
1.34582
1.34577
1.34572
1.34568
1.34563
1.34558
1.34554
1.3455
1.34547
1.34544
1.34541
1.34539
1.34538
1.34537
1.34536
1.34537
1.34538
1.3454
1.34542
1.34546
1.3455
1.34555
1.34561
1.34568
1.34576
1.34585
1.34595
1.34606
1.34618
1.3463
1.34644
1.34659
1.34674
1.34691
1.34708
1.34727
1.34746
1.34766
1.34787
1.34809
1.34832
1.34855
1.34879
1.34904
1.3493
1.34956
1.34983
1.35011
1.35039
1.35067
1.35096
1.35126
1.35155
1.35185
1.35215
1.35245
1.35275
1.35306
1.35336
1.35366
1.35395
1.35425
1.35453
1.35482
1.3551
1.35538
1.35564
1.35591
1.35616
1.3564
1.35664
1.35687
1.35709
1.35729
1.35749
1.35768
1.35785
1.35802
1.35817
1.35831
1.35844
1.35856
1.35867
1.35877
1.35885
1.35893
1.359
1.35906
1.35911
1.35915
1.35918
1.35921
1.35923
1.35925
1.35926
1.35926
1.35926
1.35926
1.35925
1.35924
1.35922
1.3592
1.35918
1.35916
1.35913
1.35911
1.35908
1.35905
1.35902
1.35899
1.35896
1.35893
1.3589
1.35886
1.35883
1.3588
1.35877
1.35874
1.3587
1.35867
1.35864
1.35861
1.35858
1.35855
1.35852
1.35849
1.35847
1.35844
1.35841
1.35839
1.35836
1.35834
1.35831
1.35829
1.35826
1.35824
1.35822
1.3582
1.35817
1.35815
1.35813
1.35811
1.35809
1.35807
1.35806
1.35804
1.35802
1.35801
1.35799
1.35798
1.35796
1.35795
1.35794
1.35793
1.35792
1.35791
1.3579
1.35789
1.35789
1.35788
1.35788
1.35788
1.35788
1.35788
1.35789
1.3579
1.35791
1.35792
1.35793
1.35795
1.35797
1.35799
1.35802
1.35805
1.35808
1.35812
1.35816
1.35821
1.35826
1.35831
1.35837
1.35844
1.35851
1.35858
1.35866
1.35875
1.35884
1.35894
1.35904
1.35916
1.35928
1.3594
1.35953
1.35968
1.35982
1.35998
1.36014
1.36032
1.3605
1.36069
1.36089
1.36109
1.36131
1.36153
1.36176
1.36201
1.36226
1.36252
1.36279
1.36306
1.36335
1.36365
1.36395
1.36426
1.36458
1.36491
1.36525
1.36559
1.36594
1.3663
1.36666
1.36703
1.36741
1.36779
1.36817
1.36856
1.36895
1.36934
1.36973
1.37013
1.37052
1.37091
1.3713
1.37169
1.37208
1.37246
1.37283
1.3732
1.37356
1.37392
1.37426
1.3746
1.37493
1.37524
1.37555
1.37585
1.37613
1.37641
1.37667
1.37692
1.37716
1.37739
1.37761
1.37782
1.37802
1.37821
1.37839
1.37856
1.37872
1.37888
1.37902
1.37916
1.37929
1.37942
1.37954
1.37965
1.37976
1.37987
1.37997
1.38006
1.38015
1.38024
1.38033
1.38041
1.38048
1.38056
1.38063
1.3807
1.38077
1.38084
1.3809
1.38096
1.38102
1.38108
1.38114
1.3812
1.38126
1.38132
1.38138
1.38144
1.3815
1.38156
1.38163
1.3817
1.38177
1.38184
1.38192
1.38201
1.3821
1.3822
1.3823
1.38241
1.38253
1.38266
1.3828
1.38296
1.38312
1.3833
1.38349
1.38369
1.38391
1.38415
1.3844
1.38467
1.38496
1.38527
1.3856
1.38595
1.38633
1.38672
1.38715
1.38759
1.38807
1.38857
1.3891
1.38966
1.39025
1.39088
1.39153
1.39223
1.39296
1.39373
1.39453
1.39539
1.39628
1.39723
1.39823
1.39928
1.4004
1.40158
1.40284
1.40417
1.40561
1.40714
1.4088
1.4106
1.41257
1.41474
1.41716
1.41988
1.423
1.42663
1.43098
1.43634
1.44311
1.45191
1.46478
1.48733
1.52308
1.31847
1.31387
1.32231
1.32949
1.33382
1.33695
1.33921
1.34081
1.34195
1.34281
1.34348
1.34401
1.34444
1.34478
1.34506
1.34529
1.34548
1.34564
1.34577
1.34588
1.34597
1.34604
1.3461
1.34614
1.34617
1.34619
1.34621
1.34621
1.34621
1.34619
1.34618
1.34615
1.34613
1.3461
1.34606
1.34602
1.34598
1.34594
1.34589
1.34584
1.3458
1.34575
1.3457
1.34565
1.34561
1.34556
1.34552
1.34548
1.34545
1.34542
1.34539
1.34536
1.34535
1.34533
1.34533
1.34532
1.34533
1.34534
1.34536
1.34539
1.34543
1.34547
1.34553
1.34559
1.34566
1.34574
1.34584
1.34594
1.34605
1.34617
1.34629
1.34643
1.34658
1.34674
1.34691
1.34708
1.34727
1.34746
1.34767
1.34788
1.3481
1.34832
1.34856
1.3488
1.34905
1.34931
1.34958
1.34985
1.35012
1.3504
1.35069
1.35098
1.35127
1.35157
1.35187
1.35217
1.35247
1.35277
1.35307
1.35337
1.35367
1.35397
1.35426
1.35455
1.35483
1.35511
1.35539
1.35565
1.35591
1.35617
1.35641
1.35665
1.35687
1.35709
1.3573
1.35749
1.35768
1.35785
1.35801
1.35816
1.3583
1.35843
1.35855
1.35865
1.35875
1.35884
1.35891
1.35898
1.35904
1.35909
1.35913
1.35916
1.35919
1.35921
1.35923
1.35923
1.35924
1.35924
1.35923
1.35922
1.35921
1.3592
1.35918
1.35916
1.35914
1.35911
1.35909
1.35906
1.35903
1.359
1.35897
1.35894
1.35891
1.35888
1.35885
1.35881
1.35878
1.35875
1.35872
1.35869
1.35866
1.35863
1.3586
1.35857
1.35854
1.35851
1.35848
1.35845
1.35843
1.3584
1.35838
1.35835
1.35833
1.3583
1.35828
1.35825
1.35823
1.35821
1.35819
1.35817
1.35815
1.35812
1.35811
1.35809
1.35807
1.35805
1.35803
1.35802
1.358
1.35798
1.35797
1.35796
1.35794
1.35793
1.35792
1.35791
1.3579
1.35789
1.35789
1.35788
1.35788
1.35788
1.35788
1.35788
1.35788
1.35789
1.35789
1.3579
1.35792
1.35793
1.35795
1.35797
1.35799
1.35802
1.35805
1.35808
1.35812
1.35816
1.35821
1.35826
1.35832
1.35838
1.35844
1.35851
1.35859
1.35867
1.35876
1.35885
1.35895
1.35905
1.35917
1.35929
1.35941
1.35955
1.35969
1.35984
1.36
1.36016
1.36033
1.36052
1.36071
1.3609
1.36111
1.36133
1.36155
1.36179
1.36203
1.36228
1.36254
1.36281
1.36309
1.36338
1.36367
1.36398
1.36429
1.36461
1.36494
1.36528
1.36562
1.36597
1.36633
1.3667
1.36707
1.36744
1.36782
1.3682
1.36859
1.36898
1.36937
1.36977
1.37016
1.37055
1.37095
1.37134
1.37172
1.37211
1.37248
1.37286
1.37323
1.37359
1.37394
1.37428
1.37462
1.37494
1.37526
1.37556
1.37586
1.37614
1.37641
1.37667
1.37693
1.37716
1.37739
1.37761
1.37782
1.37802
1.3782
1.37838
1.37855
1.37871
1.37887
1.37901
1.37915
1.37928
1.37941
1.37953
1.37964
1.37975
1.37986
1.37996
1.38005
1.38014
1.38023
1.38031
1.38039
1.38047
1.38055
1.38062
1.38069
1.38076
1.38083
1.38089
1.38095
1.38101
1.38107
1.38113
1.38119
1.38125
1.38131
1.38137
1.38143
1.38149
1.38156
1.38162
1.38169
1.38176
1.38184
1.38192
1.382
1.3821
1.38219
1.3823
1.38241
1.38253
1.38267
1.38281
1.38296
1.38313
1.3833
1.3835
1.3837
1.38392
1.38416
1.38442
1.38469
1.38498
1.38529
1.38562
1.38598
1.38636
1.38676
1.38718
1.38763
1.38811
1.38862
1.38915
1.38971
1.39031
1.39094
1.3916
1.39229
1.39303
1.3938
1.39461
1.39547
1.39637
1.39732
1.39832
1.39938
1.4005
1.40169
1.40296
1.4043
1.40574
1.40729
1.40896
1.41077
1.41276
1.41494
1.41738
1.42012
1.42325
1.42689
1.43118
1.43636
1.44287
1.45129
1.46186
1.47334
1.48427
1.32619
1.32489
1.32736
1.33024
1.33369
1.3365
1.33852
1.34004
1.34123
1.34216
1.34289
1.34348
1.34395
1.34434
1.34466
1.34493
1.34515
1.34534
1.3455
1.34563
1.34574
1.34582
1.3459
1.34595
1.346
1.34603
1.34605
1.34606
1.34607
1.34606
1.34605
1.34604
1.34601
1.34599
1.34596
1.34592
1.34589
1.34585
1.3458
1.34576
1.34572
1.34567
1.34563
1.34558
1.34554
1.3455
1.34546
1.34542
1.34539
1.34536
1.34533
1.34531
1.34529
1.34528
1.34528
1.34528
1.34529
1.3453
1.34533
1.34536
1.34539
1.34544
1.3455
1.34556
1.34564
1.34572
1.34581
1.34591
1.34603
1.34615
1.34628
1.34642
1.34657
1.34673
1.3469
1.34707
1.34726
1.34746
1.34766
1.34787
1.34809
1.34832
1.34856
1.34881
1.34906
1.34932
1.34958
1.34985
1.35013
1.35041
1.3507
1.35099
1.35128
1.35158
1.35188
1.35218
1.35248
1.35279
1.35309
1.35339
1.35369
1.35398
1.35428
1.35457
1.35485
1.35513
1.3554
1.35567
1.35593
1.35618
1.35643
1.35666
1.35689
1.3571
1.3573
1.3575
1.35768
1.35785
1.35801
1.35816
1.3583
1.35843
1.35854
1.35865
1.35874
1.35883
1.3589
1.35897
1.35903
1.35907
1.35911
1.35915
1.35917
1.35919
1.35921
1.35922
1.35922
1.35922
1.35921
1.3592
1.35919
1.35918
1.35916
1.35914
1.35912
1.35909
1.35907
1.35904
1.35901
1.35898
1.35895
1.35892
1.35889
1.35886
1.35883
1.3588
1.35877
1.35874
1.35871
1.35867
1.35864
1.35861
1.35858
1.35856
1.35853
1.3585
1.35847
1.35844
1.35842
1.35839
1.35837
1.35834
1.35832
1.35829
1.35827
1.35824
1.35822
1.3582
1.35818
1.35816
1.35814
1.35812
1.3581
1.35808
1.35806
1.35804
1.35803
1.35801
1.35799
1.35798
1.35796
1.35795
1.35794
1.35793
1.35792
1.35791
1.3579
1.35789
1.35788
1.35788
1.35788
1.35787
1.35787
1.35787
1.35788
1.35788
1.35789
1.3579
1.35791
1.35793
1.35795
1.35797
1.35799
1.35802
1.35805
1.35808
1.35812
1.35816
1.35821
1.35826
1.35832
1.35838
1.35844
1.35851
1.35859
1.35867
1.35876
1.35885
1.35895
1.35906
1.35917
1.35929
1.35942
1.35955
1.3597
1.35985
1.36
1.36017
1.36034
1.36053
1.36072
1.36092
1.36112
1.36134
1.36157
1.3618
1.36205
1.3623
1.36256
1.36283
1.36311
1.3634
1.36369
1.364
1.36431
1.36463
1.36496
1.3653
1.36565
1.366
1.36636
1.36672
1.36709
1.36747
1.36785
1.36823
1.36862
1.36901
1.3694
1.3698
1.37019
1.37059
1.37098
1.37137
1.37176
1.37214
1.37252
1.37289
1.37326
1.37362
1.37397
1.37431
1.37464
1.37497
1.37528
1.37559
1.37588
1.37616
1.37643
1.37669
1.37694
1.37718
1.3774
1.37762
1.37782
1.37802
1.37821
1.37838
1.37855
1.37871
1.37887
1.37901
1.37915
1.37928
1.3794
1.37952
1.37964
1.37974
1.37985
1.37995
1.38004
1.38013
1.38022
1.3803
1.38039
1.38046
1.38054
1.38061
1.38068
1.38075
1.38082
1.38088
1.38094
1.38101
1.38107
1.38113
1.38118
1.38124
1.3813
1.38136
1.38142
1.38148
1.38155
1.38161
1.38168
1.38175
1.38183
1.38191
1.382
1.38209
1.38219
1.38229
1.38241
1.38253
1.38266
1.3828
1.38296
1.38312
1.3833
1.38349
1.3837
1.38392
1.38416
1.38442
1.38469
1.38498
1.3853
1.38563
1.38599
1.38636
1.38677
1.38719
1.38765
1.38813
1.38863
1.38917
1.38973
1.39033
1.39096
1.39162
1.39232
1.39306
1.39383
1.39465
1.3955
1.39641
1.39736
1.39836
1.39942
1.40054
1.40173
1.403
1.40434
1.40578
1.40732
1.40898
1.41078
1.41275
1.41491
1.41731
1.41999
1.42303
1.42651
1.43055
1.43529
1.44085
1.44731
1.45447
1.4603
1.46046
1.33091
1.33048
1.33098
1.33262
1.33477
1.33668
1.33834
1.33971
1.34083
1.34173
1.34246
1.34307
1.34356
1.34398
1.34433
1.34462
1.34487
1.34507
1.34525
1.3454
1.34552
1.34562
1.34571
1.34578
1.34583
1.34587
1.3459
1.34592
1.34593
1.34594
1.34593
1.34592
1.3459
1.34588
1.34586
1.34582
1.34579
1.34575
1.34572
1.34568
1.34563
1.34559
1.34555
1.34551
1.34547
1.34543
1.34539
1.34536
1.34532
1.3453
1.34527
1.34525
1.34524
1.34523
1.34523
1.34523
1.34524
1.34525
1.34528
1.34531
1.34535
1.3454
1.34546
1.34552
1.3456
1.34568
1.34578
1.34588
1.346
1.34612
1.34625
1.34639
1.34655
1.34671
1.34688
1.34706
1.34724
1.34744
1.34765
1.34786
1.34809
1.34832
1.34855
1.3488
1.34905
1.34931
1.34958
1.34985
1.35013
1.35042
1.35071
1.351
1.35129
1.35159
1.35189
1.3522
1.3525
1.3528
1.3531
1.35341
1.35371
1.354
1.3543
1.35459
1.35487
1.35515
1.35542
1.35569
1.35595
1.3562
1.35645
1.35668
1.3569
1.35712
1.35732
1.35752
1.3577
1.35787
1.35803
1.35818
1.35831
1.35844
1.35855
1.35865
1.35875
1.35883
1.3589
1.35897
1.35902
1.35907
1.35911
1.35914
1.35916
1.35918
1.35919
1.3592
1.3592
1.3592
1.3592
1.35919
1.35917
1.35916
1.35914
1.35912
1.3591
1.35907
1.35905
1.35902
1.35899
1.35896
1.35894
1.3589
1.35887
1.35884
1.35881
1.35878
1.35875
1.35872
1.35869
1.35866
1.35863
1.3586
1.35857
1.35854
1.35851
1.35849
1.35846
1.35843
1.35841
1.35838
1.35836
1.35833
1.35831
1.35828
1.35826
1.35824
1.35821
1.35819
1.35817
1.35815
1.35813
1.35811
1.35809
1.35807
1.35805
1.35804
1.35802
1.358
1.35799
1.35797
1.35796
1.35794
1.35793
1.35792
1.35791
1.3579
1.35789
1.35788
1.35788
1.35787
1.35787
1.35787
1.35787
1.35787
1.35787
1.35788
1.35789
1.3579
1.35791
1.35792
1.35794
1.35796
1.35799
1.35801
1.35805
1.35808
1.35812
1.35816
1.35821
1.35826
1.35831
1.35837
1.35844
1.35851
1.35859
1.35867
1.35876
1.35885
1.35895
1.35906
1.35917
1.35929
1.35942
1.35955
1.3597
1.35985
1.36001
1.36017
1.36035
1.36053
1.36072
1.36092
1.36113
1.36135
1.36157
1.36181
1.36205
1.36231
1.36257
1.36284
1.36312
1.36341
1.36371
1.36401
1.36433
1.36465
1.36498
1.36532
1.36567
1.36602
1.36638
1.36675
1.36712
1.36749
1.36788
1.36826
1.36865
1.36904
1.36944
1.36983
1.37022
1.37062
1.37101
1.3714
1.37179
1.37217
1.37255
1.37293
1.37329
1.37365
1.374
1.37435
1.37468
1.375
1.37532
1.37562
1.37591
1.37619
1.37646
1.37671
1.37696
1.3772
1.37742
1.37764
1.37784
1.37803
1.37822
1.37839
1.37856
1.37872
1.37887
1.37901
1.37915
1.37928
1.3794
1.37952
1.37963
1.37974
1.37984
1.37994
1.38004
1.38013
1.38021
1.3803
1.38038
1.38046
1.38053
1.3806
1.38068
1.38074
1.38081
1.38087
1.38094
1.381
1.38106
1.38112
1.38118
1.38123
1.38129
1.38135
1.38141
1.38147
1.38154
1.3816
1.38167
1.38174
1.38182
1.3819
1.38198
1.38207
1.38217
1.38228
1.38239
1.38251
1.38264
1.38279
1.38294
1.38311
1.38328
1.38348
1.38368
1.38391
1.38414
1.3844
1.38467
1.38497
1.38528
1.38562
1.38597
1.38635
1.38675
1.38718
1.38764
1.38812
1.38862
1.38916
1.38973
1.39032
1.39095
1.39162
1.39231
1.39305
1.39382
1.39464
1.39549
1.3964
1.39735
1.39835
1.3994
1.40052
1.4017
1.40295
1.40429
1.40571
1.40723
1.40886
1.41063
1.41255
1.41465
1.41696
1.41952
1.42238
1.42559
1.42921
1.43328
1.43777
1.44238
1.44651
1.44935
1.44858
1.33442
1.3338
1.33388
1.33479
1.336
1.33732
1.33859
1.33972
1.34069
1.34151
1.3422
1.34279
1.34328
1.3437
1.34406
1.34436
1.34462
1.34484
1.34503
1.34519
1.34532
1.34544
1.34553
1.34561
1.34567
1.34572
1.34576
1.34579
1.34581
1.34581
1.34582
1.34581
1.3458
1.34578
1.34576
1.34573
1.3457
1.34567
1.34563
1.34559
1.34555
1.34551
1.34547
1.34544
1.3454
1.34536
1.34532
1.34529
1.34526
1.34523
1.34521
1.34519
1.34518
1.34517
1.34517
1.34517
1.34518
1.3452
1.34523
1.34526
1.3453
1.34535
1.34541
1.34548
1.34556
1.34564
1.34574
1.34584
1.34596
1.34608
1.34622
1.34636
1.34652
1.34668
1.34685
1.34703
1.34722
1.34742
1.34763
1.34784
1.34807
1.3483
1.34854
1.34879
1.34904
1.34931
1.34957
1.34985
1.35013
1.35042
1.35071
1.351
1.3513
1.3516
1.3519
1.35221
1.35251
1.35281
1.35312
1.35342
1.35372
1.35402
1.35432
1.35461
1.35489
1.35517
1.35545
1.35572
1.35598
1.35623
1.35647
1.35671
1.35693
1.35714
1.35735
1.35754
1.35772
1.35789
1.35805
1.35819
1.35833
1.35845
1.35856
1.35867
1.35876
1.35884
1.35891
1.35897
1.35902
1.35907
1.3591
1.35913
1.35916
1.35917
1.35919
1.35919
1.35919
1.35919
1.35918
1.35917
1.35916
1.35914
1.35913
1.3591
1.35908
1.35906
1.35903
1.35901
1.35898
1.35895
1.35892
1.35889
1.35886
1.35883
1.3588
1.35877
1.35874
1.35871
1.35868
1.35865
1.35862
1.35859
1.35856
1.35853
1.3585
1.35848
1.35845
1.35842
1.3584
1.35837
1.35835
1.35832
1.3583
1.35827
1.35825
1.35823
1.35821
1.35818
1.35816
1.35814
1.35812
1.3581
1.35808
1.35807
1.35805
1.35803
1.35801
1.358
1.35798
1.35797
1.35795
1.35794
1.35793
1.35791
1.3579
1.35789
1.35788
1.35788
1.35787
1.35787
1.35786
1.35786
1.35786
1.35786
1.35787
1.35787
1.35788
1.35789
1.3579
1.35792
1.35793
1.35796
1.35798
1.35801
1.35804
1.35807
1.35811
1.35815
1.3582
1.35825
1.35831
1.35837
1.35843
1.3585
1.35858
1.35866
1.35875
1.35884
1.35894
1.35905
1.35916
1.35929
1.35941
1.35955
1.35969
1.35984
1.36
1.36017
1.36034
1.36053
1.36072
1.36092
1.36113
1.36134
1.36157
1.36181
1.36205
1.36231
1.36257
1.36284
1.36312
1.36341
1.36371
1.36402
1.36433
1.36466
1.36499
1.36533
1.36568
1.36603
1.36639
1.36676
1.36713
1.36751
1.3679
1.36828
1.36867
1.36907
1.36946
1.36986
1.37026
1.37065
1.37105
1.37144
1.37183
1.37221
1.37259
1.37297
1.37334
1.37369
1.37405
1.37439
1.37472
1.37504
1.37536
1.37566
1.37595
1.37623
1.37649
1.37675
1.37699
1.37723
1.37745
1.37766
1.37786
1.37805
1.37824
1.37841
1.37857
1.37873
1.37888
1.37902
1.37915
1.37928
1.37941
1.37952
1.37963
1.37974
1.37984
1.37994
1.38003
1.38012
1.38021
1.38029
1.38037
1.38045
1.38053
1.3806
1.38067
1.38074
1.3808
1.38087
1.38093
1.38099
1.38105
1.38111
1.38117
1.38123
1.38129
1.38134
1.3814
1.38146
1.38153
1.38159
1.38166
1.38173
1.3818
1.38188
1.38197
1.38206
1.38215
1.38226
1.38237
1.38249
1.38262
1.38276
1.38291
1.38308
1.38326
1.38345
1.38365
1.38388
1.38411
1.38437
1.38464
1.38494
1.38525
1.38558
1.38594
1.38632
1.38672
1.38715
1.3876
1.38808
1.38859
1.38912
1.38969
1.39028
1.39091
1.39157
1.39227
1.393
1.39378
1.39459
1.39544
1.39634
1.39728
1.39827
1.39932
1.40042
1.40159
1.40283
1.40414
1.40553
1.40702
1.40862
1.41033
1.41218
1.41418
1.41637
1.41876
1.42138
1.42426
1.42739
1.43073
1.43415
1.43738
1.43986
1.44113
1.44083
1.33679
1.33611
1.33607
1.33651
1.33723
1.33813
1.33905
1.33994
1.34074
1.34146
1.34208
1.34263
1.3431
1.3435
1.34386
1.34416
1.34442
1.34465
1.34484
1.34501
1.34515
1.34527
1.34537
1.34546
1.34553
1.34558
1.34563
1.34566
1.34568
1.3457
1.3457
1.3457
1.34569
1.34568
1.34566
1.34564
1.34561
1.34558
1.34555
1.34551
1.34547
1.34544
1.3454
1.34536
1.34532
1.34529
1.34525
1.34522
1.34519
1.34517
1.34514
1.34513
1.34511
1.34511
1.34511
1.34511
1.34512
1.34514
1.34517
1.3452
1.34525
1.3453
1.34536
1.34543
1.34551
1.34559
1.34569
1.3458
1.34592
1.34604
1.34618
1.34632
1.34648
1.34664
1.34682
1.347
1.34719
1.34739
1.3476
1.34782
1.34805
1.34828
1.34852
1.34877
1.34903
1.34929
1.34956
1.34984
1.35012
1.35041
1.3507
1.351
1.3513
1.3516
1.35191
1.35221
1.35252
1.35283
1.35313
1.35344
1.35374
1.35404
1.35434
1.35463
1.35492
1.3552
1.35548
1.35574
1.35601
1.35626
1.3565
1.35674
1.35696
1.35718
1.35738
1.35757
1.35775
1.35792
1.35808
1.35822
1.35836
1.35848
1.35859
1.35868
1.35877
1.35885
1.35892
1.35898
1.35903
1.35907
1.35911
1.35913
1.35916
1.35917
1.35918
1.35918
1.35919
1.35918
1.35917
1.35916
1.35915
1.35913
1.35911
1.35909
1.35907
1.35904
1.35902
1.35899
1.35896
1.35893
1.3589
1.35887
1.35884
1.35881
1.35878
1.35875
1.35872
1.35869
1.35866
1.35863
1.3586
1.35858
1.35855
1.35852
1.35849
1.35846
1.35844
1.35841
1.35839
1.35836
1.35834
1.35831
1.35829
1.35826
1.35824
1.35822
1.3582
1.35818
1.35816
1.35813
1.35812
1.3581
1.35808
1.35806
1.35804
1.35802
1.35801
1.35799
1.35797
1.35796
1.35794
1.35793
1.35792
1.35791
1.3579
1.35789
1.35788
1.35787
1.35786
1.35786
1.35785
1.35785
1.35785
1.35785
1.35786
1.35786
1.35787
1.35788
1.35789
1.35791
1.35792
1.35795
1.35797
1.358
1.35803
1.35806
1.3581
1.35814
1.35819
1.35824
1.35829
1.35835
1.35842
1.35849
1.35857
1.35865
1.35874
1.35883
1.35893
1.35904
1.35915
1.35927
1.3594
1.35954
1.35968
1.35983
1.35999
1.36016
1.36033
1.36051
1.36071
1.36091
1.36112
1.36133
1.36156
1.3618
1.36204
1.3623
1.36256
1.36284
1.36312
1.36341
1.36371
1.36402
1.36433
1.36466
1.36499
1.36533
1.36568
1.36604
1.3664
1.36677
1.36715
1.36753
1.36791
1.3683
1.3687
1.36909
1.36949
1.36989
1.37029
1.37069
1.37108
1.37148
1.37187
1.37226
1.37264
1.37301
1.37338
1.37374
1.37409
1.37444
1.37477
1.37509
1.3754
1.3757
1.37599
1.37627
1.37654
1.37679
1.37703
1.37726
1.37748
1.37769
1.37789
1.37808
1.37826
1.37843
1.37859
1.37875
1.37889
1.37903
1.37917
1.37929
1.37941
1.37953
1.37964
1.37974
1.37984
1.37994
1.38003
1.38012
1.38021
1.38029
1.38037
1.38045
1.38052
1.3806
1.38067
1.38073
1.3808
1.38086
1.38093
1.38099
1.38105
1.3811
1.38116
1.38122
1.38128
1.38133
1.38139
1.38145
1.38151
1.38158
1.38164
1.38171
1.38178
1.38186
1.38194
1.38203
1.38213
1.38223
1.38234
1.38246
1.38259
1.38273
1.38288
1.38304
1.38322
1.38341
1.38361
1.38383
1.38407
1.38432
1.3846
1.38489
1.3852
1.38553
1.38589
1.38626
1.38666
1.38709
1.38754
1.38802
1.38852
1.38906
1.38962
1.39021
1.39084
1.3915
1.39219
1.39292
1.39369
1.39449
1.39534
1.39623
1.39716
1.39814
1.39918
1.40027
1.40141
1.40263
1.40391
1.40527
1.40671
1.40825
1.40989
1.41165
1.41354
1.41558
1.41777
1.42013
1.42264
1.42528
1.42796
1.43052
1.43274
1.43433
1.43495
1.43468
1.33841
1.33783
1.3377
1.33789
1.33833
1.33893
1.3396
1.34028
1.34093
1.34153
1.34207
1.34256
1.343
1.34338
1.34371
1.34401
1.34427
1.34449
1.34469
1.34486
1.345
1.34513
1.34523
1.34532
1.3454
1.34546
1.34551
1.34554
1.34557
1.34559
1.3456
1.3456
1.34559
1.34558
1.34557
1.34555
1.34552
1.34549
1.34546
1.34543
1.34539
1.34536
1.34532
1.34529
1.34525
1.34522
1.34518
1.34515
1.34512
1.3451
1.34508
1.34506
1.34505
1.34504
1.34504
1.34505
1.34506
1.34508
1.34511
1.34514
1.34519
1.34524
1.3453
1.34537
1.34545
1.34554
1.34564
1.34575
1.34587
1.34599
1.34613
1.34628
1.34643
1.3466
1.34678
1.34696
1.34715
1.34736
1.34757
1.34779
1.34801
1.34825
1.34849
1.34875
1.34901
1.34927
1.34954
1.34982
1.35011
1.3504
1.35069
1.35099
1.3513
1.3516
1.35191
1.35222
1.35253
1.35284
1.35315
1.35345
1.35376
1.35406
1.35436
1.35465
1.35494
1.35523
1.35551
1.35578
1.35604
1.35629
1.35654
1.35678
1.357
1.35722
1.35742
1.35761
1.35779
1.35796
1.35811
1.35826
1.35839
1.35851
1.35861
1.35871
1.3588
1.35887
1.35894
1.35899
1.35904
1.35908
1.35911
1.35914
1.35916
1.35917
1.35918
1.35918
1.35918
1.35917
1.35917
1.35915
1.35914
1.35912
1.3591
1.35908
1.35905
1.35903
1.359
1.35898
1.35895
1.35892
1.35889
1.35886
1.35883
1.3588
1.35877
1.35874
1.35871
1.35868
1.35865
1.35862
1.35859
1.35856
1.35854
1.35851
1.35848
1.35845
1.35843
1.3584
1.35838
1.35835
1.35833
1.3583
1.35828
1.35826
1.35823
1.35821
1.35819
1.35817
1.35815
1.35813
1.35811
1.35809
1.35807
1.35805
1.35803
1.35802
1.358
1.35798
1.35797
1.35795
1.35794
1.35792
1.35791
1.3579
1.35789
1.35788
1.35787
1.35786
1.35785
1.35785
1.35785
1.35784
1.35784
1.35784
1.35785
1.35785
1.35786
1.35787
1.35788
1.3579
1.35791
1.35793
1.35796
1.35798
1.35801
1.35805
1.35809
1.35813
1.35817
1.35822
1.35828
1.35834
1.3584
1.35847
1.35855
1.35863
1.35872
1.35881
1.35891
1.35902
1.35913
1.35925
1.35938
1.35952
1.35966
1.35981
1.35997
1.36014
1.36031
1.36049
1.36069
1.36089
1.3611
1.36132
1.36154
1.36178
1.36203
1.36228
1.36255
1.36282
1.3631
1.36339
1.3637
1.36401
1.36432
1.36465
1.36499
1.36533
1.36568
1.36604
1.3664
1.36677
1.36715
1.36753
1.36792
1.36831
1.36871
1.36911
1.36951
1.36991
1.37031
1.37072
1.37112
1.37151
1.37191
1.3723
1.37268
1.37306
1.37343
1.37379
1.37415
1.37449
1.37483
1.37515
1.37546
1.37576
1.37605
1.37632
1.37659
1.37684
1.37708
1.37731
1.37753
1.37773
1.37793
1.37811
1.37829
1.37846
1.37862
1.37877
1.37891
1.37905
1.37918
1.37931
1.37942
1.37954
1.37965
1.37975
1.37985
1.37995
1.38004
1.38013
1.38021
1.38029
1.38037
1.38045
1.38052
1.3806
1.38066
1.38073
1.3808
1.38086
1.38092
1.38098
1.38104
1.3811
1.38115
1.38121
1.38127
1.38132
1.38138
1.38144
1.3815
1.38156
1.38162
1.38169
1.38176
1.38184
1.38192
1.38201
1.3821
1.3822
1.38231
1.38242
1.38255
1.38269
1.38284
1.383
1.38317
1.38336
1.38356
1.38378
1.38401
1.38427
1.38454
1.38482
1.38513
1.38546
1.38582
1.38619
1.38659
1.38701
1.38746
1.38793
1.38844
1.38897
1.38953
1.39012
1.39074
1.39139
1.39208
1.3928
1.39356
1.39436
1.3952
1.39607
1.39699
1.39796
1.39898
1.40005
1.40117
1.40235
1.4036
1.40491
1.4063
1.40777
1.40933
1.41099
1.41275
1.41462
1.41661
1.41869
1.42085
1.42304
1.42516
1.42709
1.42864
1.42967
1.43001
1.42965
1.33959
1.33912
1.33894
1.339
1.33927
1.33967
1.34015
1.34066
1.34118
1.34168
1.34215
1.34257
1.34296
1.34331
1.34363
1.3439
1.34415
1.34437
1.34456
1.34473
1.34487
1.345
1.34511
1.3452
1.34528
1.34534
1.34539
1.34543
1.34546
1.34548
1.3455
1.3455
1.3455
1.34549
1.34548
1.34546
1.34544
1.34541
1.34538
1.34535
1.34532
1.34528
1.34525
1.34521
1.34518
1.34514
1.34511
1.34508
1.34505
1.34503
1.34501
1.34499
1.34498
1.34498
1.34498
1.34498
1.345
1.34502
1.34504
1.34508
1.34512
1.34518
1.34524
1.34531
1.34539
1.34548
1.34558
1.34569
1.34581
1.34594
1.34608
1.34623
1.34639
1.34655
1.34673
1.34692
1.34711
1.34732
1.34753
1.34775
1.34798
1.34822
1.34846
1.34872
1.34898
1.34925
1.34952
1.3498
1.35009
1.35038
1.35068
1.35098
1.35129
1.3516
1.35191
1.35222
1.35253
1.35285
1.35316
1.35347
1.35378
1.35408
1.35438
1.35468
1.35497
1.35526
1.35554
1.35581
1.35608
1.35633
1.35658
1.35682
1.35704
1.35726
1.35746
1.35765
1.35783
1.358
1.35816
1.3583
1.35843
1.35854
1.35865
1.35874
1.35882
1.3589
1.35896
1.35901
1.35906
1.35909
1.35912
1.35915
1.35916
1.35917
1.35918
1.35918
1.35918
1.35917
1.35916
1.35915
1.35913
1.35911
1.35909
1.35907
1.35904
1.35902
1.35899
1.35896
1.35893
1.3589
1.35888
1.35885
1.35882
1.35879
1.35876
1.35873
1.3587
1.35867
1.35864
1.35861
1.35858
1.35855
1.35852
1.3585
1.35847
1.35844
1.35842
1.35839
1.35837
1.35834
1.35832
1.35829
1.35827
1.35825
1.35823
1.3582
1.35818
1.35816
1.35814
1.35812
1.3581
1.35808
1.35806
1.35804
1.35803
1.35801
1.35799
1.35798
1.35796
1.35794
1.35793
1.35792
1.3579
1.35789
1.35788
1.35787
1.35786
1.35785
1.35785
1.35784
1.35784
1.35783
1.35783
1.35783
1.35784
1.35784
1.35785
1.35786
1.35787
1.35788
1.3579
1.35792
1.35794
1.35797
1.358
1.35803
1.35807
1.35811
1.35816
1.3582
1.35826
1.35832
1.35838
1.35845
1.35853
1.35861
1.3587
1.35879
1.35889
1.359
1.35911
1.35923
1.35936
1.35949
1.35964
1.35979
1.35994
1.36011
1.36029
1.36047
1.36066
1.36086
1.36107
1.36129
1.36152
1.36176
1.362
1.36226
1.36252
1.3628
1.36308
1.36337
1.36368
1.36399
1.36431
1.36464
1.36497
1.36532
1.36567
1.36603
1.3664
1.36677
1.36715
1.36754
1.36793
1.36832
1.36872
1.36912
1.36953
1.36993
1.37034
1.37075
1.37115
1.37155
1.37195
1.37234
1.37273
1.37311
1.37349
1.37385
1.37421
1.37455
1.37489
1.37521
1.37552
1.37582
1.37611
1.37638
1.37665
1.3769
1.37713
1.37736
1.37757
1.37778
1.37797
1.37815
1.37833
1.37849
1.37865
1.3788
1.37894
1.37907
1.3792
1.37932
1.37944
1.37955
1.37966
1.37976
1.37986
1.37995
1.38004
1.38013
1.38022
1.3803
1.38038
1.38045
1.38053
1.3806
1.38066
1.38073
1.3808
1.38086
1.38092
1.38098
1.38104
1.38109
1.38115
1.3812
1.38126
1.38131
1.38137
1.38143
1.38148
1.38154
1.38161
1.38167
1.38174
1.38181
1.38189
1.38197
1.38207
1.38216
1.38227
1.38238
1.38251
1.38264
1.38279
1.38294
1.38312
1.3833
1.3835
1.38371
1.38395
1.38419
1.38446
1.38475
1.38505
1.38538
1.38573
1.3861
1.38649
1.38691
1.38736
1.38783
1.38833
1.38885
1.38941
1.38999
1.39061
1.39125
1.39193
1.39265
1.3934
1.39419
1.39501
1.39588
1.39678
1.39773
1.39872
1.39977
1.40086
1.40201
1.40321
1.40447
1.4058
1.4072
1.40867
1.41022
1.41185
1.41355
1.41533
1.41715
1.41899
1.42079
1.42247
1.42393
1.42504
1.42572
1.42589
1.4255
1.34049
1.3401
1.33991
1.33991
1.34006
1.34033
1.34067
1.34106
1.34147
1.34187
1.34227
1.34264
1.34298
1.3433
1.34358
1.34384
1.34407
1.34428
1.34446
1.34463
1.34477
1.34489
1.345
1.34509
1.34517
1.34524
1.34529
1.34533
1.34536
1.34539
1.3454
1.34541
1.34541
1.3454
1.34539
1.34537
1.34535
1.34533
1.3453
1.34527
1.34524
1.34521
1.34517
1.34514
1.3451
1.34507
1.34504
1.34501
1.34498
1.34496
1.34494
1.34492
1.34491
1.34491
1.34491
1.34492
1.34493
1.34495
1.34498
1.34501
1.34506
1.34511
1.34518
1.34525
1.34533
1.34542
1.34552
1.34563
1.34575
1.34588
1.34602
1.34617
1.34633
1.3465
1.34668
1.34687
1.34707
1.34727
1.34749
1.34771
1.34794
1.34818
1.34843
1.34868
1.34894
1.34922
1.34949
1.34978
1.35007
1.35036
1.35066
1.35097
1.35128
1.35159
1.35191
1.35222
1.35254
1.35285
1.35317
1.35348
1.35379
1.3541
1.3544
1.3547
1.355
1.35529
1.35557
1.35585
1.35611
1.35637
1.35662
1.35686
1.35709
1.35731
1.35751
1.3577
1.35788
1.35805
1.3582
1.35834
1.35847
1.35858
1.35869
1.35878
1.35886
1.35893
1.35898
1.35903
1.35908
1.35911
1.35914
1.35916
1.35917
1.35918
1.35918
1.35918
1.35918
1.35917
1.35916
1.35914
1.35912
1.3591
1.35908
1.35906
1.35903
1.35901
1.35898
1.35895
1.35892
1.35889
1.35886
1.35883
1.3588
1.35877
1.35874
1.35871
1.35868
1.35865
1.35863
1.3586
1.35857
1.35854
1.35851
1.35849
1.35846
1.35843
1.35841
1.35838
1.35836
1.35833
1.35831
1.35829
1.35826
1.35824
1.35822
1.3582
1.35818
1.35815
1.35813
1.35811