# vtk DataFile Version 2.0
LBE mesh
ASCII
DATASET STRUCTURED_POINTS
DIMENSIONS 400 100 1
ASPECT_RATIO 1 1 1
ORIGIN 0 0 0
POINT_DATA 40000
SCALARS rho double 1
LOOKUP_TABLE default
1.09849
1.1701
1.191
1.19535
1.19748
1.19931
1.20064
1.20151
1.2021
1.20254
1.20287
1.20314
1.20334
1.20351
1.20364
1.20375
1.20384
1.20391
1.20396
1.20401
1.20404
1.20406
1.20407
1.20408
1.20408
1.20407
1.20406
1.20404
1.20402
1.204
1.20397
1.20393
1.2039
1.20386
1.20382
1.20377
1.20373
1.20368
1.20363
1.20358
1.20353
1.20347
1.20342
1.20337
1.20332
1.20326
1.20321
1.20316
1.20311
1.20307
1.20302
1.20298
1.20294
1.20291
1.20288
1.20285
1.20283
1.20281
1.2028
1.2028
1.2028
1.2028
1.20282
1.20284
1.20286
1.2029
1.20294
1.20299
1.20305
1.20311
1.20318
1.20326
1.20335
1.20345
1.20355
1.20367
1.20378
1.20391
1.20404
1.20418
1.20433
1.20449
1.20465
1.20481
1.20498
1.20516
1.20534
1.20552
1.20571
1.20591
1.2061
1.2063
1.2065
1.2067
1.2069
1.2071
1.2073
1.2075
1.20769
1.20789
1.20808
1.20826
1.20845
1.20862
1.2088
1.20896
1.20913
1.20928
1.20943
1.20957
1.2097
1.20982
1.20993
1.21004
1.21013
1.21022
1.21029
1.21035
1.21041
1.21045
1.21048
1.21051
1.21052
1.21052
1.21052
1.2105
1.21048
1.21044
1.2104
1.21036
1.2103
1.21025
1.21018
1.21011
1.21004
1.20996
1.20988
1.20979
1.2097
1.20962
1.20952
1.20943
1.20934
1.20924
1.20915
1.20905
1.20896
1.20886
1.20877
1.20868
1.20859
1.20849
1.2084
1.20832
1.20823
1.20814
1.20806
1.20798
1.2079
1.20782
1.20774
1.20767
1.20759
1.20752
1.20745
1.20739
1.20732
1.20726
1.2072
1.20714
1.20708
1.20702
1.20697
1.20691
1.20686
1.20681
1.20676
1.20672
1.20667
1.20663
1.20659
1.20654
1.2065
1.20646
1.20643
1.20639
1.20635
1.20632
1.20628
1.20625
1.20622
1.20619
1.20615
1.20612
1.20609
1.20606
1.20603
1.20601
1.20598
1.20595
1.20592
1.2059
1.20587
1.20585
1.20582
1.2058
1.20578
1.20575
1.20573
1.20571
1.20569
1.20568
1.20566
1.20565
1.20563
1.20562
1.20561
1.20561
1.2056
1.2056
1.2056
1.2056
1.20561
1.20562
1.20563
1.20564
1.20566
1.20569
1.20572
1.20575
1.20579
1.20583
1.20588
1.20594
1.206
1.20606
1.20614
1.20622
1.2063
1.2064
1.2065
1.20661
1.20672
1.20685
1.20698
1.20713
1.20728
1.20744
1.2076
1.20778
1.20797
1.20816
1.20837
1.20858
1.20881
1.20904
1.20928
1.20953
1.20979
1.21005
1.21033
1.21061
1.2109
1.2112
1.2115
1.2118
1.21212
1.21243
1.21275
1.21308
1.2134
1.21373
1.21405
1.21438
1.2147
1.21502
1.21534
1.21565
1.21596
1.21626
1.21655
1.21683
1.21711
1.21737
1.21763
1.21787
1.21811
1.21833
1.21854
1.21873
1.21892
1.21909
1.21925
1.2194
1.21954
1.21966
1.21978
1.21988
1.21997
1.22005
1.22012
1.22019
1.22024
1.22029
1.22032
1.22035
1.22037
1.22039
1.2204
1.2204
1.2204
1.22039
1.22038
1.22036
1.22034
1.22031
1.22028
1.22024
1.2202
1.22016
1.22011
1.22006
1.22001
1.21996
1.2199
1.21984
1.21977
1.21971
1.21964
1.21957
1.2195
1.21943
1.21936
1.2193
1.21923
1.21916
1.2191
1.21904
1.21899
1.21894
1.21889
1.21885
1.21882
1.2188
1.21879
1.21879
1.21879
1.21882
1.21885
1.2189
1.21896
1.21904
1.21914
1.21925
1.21938
1.21954
1.21971
1.21991
1.22013
1.22038
1.22065
1.22094
1.22126
1.22161
1.22199
1.2224
1.22284
1.22332
1.22382
1.22436
1.22494
1.22555
1.2262
1.22689
1.22762
1.22839
1.22921
1.23008
1.231
1.23198
1.23301
1.23411
1.23529
1.23655
1.23789
1.23934
1.24092
1.24263
1.2445
1.24658
1.24891
1.25156
1.25462
1.25823
1.26264
1.26832
1.27619
1.28724
1.30408
1.33944
1.15876
1.16876
1.18047
1.19
1.19494
1.19748
1.19906
1.20021
1.20105
1.20168
1.20215
1.20252
1.20281
1.20304
1.20323
1.20338
1.20351
1.20361
1.20369
1.20376
1.20381
1.20385
1.20388
1.2039
1.20391
1.20391
1.20391
1.2039
1.20389
1.20387
1.20385
1.20382
1.20379
1.20376
1.20372
1.20368
1.20364
1.20359
1.20355
1.2035
1.20345
1.2034
1.20335
1.2033
1.20325
1.20321
1.20316
1.20311
1.20306
1.20302
1.20298
1.20294
1.2029
1.20287
1.20284
1.20282
1.2028
1.20278
1.20277
1.20277
1.20277
1.20278
1.2028
1.20282
1.20285
1.20289
1.20293
1.20298
1.20304
1.20311
1.20318
1.20326
1.20335
1.20345
1.20356
1.20367
1.20379
1.20392
1.20405
1.20419
1.20434
1.2045
1.20466
1.20482
1.205
1.20517
1.20535
1.20554
1.20573
1.20592
1.20612
1.20631
1.20651
1.20671
1.20691
1.20711
1.20731
1.20751
1.2077
1.20789
1.20808
1.20827
1.20845
1.20863
1.2088
1.20897
1.20913
1.20928
1.20942
1.20956
1.20969
1.20981
1.20992
1.21003
1.21012
1.2102
1.21027
1.21034
1.21039
1.21043
1.21046
1.21048
1.21049
1.2105
1.21049
1.21047
1.21045
1.21041
1.21037
1.21033
1.21027
1.21021
1.21015
1.21008
1.21001
1.20993
1.20985
1.20976
1.20968
1.20959
1.2095
1.20941
1.20931
1.20922
1.20912
1.20903
1.20894
1.20884
1.20875
1.20866
1.20857
1.20848
1.20839
1.2083
1.20821
1.20813
1.20805
1.20796
1.20788
1.20781
1.20773
1.20766
1.20758
1.20751
1.20744
1.20738
1.20731
1.20725
1.20719
1.20713
1.20707
1.20702
1.20696
1.20691
1.20686
1.20681
1.20676
1.20671
1.20667
1.20662
1.20658
1.20654
1.2065
1.20646
1.20642
1.20639
1.20635
1.20632
1.20628
1.20625
1.20622
1.20618
1.20615
1.20612
1.20609
1.20606
1.20603
1.20601
1.20598
1.20595
1.20592
1.2059
1.20587
1.20585
1.20582
1.2058
1.20578
1.20576
1.20573
1.20571
1.2057
1.20568
1.20566
1.20565
1.20564
1.20562
1.20561
1.20561
1.2056
1.2056
1.2056
1.2056
1.20561
1.20562
1.20563
1.20565
1.20567
1.2057
1.20573
1.20576
1.2058
1.20584
1.20589
1.20595
1.20601
1.20608
1.20615
1.20623
1.20632
1.20641
1.20651
1.20662
1.20674
1.20687
1.207
1.20715
1.2073
1.20746
1.20763
1.20781
1.20799
1.20819
1.20839
1.20861
1.20883
1.20907
1.20931
1.20956
1.20982
1.21008
1.21036
1.21064
1.21093
1.21123
1.21153
1.21184
1.21215
1.21246
1.21278
1.21311
1.21343
1.21375
1.21408
1.2144
1.21472
1.21504
1.21536
1.21567
1.21597
1.21627
1.21656
1.21684
1.21712
1.21738
1.21763
1.21788
1.21811
1.21833
1.21853
1.21873
1.21891
1.21908
1.21924
1.21939
1.21952
1.21965
1.21976
1.21986
1.21995
1.22004
1.22011
1.22017
1.22022
1.22027
1.22031
1.22034
1.22036
1.22037
1.22038
1.22039
1.22038
1.22038
1.22036
1.22034
1.22032
1.22029
1.22026
1.22023
1.22019
1.22015
1.2201
1.22005
1.22
1.21994
1.21988
1.21982
1.21976
1.21969
1.21963
1.21956
1.21949
1.21942
1.21935
1.21928
1.21922
1.21915
1.21909
1.21903
1.21898
1.21893
1.21889
1.21885
1.21882
1.2188
1.21879
1.21879
1.2188
1.21882
1.21886
1.21891
1.21898
1.21906
1.21916
1.21928
1.21941
1.21957
1.21975
1.21995
1.22017
1.22042
1.2207
1.221
1.22132
1.22168
1.22206
1.22247
1.22292
1.2234
1.22391
1.22445
1.22503
1.22565
1.2263
1.227
1.22773
1.22851
1.22934
1.23022
1.23115
1.23213
1.23318
1.2343
1.23549
1.23677
1.23813
1.23961
1.24122
1.24297
1.2449
1.24705
1.24947
1.25223
1.25545
1.25931
1.26405
1.27004
1.27788
1.28941
1.30938
1.34055
1.17819
1.17662
1.18368
1.18957
1.19328
1.19594
1.19785
1.1992
1.20019
1.20093
1.2015
1.20195
1.20231
1.2026
1.20284
1.20303
1.20319
1.20332
1.20343
1.20351
1.20359
1.20364
1.20369
1.20372
1.20374
1.20376
1.20376
1.20377
1.20376
1.20375
1.20373
1.20371
1.20368
1.20366
1.20362
1.20359
1.20355
1.20351
1.20347
1.20342
1.20338
1.20333
1.20328
1.20324
1.20319
1.20314
1.2031
1.20305
1.20301
1.20297
1.20293
1.20289
1.20286
1.20283
1.2028
1.20278
1.20276
1.20275
1.20274
1.20274
1.20274
1.20275
1.20277
1.20279
1.20282
1.20286
1.20291
1.20296
1.20302
1.20309
1.20317
1.20325
1.20334
1.20344
1.20355
1.20366
1.20379
1.20392
1.20405
1.20419
1.20434
1.2045
1.20466
1.20483
1.205
1.20518
1.20536
1.20555
1.20574
1.20593
1.20613
1.20632
1.20652
1.20672
1.20692
1.20712
1.20732
1.20752
1.20771
1.2079
1.20809
1.20828
1.20846
1.20864
1.20881
1.20897
1.20913
1.20928
1.20943
1.20956
1.20969
1.20981
1.20992
1.21002
1.21011
1.21019
1.21026
1.21032
1.21037
1.21042
1.21044
1.21046
1.21047
1.21047
1.21047
1.21045
1.21042
1.21039
1.21035
1.2103
1.21025
1.21019
1.21012
1.21005
1.20998
1.2099
1.20982
1.20973
1.20965
1.20956
1.20947
1.20938
1.20929
1.20919
1.2091
1.20901
1.20891
1.20882
1.20873
1.20864
1.20855
1.20846
1.20837
1.20828
1.2082
1.20811
1.20803
1.20795
1.20787
1.20779
1.20772
1.20764
1.20757
1.2075
1.20743
1.20737
1.2073
1.20724
1.20718
1.20712
1.20706
1.20701
1.20696
1.2069
1.20685
1.2068
1.20676
1.20671
1.20667
1.20662
1.20658
1.20654
1.2065
1.20646
1.20642
1.20639
1.20635
1.20632
1.20628
1.20625
1.20622
1.20618
1.20615
1.20612
1.20609
1.20606
1.20603
1.20601
1.20598
1.20595
1.20592
1.2059
1.20587
1.20585
1.20582
1.2058
1.20578
1.20576
1.20573
1.20572
1.2057
1.20568
1.20566
1.20565
1.20564
1.20563
1.20562
1.20561
1.2056
1.2056
1.2056
1.20561
1.20561
1.20562
1.20564
1.20565
1.20567
1.2057
1.20573
1.20576
1.2058
1.20585
1.2059
1.20595
1.20601
1.20608
1.20616
1.20624
1.20633
1.20642
1.20652
1.20663
1.20675
1.20688
1.20701
1.20716
1.20731
1.20747
1.20764
1.20782
1.20801
1.20821
1.20841
1.20863
1.20885
1.20909
1.20933
1.20958
1.20984
1.21011
1.21038
1.21066
1.21095
1.21125
1.21155
1.21186
1.21217
1.21249
1.21281
1.21313
1.21346
1.21378
1.2141
1.21443
1.21475
1.21507
1.21538
1.21569
1.21599
1.21629
1.21658
1.21686
1.21713
1.21739
1.21765
1.21789
1.21812
1.21833
1.21854
1.21873
1.21891
1.21908
1.21924
1.21939
1.21952
1.21964
1.21975
1.21986
1.21995
1.22003
1.2201
1.22016
1.22021
1.22026
1.22029
1.22032
1.22034
1.22036
1.22037
1.22037
1.22037
1.22036
1.22035
1.22033
1.22031
1.22028
1.22025
1.22021
1.22018
1.22013
1.22009
1.22004
1.21998
1.21993
1.21987
1.21981
1.21974
1.21968
1.21961
1.21955
1.21948
1.21941
1.21934
1.21927
1.21921
1.21914
1.21908
1.21902
1.21897
1.21892
1.21888
1.21884
1.21881
1.2188
1.21879
1.21879
1.2188
1.21882
1.21886
1.21891
1.21898
1.21906
1.21916
1.21928
1.21942
1.21958
1.21976
1.21997
1.22019
1.22045
1.22072
1.22102
1.22135
1.22171
1.2221
1.22252
1.22296
1.22344
1.22396
1.2245
1.22509
1.22571
1.22637
1.22707
1.22781
1.22859
1.22942
1.23031
1.23124
1.23223
1.23329
1.23441
1.23561
1.23689
1.23827
1.23976
1.24137
1.24313
1.24508
1.24724
1.24968
1.25246
1.25568
1.25948
1.26407
1.26983
1.27728
1.28666
1.29686
1.30612
1.18624
1.18532
1.18756
1.19025
1.19317
1.19552
1.19724
1.19855
1.19956
1.20036
1.20098
1.20148
1.20189
1.20222
1.20249
1.20271
1.2029
1.20305
1.20318
1.20329
1.20337
1.20345
1.2035
1.20355
1.20358
1.20361
1.20362
1.20363
1.20363
1.20363
1.20362
1.2036
1.20358
1.20356
1.20353
1.2035
1.20346
1.20342
1.20338
1.20334
1.2033
1.20326
1.20321
1.20317
1.20312
1.20308
1.20303
1.20299
1.20295
1.20291
1.20287
1.20284
1.2028
1.20278
1.20275
1.20273
1.20271
1.2027
1.2027
1.2027
1.2027
1.20272
1.20273
1.20276
1.20279
1.20283
1.20288
1.20293
1.203
1.20307
1.20315
1.20323
1.20332
1.20343
1.20353
1.20365
1.20377
1.2039
1.20404
1.20419
1.20434
1.20449
1.20466
1.20483
1.205
1.20518
1.20536
1.20555
1.20574
1.20594
1.20613
1.20633
1.20653
1.20673
1.20693
1.20713
1.20733
1.20753
1.20772
1.20792
1.2081
1.20829
1.20847
1.20865
1.20882
1.20898
1.20914
1.20929
1.20943
1.20957
1.2097
1.20982
1.20992
1.21002
1.21011
1.21019
1.21026
1.21032
1.21037
1.21041
1.21044
1.21045
1.21046
1.21046
1.21045
1.21043
1.2104
1.21037
1.21033
1.21028
1.21022
1.21016
1.2101
1.21003
1.20995
1.20987
1.20979
1.20971
1.20962
1.20953
1.20944
1.20935
1.20926
1.20917
1.20907
1.20898
1.20889
1.2088
1.20871
1.20862
1.20853
1.20844
1.20835
1.20826
1.20818
1.2081
1.20801
1.20793
1.20786
1.20778
1.2077
1.20763
1.20756
1.20749
1.20742
1.20736
1.2073
1.20723
1.20717
1.20712
1.20706
1.207
1.20695
1.2069
1.20685
1.2068
1.20675
1.20671
1.20666
1.20662
1.20658
1.20654
1.2065
1.20646
1.20642
1.20639
1.20635
1.20632
1.20628
1.20625
1.20622
1.20619
1.20615
1.20612
1.20609
1.20606
1.20604
1.20601
1.20598
1.20595
1.20592
1.2059
1.20587
1.20585
1.20582
1.2058
1.20578
1.20576
1.20574
1.20572
1.2057
1.20568
1.20566
1.20565
1.20564
1.20563
1.20562
1.20561
1.2056
1.2056
1.2056
1.20561
1.20561
1.20562
1.20564
1.20565
1.20567
1.2057
1.20573
1.20576
1.2058
1.20585
1.2059
1.20595
1.20601
1.20608
1.20616
1.20624
1.20633
1.20642
1.20653
1.20664
1.20676
1.20688
1.20702
1.20716
1.20731
1.20748
1.20765
1.20783
1.20802
1.20821
1.20842
1.20864
1.20886
1.2091
1.20934
1.20959
1.20985
1.21012
1.2104
1.21068
1.21097
1.21127
1.21157
1.21188
1.21219
1.21251
1.21283
1.21316
1.21348
1.2138
1.21413
1.21445
1.21477
1.21509
1.21541
1.21572
1.21602
1.21632
1.2166
1.21688
1.21715
1.21742
1.21767
1.21791
1.21813
1.21835
1.21855
1.21875
1.21892
1.21909
1.21925
1.21939
1.21952
1.21965
1.21976
1.21985
1.21994
1.22002
1.22009
1.22015
1.2202
1.22025
1.22028
1.22031
1.22033
1.22035
1.22036
1.22036
1.22036
1.22035
1.22034
1.22032
1.2203
1.22027
1.22024
1.2202
1.22016
1.22012
1.22007
1.22003
1.21997
1.21992
1.21986
1.2198
1.21973
1.21967
1.2196
1.21953
1.21946
1.21939
1.21933
1.21926
1.21919
1.21913
1.21906
1.21901
1.21895
1.21891
1.21886
1.21883
1.2188
1.21878
1.21877
1.21877
1.21878
1.21881
1.21885
1.2189
1.21897
1.21905
1.21916
1.21928
1.21942
1.21958
1.21976
1.21997
1.22019
1.22045
1.22072
1.22103
1.22136
1.22172
1.22211
1.22253
1.22298
1.22346
1.22398
1.22453
1.22511
1.22573
1.2264
1.2271
1.22784
1.22863
1.22946
1.23034
1.23128
1.23227
1.23332
1.23445
1.23564
1.23692
1.23829
1.23977
1.24138
1.24313
1.24505
1.24718
1.24956
1.25225
1.25534
1.25892
1.26312
1.26804
1.27375
1.28005
1.28518
1.28525
1.19056
1.19009
1.19069
1.19218
1.19402
1.19566
1.19708
1.19826
1.19921
1.19998
1.20061
1.20112
1.20155
1.2019
1.20219
1.20244
1.20264
1.20281
1.20296
1.20308
1.20318
1.20326
1.20333
1.20339
1.20343
1.20346
1.20348
1.2035
1.20351
1.20351
1.2035
1.20349
1.20348
1.20346
1.20343
1.2034
1.20337
1.20334
1.2033
1.20326
1.20322
1.20318
1.20314
1.2031
1.20305
1.20301
1.20297
1.20293
1.20289
1.20285
1.20281
1.20278
1.20275
1.20272
1.2027
1.20268
1.20266
1.20265
1.20265
1.20265
1.20266
1.20267
1.20269
1.20272
1.20275
1.20279
1.20284
1.2029
1.20296
1.20304
1.20311
1.2032
1.2033
1.2034
1.20351
1.20363
1.20375
1.20389
1.20402
1.20417
1.20432
1.20448
1.20465
1.20482
1.20499
1.20517
1.20536
1.20555
1.20574
1.20594
1.20613
1.20633
1.20653
1.20674
1.20694
1.20714
1.20734
1.20754
1.20773
1.20793
1.20811
1.2083
1.20848
1.20866
1.20883
1.20899
1.20915
1.2093
1.20944
1.20958
1.20971
1.20982
1.20993
1.21003
1.21012
1.2102
1.21027
1.21032
1.21037
1.21041
1.21043
1.21045
1.21046
1.21045
1.21044
1.21042
1.21039
1.21035
1.21031
1.21026
1.2102
1.21014
1.21007
1.21
1.20993
1.20985
1.20977
1.20968
1.2096
1.20951
1.20942
1.20933
1.20923
1.20914
1.20905
1.20896
1.20887
1.20877
1.20868
1.20859
1.2085
1.20842
1.20833
1.20824
1.20816
1.20808
1.208
1.20792
1.20784
1.20777
1.20769
1.20762
1.20755
1.20748
1.20741
1.20735
1.20729
1.20723
1.20717
1.20711
1.20705
1.207
1.20695
1.20689
1.20684
1.2068
1.20675
1.20671
1.20666
1.20662
1.20658
1.20654
1.2065
1.20646
1.20642
1.20639
1.20635
1.20632
1.20628
1.20625
1.20622
1.20619
1.20616
1.20613
1.20609
1.20607
1.20604
1.20601
1.20598
1.20595
1.20593
1.2059
1.20587
1.20585
1.20582
1.2058
1.20578
1.20576
1.20574
1.20572
1.2057
1.20568
1.20566
1.20565
1.20563
1.20562
1.20561
1.20561
1.2056
1.2056
1.2056
1.2056
1.20561
1.20562
1.20563
1.20565
1.20567
1.20569
1.20572
1.20576
1.2058
1.20584
1.20589
1.20595
1.20601
1.20608
1.20615
1.20623
1.20632
1.20642
1.20652
1.20663
1.20675
1.20688
1.20701
1.20716
1.20731
1.20747
1.20764
1.20782
1.20801
1.20821
1.20842
1.20864
1.20886
1.2091
1.20934
1.2096
1.20986
1.21013
1.2104
1.21069
1.21098
1.21128
1.21158
1.21189
1.21221
1.21253
1.21285
1.21317
1.2135
1.21383
1.21415
1.21448
1.2148
1.21512
1.21543
1.21574
1.21605
1.21634
1.21663
1.21691
1.21718
1.21744
1.21769
1.21793
1.21816
1.21837
1.21857
1.21877
1.21894
1.21911
1.21926
1.21941
1.21954
1.21965
1.21976
1.21986
1.21995
1.22003
1.22009
1.22015
1.2202
1.22025
1.22028
1.22031
1.22033
1.22034
1.22035
1.22035
1.22035
1.22034
1.22033
1.22031
1.22029
1.22026
1.22023
1.22019
1.22015
1.22011
1.22007
1.22002
1.21996
1.21991
1.21985
1.21978
1.21972
1.21966
1.21959
1.21952
1.21945
1.21938
1.21931
1.21924
1.21917
1.21911
1.21905
1.21899
1.21893
1.21889
1.21884
1.21881
1.21878
1.21876
1.21875
1.21875
1.21876
1.21879
1.21882
1.21888
1.21894
1.21903
1.21913
1.21925
1.21939
1.21956
1.21974
1.21994
1.22017
1.22043
1.22071
1.22101
1.22134
1.2217
1.22209
1.22251
1.22296
1.22345
1.22396
1.22451
1.2251
1.22572
1.22638
1.22708
1.22783
1.22861
1.22944
1.23032
1.23126
1.23224
1.23329
1.2344
1.23559
1.23686
1.23821
1.23967
1.24124
1.24295
1.24482
1.24687
1.24914
1.25168
1.25452
1.25772
1.26132
1.26529
1.26936
1.27299
1.27547
1.2748
1.19355
1.19303
1.19317
1.19398
1.19504
1.19619
1.19729
1.19825
1.19908
1.19978
1.20037
1.20087
1.20129
1.20165
1.20195
1.2022
1.20242
1.2026
1.20276
1.20289
1.203
1.20309
1.20317
1.20323
1.20328
1.20332
1.20335
1.20337
1.20339
1.20339
1.20339
1.20339
1.20337
1.20336
1.20334
1.20331
1.20328
1.20325
1.20322
1.20318
1.20315
1.20311
1.20307
1.20302
1.20298
1.20294
1.2029
1.20286
1.20282
1.20278
1.20275
1.20272
1.20269
1.20266
1.20264
1.20262
1.20261
1.2026
1.20259
1.2026
1.2026
1.20262
1.20264
1.20267
1.20271
1.20275
1.2028
1.20286
1.20292
1.203
1.20308
1.20317
1.20326
1.20337
1.20348
1.2036
1.20373
1.20386
1.204
1.20415
1.2043
1.20446
1.20463
1.2048
1.20498
1.20516
1.20535
1.20554
1.20573
1.20593
1.20613
1.20633
1.20654
1.20674
1.20694
1.20714
1.20735
1.20755
1.20774
1.20794
1.20813
1.20831
1.20849
1.20867
1.20884
1.20901
1.20917
1.20932
1.20946
1.2096
1.20972
1.20984
1.20995
1.21005
1.21013
1.21021
1.21028
1.21033
1.21038
1.21041
1.21044
1.21045
1.21046
1.21045
1.21044
1.21041
1.21038
1.21034
1.2103
1.21025
1.21019
1.21012
1.21005
1.20998
1.20991
1.20983
1.20974
1.20966
1.20957
1.20948
1.20939
1.2093
1.20921
1.20912
1.20902
1.20893
1.20884
1.20875
1.20866
1.20857
1.20848
1.20839
1.20831
1.20822
1.20814
1.20806
1.20798
1.2079
1.20783
1.20775
1.20768
1.20761
1.20754
1.20747
1.2074
1.20734
1.20728
1.20722
1.20716
1.2071
1.20705
1.20699
1.20694
1.20689
1.20684
1.20679
1.20675
1.2067
1.20666
1.20662
1.20658
1.20654
1.2065
1.20646
1.20642
1.20639
1.20635
1.20632
1.20629
1.20625
1.20622
1.20619
1.20616
1.20613
1.2061
1.20607
1.20604
1.20601
1.20598
1.20596
1.20593
1.2059
1.20588
1.20585
1.20583
1.2058
1.20578
1.20576
1.20574
1.20572
1.2057
1.20568
1.20566
1.20565
1.20563
1.20562
1.20561
1.2056
1.2056
1.2056
1.2056
1.2056
1.2056
1.20561
1.20563
1.20564
1.20566
1.20569
1.20572
1.20575
1.20579
1.20583
1.20588
1.20594
1.206
1.20607
1.20614
1.20622
1.20631
1.2064
1.20651
1.20662
1.20674
1.20687
1.207
1.20715
1.2073
1.20746
1.20763
1.20781
1.208
1.2082
1.20841
1.20863
1.20885
1.20909
1.20934
1.20959
1.20985
1.21012
1.2104
1.21069
1.21098
1.21128
1.21159
1.2119
1.21222
1.21254
1.21286
1.21319
1.21352
1.21385
1.21417
1.2145
1.21483
1.21515
1.21546
1.21577
1.21608
1.21638
1.21667
1.21695
1.21722
1.21748
1.21773
1.21796
1.21819
1.2184
1.2186
1.21879
1.21897
1.21913
1.21929
1.21943
1.21955
1.21967
1.21978
1.21987
1.21996
1.22003
1.2201
1.22016
1.22021
1.22025
1.22028
1.22031
1.22033
1.22034
1.22035
1.22035
1.22035
1.22034
1.22032
1.2203
1.22028
1.22025
1.22022
1.22019
1.22015
1.2201
1.22006
1.22001
1.21995
1.2199
1.21984
1.21977
1.21971
1.21964
1.21958
1.21951
1.21944
1.21937
1.21929
1.21922
1.21916
1.21909
1.21903
1.21897
1.21891
1.21886
1.21882
1.21878
1.21875
1.21873
1.21872
1.21872
1.21873
1.21875
1.21879
1.21884
1.21891
1.21899
1.21909
1.21922
1.21936
1.21952
1.2197
1.2199
1.22013
1.22039
1.22066
1.22097
1.2213
1.22166
1.22205
1.22247
1.22292
1.2234
1.22392
1.22447
1.22505
1.22567
1.22633
1.22703
1.22777
1.22855
1.22938
1.23025
1.23118
1.23216
1.23319
1.23429
1.23546
1.2367
1.23802
1.23944
1.24097
1.24261
1.2444
1.24634
1.24846
1.25078
1.25333
1.2561
1.25905
1.26206
1.26491
1.2671
1.2682
1.26794
1.1956
1.19506
1.19504
1.19544
1.19608
1.19687
1.19767
1.19843
1.19912
1.19973
1.20026
1.20073
1.20113
1.20147
1.20177
1.20202
1.20224
1.20243
1.20259
1.20273
1.20284
1.20294
1.20302
1.20309
1.20315
1.20319
1.20323
1.20326
1.20327
1.20328
1.20329
1.20328
1.20328
1.20326
1.20324
1.20322
1.2032
1.20317
1.20314
1.2031
1.20307
1.20303
1.20299
1.20295
1.20291
1.20287
1.20283
1.20279
1.20275
1.20272
1.20268
1.20265
1.20262
1.2026
1.20258
1.20256
1.20255
1.20254
1.20253
1.20254
1.20255
1.20256
1.20259
1.20262
1.20265
1.2027
1.20275
1.20281
1.20287
1.20295
1.20303
1.20312
1.20322
1.20333
1.20344
1.20356
1.20369
1.20383
1.20397
1.20412
1.20427
1.20444
1.20461
1.20478
1.20496
1.20514
1.20533
1.20553
1.20572
1.20592
1.20612
1.20633
1.20653
1.20674
1.20694
1.20715
1.20735
1.20755
1.20775
1.20795
1.20814
1.20833
1.20851
1.20869
1.20886
1.20902
1.20918
1.20933
1.20948
1.20961
1.20974
1.20986
1.20997
1.21006
1.21015
1.21023
1.21029
1.21035
1.21039
1.21042
1.21045
1.21046
1.21046
1.21045
1.21044
1.21041
1.21038
1.21034
1.21029
1.21023
1.21017
1.21011
1.21004
1.20996
1.20988
1.2098
1.20972
1.20963
1.20955
1.20946
1.20937
1.20928
1.20918
1.20909
1.209
1.20891
1.20882
1.20873
1.20864
1.20855
1.20846
1.20837
1.20829
1.2082
1.20812
1.20804
1.20796
1.20788
1.20781
1.20774
1.20766
1.20759
1.20752
1.20746
1.20739
1.20733
1.20727
1.20721
1.20715
1.2071
1.20704
1.20699
1.20694
1.20689
1.20684
1.20679
1.20675
1.2067
1.20666
1.20662
1.20658
1.20654
1.2065
1.20646
1.20643
1.20639
1.20636
1.20632
1.20629
1.20626
1.20622
1.20619
1.20616
1.20613
1.2061
1.20607
1.20604
1.20601
1.20599
1.20596
1.20593
1.2059
1.20588
1.20585
1.20583
1.2058
1.20578
1.20576
1.20574
1.20571
1.2057
1.20568
1.20566
1.20564
1.20563
1.20562
1.20561
1.2056
1.20559
1.20559
1.20559
1.20559
1.2056
1.2056
1.20562
1.20563
1.20565
1.20568
1.2057
1.20574
1.20577
1.20582
1.20587
1.20592
1.20598
1.20605
1.20612
1.2062
1.20629
1.20639
1.20649
1.2066
1.20672
1.20684
1.20698
1.20712
1.20728
1.20744
1.20761
1.20779
1.20798
1.20818
1.20839
1.20861
1.20884
1.20907
1.20932
1.20958
1.20984
1.21011
1.21039
1.21068
1.21098
1.21128
1.21159
1.2119
1.21222
1.21254
1.21287
1.2132
1.21353
1.21386
1.21419
1.21452
1.21485
1.21517
1.21549
1.21581
1.21611
1.21641
1.2167
1.21698
1.21726
1.21752
1.21777
1.218
1.21823
1.21844
1.21864
1.21883
1.219
1.21917
1.21931
1.21945
1.21958
1.21969
1.2198
1.21989
1.21997
1.22005
1.22011
1.22017
1.22021
1.22025
1.22028
1.22031
1.22033
1.22034
1.22035
1.22035
1.22034
1.22033
1.22032
1.2203
1.22028
1.22025
1.22022
1.22018
1.22014
1.2201
1.22005
1.22
1.21995
1.21989
1.21983
1.21977
1.2197
1.21963
1.21956
1.21949
1.21942
1.21935
1.21928
1.21921
1.21914
1.21907
1.219
1.21894
1.21889
1.21883
1.21879
1.21875
1.21872
1.21869
1.21868
1.21868
1.21869
1.21871
1.21875
1.2188
1.21886
1.21894
1.21904
1.21916
1.2193
1.21946
1.21964
1.21985
1.22007
1.22032
1.2206
1.2209
1.22124
1.22159
1.22198
1.2224
1.22285
1.22333
1.22384
1.22439
1.22497
1.22559
1.22624
1.22694
1.22767
1.22844
1.22926
1.23013
1.23104
1.232
1.23302
1.2341
1.23524
1.23645
1.23774
1.2391
1.24057
1.24213
1.24381
1.24562
1.24757
1.24965
1.25188
1.25421
1.25657
1.25883
1.26079
1.26218
1.26272
1.26249
1.19703
1.19656
1.19645
1.19663
1.19702
1.19755
1.19813
1.19871
1.19927
1.19978
1.20025
1.20066
1.20103
1.20135
1.20163
1.20188
1.2021
1.20228
1.20244
1.20258
1.2027
1.2028
1.20289
1.20296
1.20302
1.20307
1.20311
1.20314
1.20316
1.20318
1.20318
1.20318
1.20318
1.20317
1.20315
1.20313
1.20311
1.20308
1.20305
1.20302
1.20299
1.20295
1.20291
1.20288
1.20284
1.2028
1.20276
1.20272
1.20268
1.20265
1.20261
1.20258
1.20256
1.20253
1.20251
1.20249
1.20248
1.20247
1.20247
1.20248
1.20249
1.2025
1.20252
1.20256
1.20259
1.20264
1.20269
1.20275
1.20282
1.2029
1.20298
1.20307
1.20317
1.20328
1.2034
1.20352
1.20365
1.20379
1.20393
1.20408
1.20424
1.20441
1.20458
1.20475
1.20493
1.20512
1.20531
1.20551
1.20571
1.20591
1.20611
1.20632
1.20653
1.20674
1.20694
1.20715
1.20735
1.20756
1.20776
1.20796
1.20815
1.20834
1.20852
1.2087
1.20887
1.20904
1.2092
1.20936
1.2095
1.20964
1.20976
1.20988
1.20999
1.21009
1.21017
1.21025
1.21031
1.21037
1.21041
1.21044
1.21046
1.21047
1.21047
1.21046
1.21044
1.21041
1.21037
1.21033
1.21028
1.21022
1.21016
1.21009
1.21002
1.20995
1.20987
1.20978
1.2097
1.20961
1.20952
1.20943
1.20934
1.20925
1.20916
1.20907
1.20897
1.20888
1.20879
1.2087
1.20861
1.20852
1.20844
1.20835
1.20827
1.20818
1.2081
1.20802
1.20794
1.20787
1.20779
1.20772
1.20765
1.20758
1.20751
1.20745
1.20738
1.20732
1.20726
1.2072
1.20715
1.20709
1.20704
1.20698
1.20693
1.20689
1.20684
1.20679
1.20675
1.2067
1.20666
1.20662
1.20658
1.20654
1.2065
1.20647
1.20643
1.20639
1.20636
1.20633
1.20629
1.20626
1.20623
1.2062
1.20617
1.20614
1.20611
1.20608
1.20605
1.20602
1.20599
1.20596
1.20593
1.20591
1.20588
1.20586
1.20583
1.20581
1.20578
1.20576
1.20574
1.20571
1.20569
1.20568
1.20566
1.20564
1.20563
1.20561
1.2056
1.20559
1.20559
1.20558
1.20558
1.20558
1.20559
1.20559
1.20561
1.20562
1.20564
1.20566
1.20569
1.20572
1.20576
1.2058
1.20585
1.2059
1.20596
1.20603
1.2061
1.20618
1.20627
1.20636
1.20646
1.20657
1.20669
1.20682
1.20695
1.2071
1.20725
1.20741
1.20758
1.20776
1.20795
1.20815
1.20836
1.20858
1.20881
1.20905
1.2093
1.20955
1.20982
1.21009
1.21037
1.21066
1.21096
1.21127
1.21158
1.2119
1.21222
1.21254
1.21287
1.21321
1.21354
1.21388
1.21421
1.21454
1.21487
1.2152
1.21552
1.21584
1.21615
1.21645
1.21674
1.21703
1.2173
1.21756
1.21781
1.21805
1.21827
1.21848
1.21868
1.21887
1.21904
1.2192
1.21935
1.21949
1.21961
1.21972
1.21982
1.21991
1.21999
1.22006
1.22013
1.22018
1.22022
1.22026
1.22029
1.22032
1.22033
1.22034
1.22035
1.22035
1.22034
1.22033
1.22032
1.2203
1.22027
1.22024
1.22021
1.22018
1.22014
1.22009
1.22004
1.21999
1.21994
1.21988
1.21982
1.21976
1.21969
1.21962
1.21955
1.21948
1.21941
1.21934
1.21926
1.21919
1.21912
1.21905
1.21898
1.21892
1.21886
1.2188
1.21875
1.21871
1.21868
1.21865
1.21864
1.21863
1.21864
1.21866
1.21869
1.21874
1.2188
1.21888
1.21898
1.2191
1.21923
1.21939
1.21957
1.21977
1.22
1.22025
1.22052
1.22082
1.22115
1.22151
1.22189
1.2223
1.22275
1.22323
1.22374
1.22428
1.22486
1.22547
1.22612
1.2268
1.22753
1.22829
1.2291
1.22995
1.23085
1.23179
1.23279
1.23384
1.23495
1.23612
1.23736
1.23867
1.24006
1.24153
1.2431
1.24476
1.24652
1.24836
1.25028
1.25221
1.25408
1.25578
1.25714
1.25804
1.25834
1.25802
1.19807
1.19768
1.19753
1.19759
1.19783
1.19818
1.19859
1.19904
1.19948
1.19991
1.2003
1.20067
1.20099
1.20129
1.20155
1.20178
1.20199
1.20217
1.20233
1.20246
1.20258
1.20269
1.20277
1.20285
1.20291
1.20296
1.203
1.20304
1.20306
1.20308
1.20309
1.20309
1.20309
1.20308
1.20307
1.20305
1.20303
1.203
1.20297
1.20294
1.20291
1.20288
1.20284
1.2028
1.20276
1.20273
1.20269
1.20265
1.20261
1.20258
1.20255
1.20252
1.20249
1.20246
1.20244
1.20243
1.20241
1.20241
1.2024
1.20241
1.20242
1.20244
1.20246
1.20249
1.20253
1.20258
1.20263
1.20269
1.20276
1.20284
1.20292
1.20302
1.20312
1.20323
1.20335
1.20347
1.2036
1.20374
1.20389
1.20404
1.2042
1.20437
1.20454
1.20472
1.2049
1.20509
1.20529
1.20549
1.20569
1.20589
1.2061
1.20631
1.20652
1.20673
1.20694
1.20715
1.20736
1.20756
1.20776
1.20796
1.20816
1.20835
1.20854
1.20872
1.20889
1.20906
1.20922
1.20938
1.20952
1.20966
1.20979
1.20991
1.21001
1.21011
1.2102
1.21027
1.21034
1.21039
1.21043
1.21046
1.21048
1.21049
1.21048
1.21047
1.21045
1.21042
1.21038
1.21033
1.21028
1.21022
1.21015
1.21008
1.21001
1.20993
1.20985
1.20976
1.20968
1.20959
1.2095
1.20941
1.20932
1.20922
1.20913
1.20904
1.20895
1.20886
1.20877
1.20868
1.20859
1.2085
1.20841
1.20833
1.20824
1.20816
1.20808
1.208
1.20793
1.20785
1.20778
1.20771
1.20763
1.20757
1.2075
1.20744
1.20737
1.20731
1.20725
1.20719
1.20714
1.20708
1.20703
1.20698
1.20693
1.20688
1.20684
1.20679
1.20675
1.2067
1.20666
1.20662
1.20658
1.20654
1.20651
1.20647
1.20643
1.2064
1.20636
1.20633
1.2063
1.20626
1.20623
1.2062
1.20617
1.20614
1.20611
1.20608
1.20605
1.20602
1.20599
1.20597
1.20594
1.20591
1.20588
1.20586
1.20583
1.20581
1.20578
1.20576
1.20574
1.20571
1.20569
1.20567
1.20565
1.20564
1.20562
1.20561
1.2056
1.20559
1.20558
1.20557
1.20557
1.20557
1.20557
1.20558
1.20559
1.20561
1.20562
1.20564
1.20567
1.2057
1.20574
1.20578
1.20583
1.20588
1.20594
1.206
1.20607
1.20615
1.20624
1.20633
1.20643
1.20654
1.20666
1.20678
1.20692
1.20706
1.20721
1.20738
1.20755
1.20773
1.20792
1.20812
1.20833
1.20855
1.20877
1.20901
1.20926
1.20952
1.20979
1.21006
1.21035
1.21064
1.21094
1.21125
1.21156
1.21188
1.21221
1.21254
1.21287
1.21321
1.21354
1.21388
1.21422
1.21456
1.21489
1.21522
1.21555
1.21587
1.21618
1.21649
1.21678
1.21707
1.21734
1.21761
1.21786
1.2181
1.21832
1.21853
1.21873
1.21892
1.21909
1.21925
1.21939
1.21952
1.21965
1.21975
1.21985
1.21994
1.22002
1.22009
1.22015
1.2202
1.22024
1.22027
1.2203
1.22032
1.22034
1.22035
1.22035
1.22035
1.22034
1.22033
1.22031
1.22029
1.22027
1.22024
1.22021
1.22017
1.22013
1.22009
1.22004
1.21999
1.21993
1.21988
1.21981
1.21975
1.21968
1.21961
1.21954
1.21947
1.2194
1.21932
1.21924
1.21917
1.2191
1.21902
1.21895
1.21889
1.21883
1.21877
1.21872
1.21867
1.21864
1.21861
1.21859
1.21858
1.21858
1.2186
1.21863
1.21868
1.21874
1.21881
1.21891
1.21902
1.21915
1.21931
1.21948
1.21968
1.2199
1.22015
1.22042
1.22072
1.22104
1.22139
1.22177
1.22219
1.22263
1.2231
1.2236
1.22414
1.22471
1.22531
1.22596
1.22663
1.22735
1.2281
1.22889
1.22973
1.23061
1.23153
1.2325
1.23352
1.23459
1.23571
1.2369
1.23814
1.23945
1.24083
1.24228
1.24379
1.24536
1.24697
1.2486
1.25019
1.25167
1.25295
1.25393
1.25453
1.25468
1.25433
1.19887
1.19853
1.19837
1.19837
1.19851
1.19874
1.19904
1.19937
1.19972
1.20007
1.2004
1.20071
1.201
1.20127
1.20151
1.20172
1.20191
1.20208
1.20223
1.20237
1.20248
1.20259
1.20267
1.20275
1.20281
1.20286
1.2029
1.20294
1.20296
1.20298
1.20299
1.203
1.203
1.20299
1.20298
1.20296
1.20294
1.20292
1.20289
1.20286
1.20283
1.2028
1.20276
1.20273
1.20269
1.20265
1.20261
1.20258
1.20254
1.20251
1.20247
1.20244
1.20242
1.20239
1.20237
1.20236
1.20234
1.20234
1.20234
1.20234
1.20235
1.20237
1.20239
1.20243
1.20246
1.20251
1.20257
1.20263
1.2027
1.20278
1.20287
1.20296
1.20306
1.20318
1.20329
1.20342
1.20355
1.2037
1.20384
1.204
1.20416
1.20433
1.2045
1.20468
1.20487
1.20506
1.20526
1.20546
1.20566
1.20587
1.20608
1.20629
1.20651
1.20672
1.20693
1.20715
1.20736
1.20756
1.20777
1.20797
1.20817
1.20836
1.20855
1.20873
1.20891
1.20908
1.20924
1.2094
1.20955
1.20968
1.20981
1.20993
1.21004
1.21014
1.21023
1.2103
1.21037
1.21042
1.21046
1.21048
1.2105
1.2105
1.2105
1.21048
1.21046
1.21042
1.21038
1.21033
1.21027
1.21021
1.21014
1.21007
1.20999
1.20991
1.20983
1.20974
1.20966
1.20957
1.20948
1.20938
1.20929
1.2092
1.20911
1.20901
1.20892
1.20883
1.20874
1.20865
1.20856
1.20848
1.20839
1.20831
1.20822
1.20814
1.20806
1.20798
1.20791
1.20783
1.20776
1.20769
1.20762
1.20755
1.20749
1.20743
1.20736
1.2073
1.20724
1.20719
1.20713
1.20708
1.20703
1.20698
1.20693
1.20688
1.20684
1.20679
1.20675
1.20671
1.20666
1.20662
1.20658
1.20655
1.20651