# vtk DataFile Version 2.0
LBE mesh
ASCII
DATASET STRUCTURED_POINTS
DIMENSIONS 400 100 1
ASPECT_RATIO 1 1 1
ORIGIN 0 0 0
POINT_DATA 40000
SCALARS rho double 1
LOOKUP_TABLE default
1.20656
1.30816
1.3368
1.34143
1.34348
1.34555
1.34712
1.34814
1.34881
1.34932
1.34971
1.35003
1.35028
1.35049
1.35066
1.3508
1.35092
1.35102
1.35111
1.35118
1.35123
1.35128
1.35132
1.35135
1.35137
1.35138
1.35138
1.35139
1.35138
1.35137
1.35136
1.35134
1.35131
1.35129
1.35126
1.35123
1.3512
1.35116
1.35113
1.35109
1.35105
1.35102
1.35098
1.35094
1.35091
1.35088
1.35085
1.35082
1.35079
1.35077
1.35076
1.35074
1.35074
1.35073
1.35074
1.35075
1.35076
1.35078
1.35081
1.35085
1.3509
1.35095
1.35102
1.35109
1.35117
1.35126
1.35136
1.35146
1.35158
1.35171
1.35184
1.35199
1.35214
1.35231
1.35248
1.35267
1.35286
1.35306
1.35327
1.35349
1.35371
1.35395
1.35419
1.35444
1.3547
1.35496
1.35523
1.35551
1.35579
1.35608
1.35638
1.35667
1.35697
1.35728
1.35759
1.3579
1.35821
1.35852
1.35883
1.35914
1.35945
1.35975
1.36006
1.36036
1.36066
1.36095
1.36124
1.36152
1.36179
1.36206
1.36232
1.36257
1.36281
1.36305
1.36327
1.36348
1.36369
1.36388
1.36406
1.36423
1.36439
1.36454
1.36468
1.3648
1.36492
1.36503
1.36513
1.36521
1.36529
1.36536
1.36543
1.36548
1.36553
1.36557
1.36561
1.36564
1.36566
1.36568
1.3657
1.36571
1.36572
1.36572
1.36572
1.36572
1.36572
1.36571
1.3657
1.36569
1.36568
1.36566
1.36565
1.36563
1.36561
1.36559
1.36557
1.36555
1.36553
1.3655
1.36548
1.36546
1.36543
1.36541
1.36538
1.36536
1.36533
1.36531
1.36528
1.36525
1.36523
1.3652
1.36517
1.36515
1.36512
1.36509
1.36507
1.36504
1.36501
1.36499
1.36496
1.36494
1.36491
1.36489
1.36486
1.36484
1.36481
1.36479
1.36477
1.36475
1.36473
1.36471
1.36469
1.36467
1.36466
1.36464
1.36463
1.36462
1.36461
1.3646
1.3646
1.36459
1.36459
1.36459
1.3646
1.3646
1.36461
1.36462
1.36464
1.36466
1.36468
1.3647
1.36473
1.36476
1.3648
1.36484
1.36488
1.36493
1.36498
1.36504
1.3651
1.36517
1.36524
1.36532
1.3654
1.36549
1.36559
1.36569
1.3658
1.36591
1.36604
1.36616
1.3663
1.36644
1.36659
1.36674
1.36691
1.36708
1.36726
1.36744
1.36764
1.36784
1.36805
1.36827
1.3685
1.36873
1.36898
1.36923
1.36949
1.36976
1.37003
1.37032
1.37061
1.37091
1.37122
1.37154
1.37187
1.3722
1.37254
1.37289
1.37324
1.3736
1.37397
1.37434
1.37472
1.3751
1.37548
1.37587
1.37626
1.37666
1.37706
1.37745
1.37785
1.37825
1.37864
1.37904
1.37943
1.37981
1.3802
1.38057
1.38094
1.38131
1.38166
1.38201
1.38235
1.38268
1.383
1.38331
1.38361
1.3839
1.38418
1.38445
1.3847
1.38495
1.38518
1.38541
1.38562
1.38583
1.38602
1.38621
1.38639
1.38656
1.38672
1.38688
1.38703
1.38717
1.38731
1.38744
1.38756
1.38769
1.3878
1.38792
1.38803
1.38813
1.38824
1.38834
1.38843
1.38853
1.38862
1.38871
1.3888
1.38889
1.38897
1.38905
1.38913
1.38921
1.38929
1.38937
1.38945
1.38953
1.3896
1.38968
1.38976
1.38984
1.38992
1.39
1.39009
1.39017
1.39026
1.39036
1.39046
1.39056
1.39067
1.39079
1.39091
1.39105
1.39119
1.39134
1.3915
1.39167
1.39185
1.39205
1.39226
1.39249
1.39273
1.39298
1.39326
1.39355
1.39386
1.3942
1.39455
1.39492
1.39532
1.39575
1.39619
1.39667
1.39717
1.3977
1.39826
1.39885
1.39947
1.40012
1.40081
1.40154
1.40231
1.40311
1.40396
1.40486
1.4058
1.40679
1.40784
1.40895
1.41013
1.41138
1.4127
1.41412
1.41565
1.41729
1.41906
1.421
1.42312
1.42548
1.42812
1.43112
1.43459
1.4387
1.4437
1.45015
1.45916
1.47186
1.49008
1.52632
1.301
1.30844
1.32189
1.33421
1.34046
1.34345
1.34527
1.34659
1.34758
1.34832
1.34887
1.34931
1.34966
1.34995
1.35018
1.35038
1.35054
1.35068
1.3508
1.35089
1.35097
1.35104
1.3511
1.35114
1.35117
1.3512
1.35122
1.35123
1.35123
1.35123
1.35122
1.35121
1.3512
1.35118
1.35115
1.35113
1.3511
1.35107
1.35104
1.35101
1.35097
1.35094
1.35091
1.35088
1.35084
1.35081
1.35079
1.35076
1.35074
1.35072
1.35071
1.3507
1.35069
1.35069
1.3507
1.35071
1.35073
1.35076
1.35079
1.35083
1.35088
1.35094
1.351
1.35107
1.35116
1.35125
1.35135
1.35146
1.35158
1.35171
1.35184
1.35199
1.35215
1.35232
1.35249
1.35268
1.35287
1.35307
1.35328
1.3535
1.35373
1.35396
1.35421
1.35446
1.35472
1.35498
1.35525
1.35553
1.35581
1.3561
1.35639
1.35669
1.35699
1.3573
1.3576
1.35791
1.35822
1.35853
1.35884
1.35915
1.35946
1.35977
1.36007
1.36037
1.36066
1.36096
1.36124
1.36152
1.36179
1.36206
1.36232
1.36257
1.36281
1.36304
1.36326
1.36347
1.36367
1.36386
1.36404
1.36421
1.36437
1.36452
1.36465
1.36478
1.3649
1.365
1.3651
1.36519
1.36526
1.36534
1.3654
1.36545
1.3655
1.36554
1.36558
1.36561
1.36563
1.36565
1.36567
1.36568
1.36569
1.36569
1.3657
1.36569
1.36569
1.36568
1.36567
1.36566
1.36565
1.36564
1.36562
1.36561
1.36559
1.36557
1.36555
1.36553
1.36551
1.36549
1.36546
1.36544
1.36542
1.36539
1.36537
1.36534
1.36532
1.36529
1.36527
1.36524
1.36521
1.36519
1.36516
1.36513
1.36511
1.36508
1.36505
1.36503
1.365
1.36498
1.36495
1.36493
1.3649
1.36488
1.36485
1.36483
1.3648
1.36478
1.36476
1.36474
1.36472
1.3647
1.36468
1.36467
1.36465
1.36464
1.36463
1.36461
1.36461
1.3646
1.36459
1.36459
1.36459
1.36459
1.36459
1.3646
1.36461
1.36462
1.36464
1.36465
1.36468
1.3647
1.36473
1.36476
1.3648
1.36484
1.36488
1.36493
1.36499
1.36504
1.36511
1.36518
1.36525
1.36533
1.36541
1.3655
1.3656
1.3657
1.36581
1.36593
1.36605
1.36618
1.36631
1.36646
1.3666
1.36676
1.36693
1.3671
1.36728
1.36747
1.36766
1.36786
1.36807
1.36829
1.36852
1.36876
1.369
1.36926
1.36952
1.36979
1.37006
1.37035
1.37064
1.37095
1.37126
1.37158
1.3719
1.37223
1.37257
1.37292
1.37328
1.37364
1.374
1.37437
1.37475
1.37513
1.37552
1.37591
1.3763
1.37669
1.37709
1.37748
1.37788
1.37828
1.37867
1.37906
1.37945
1.37984
1.38022
1.38059
1.38096
1.38132
1.38168
1.38202
1.38236
1.38269
1.38301
1.38332
1.38361
1.3839
1.38418
1.38444
1.38469
1.38494
1.38517
1.3854
1.38561
1.38581
1.38601
1.3862
1.38637
1.38654
1.38671
1.38686
1.38701
1.38715
1.38729
1.38742
1.38755
1.38767
1.38779
1.3879
1.38801
1.38812
1.38822
1.38832
1.38842
1.38851
1.38861
1.3887
1.38879
1.38887
1.38896
1.38904
1.38912
1.3892
1.38928
1.38936
1.38944
1.38952
1.38959
1.38967
1.38975
1.38983
1.38991
1.38999
1.39008
1.39017
1.39026
1.39036
1.39046
1.39056
1.39067
1.39079
1.39092
1.39105
1.3912
1.39135
1.39151
1.39168
1.39187
1.39207
1.39228
1.39251
1.39275
1.39301
1.39329
1.39359
1.3939
1.39424
1.3946
1.39497
1.39538
1.3958
1.39625
1.39673
1.39724
1.39777
1.39834
1.39893
1.39956
1.40022
1.40091
1.40165
1.40242
1.40323
1.40409
1.40499
1.40594
1.40694
1.408
1.40912
1.41031
1.41158
1.41292
1.41437
1.41591
1.41758
1.4194
1.42138
1.42357
1.426
1.42874
1.43188
1.43554
1.43991
1.44531
1.45213
1.46097
1.47387
1.49655
1.5326
1.32305
1.31835
1.32682
1.33404
1.3384
1.34154
1.34382
1.34542
1.34658
1.34745
1.34813
1.34866
1.3491
1.34945
1.34974
1.34998
1.35019
1.35036
1.3505
1.35062
1.35073
1.35081
1.35088
1.35094
1.35099
1.35103
1.35106
1.35108
1.35109
1.3511
1.3511
1.35109
1.35108
1.35107
1.35105
1.35103
1.351
1.35098
1.35095
1.35092
1.35089
1.35086
1.35083
1.35081
1.35078
1.35075
1.35073
1.3507
1.35069
1.35067
1.35066
1.35065
1.35065
1.35065
1.35066
1.35067
1.35069
1.35072
1.35076
1.3508
1.35085
1.35091
1.35098
1.35105
1.35114
1.35123
1.35133
1.35144
1.35157
1.3517
1.35184
1.35199
1.35214
1.35231
1.35249
1.35267
1.35287
1.35307
1.35328
1.35351
1.35373
1.35397
1.35421
1.35447
1.35473
1.35499
1.35526
1.35554
1.35583
1.35612
1.35641
1.35671
1.35701
1.35731
1.35762
1.35793
1.35824
1.35855
1.35886
1.35917
1.35947
1.35978
1.36008
1.36038
1.36068
1.36097
1.36125
1.36153
1.3618
1.36207
1.36232
1.36257
1.36281
1.36304
1.36326
1.36347
1.36367
1.36386
1.36403
1.3642
1.36436
1.3645
1.36464
1.36476
1.36488
1.36498
1.36508
1.36517
1.36524
1.36531
1.36537
1.36543
1.36548
1.36552
1.36555
1.36558
1.36561
1.36563
1.36564
1.36566
1.36566
1.36567
1.36567
1.36567
1.36566
1.36566
1.36565
1.36564
1.36563
1.36561
1.3656
1.36558
1.36557
1.36555
1.36553
1.36551
1.36549
1.36547
1.36544
1.36542
1.3654
1.36537
1.36535
1.36532
1.3653
1.36527
1.36525
1.36522
1.3652
1.36517
1.36514
1.36512
1.36509
1.36507
1.36504
1.36501
1.36499
1.36496
1.36494
1.36491
1.36489
1.36486
1.36484
1.36482
1.36479
1.36477
1.36475
1.36473
1.36471
1.36469
1.36467
1.36466
1.36464
1.36463
1.36462
1.36461
1.3646
1.36459
1.36459
1.36458
1.36458
1.36458
1.36459
1.36459
1.3646
1.36462
1.36463
1.36465
1.36467
1.3647
1.36473
1.36476
1.3648
1.36484
1.36488
1.36493
1.36499
1.36504
1.36511
1.36518
1.36525
1.36533
1.36542
1.36551
1.3656
1.36571
1.36582
1.36593
1.36606
1.36618
1.36632
1.36646
1.36661
1.36677
1.36694
1.36711
1.36729
1.36748
1.36767
1.36788
1.36809
1.36831
1.36854
1.36878
1.36902
1.36927
1.36954
1.36981
1.37009
1.37037
1.37067
1.37097
1.37128
1.3716
1.37193
1.37226
1.3726
1.37295
1.3733
1.37366
1.37403
1.3744
1.37478
1.37516
1.37555
1.37594
1.37633
1.37672
1.37712
1.37752
1.37791
1.37831
1.3787
1.37909
1.37948
1.37987
1.38024
1.38062
1.38099
1.38135
1.3817
1.38204
1.38238
1.38271
1.38302
1.38333
1.38362
1.38391
1.38418
1.38445
1.3847
1.38494
1.38517
1.38539
1.38561
1.38581
1.386
1.38619
1.38636
1.38653
1.3867
1.38685
1.387
1.38714
1.38728
1.38741
1.38753
1.38766
1.38777
1.38789
1.388
1.3881
1.38821
1.38831
1.38841
1.3885
1.38859
1.38868
1.38877
1.38886
1.38894
1.38903
1.38911
1.38919
1.38927
1.38935
1.38943
1.3895
1.38958
1.38966
1.38974
1.38982
1.3899
1.38998
1.39007
1.39016
1.39025
1.39035
1.39045
1.39056
1.39067
1.39079
1.39091
1.39105
1.39119
1.39135
1.39151
1.39169
1.39187
1.39208
1.39229
1.39252
1.39277
1.39303
1.39331
1.3936
1.39392
1.39426
1.39462
1.395
1.39541
1.39583
1.39629
1.39677
1.39728
1.39782
1.39838
1.39898
1.39961
1.40028
1.40097
1.40171
1.40249
1.4033
1.40416
1.40507
1.40603
1.40703
1.4081
1.40923
1.41042
1.41169
1.41305
1.4145
1.41606
1.41774
1.41957
1.42156
1.42376
1.42622
1.42898
1.43213
1.43579
1.44011
1.44533
1.45188
1.46035
1.47097
1.48251
1.4936
1.33075
1.32944
1.33191
1.3348
1.33827
1.34109
1.34313
1.34466
1.34585
1.34679
1.34753
1.34813
1.34861
1.34901
1.34934
1.34962
1.34986
1.35006
1.35023
1.35037
1.35049
1.3506
1.35068
1.35076
1.35081
1.35086
1.3509
1.35093
1.35095
1.35096
1.35097
1.35097
1.35097
1.35096
1.35095
1.35093
1.35091
1.35089
1.35086
1.35084
1.35081
1.35079
1.35076
1.35073
1.35071
1.35068
1.35066
1.35064
1.35063
1.35061
1.3506
1.3506
1.3506
1.3506
1.35061
1.35063
1.35065
1.35068
1.35072
1.35076
1.35081
1.35088
1.35094
1.35102
1.35111
1.3512
1.35131
1.35142
1.35154
1.35168
1.35182
1.35197
1.35213
1.3523
1.35248
1.35267
1.35286
1.35307
1.35328
1.3535
1.35373
1.35397
1.35422
1.35447
1.35473
1.355
1.35527
1.35555
1.35583
1.35612
1.35642
1.35672
1.35702
1.35733
1.35763
1.35794
1.35825
1.35856
1.35887
1.35918
1.35949
1.3598
1.3601
1.3604
1.36069
1.36098
1.36126
1.36154
1.36181
1.36208
1.36233
1.36258
1.36282
1.36305
1.36327
1.36347
1.36367
1.36386
1.36404
1.3642
1.36436
1.3645
1.36463
1.36476
1.36487
1.36497
1.36507
1.36515
1.36523
1.3653
1.36536
1.36541
1.36546
1.3655
1.36553
1.36556
1.36559
1.3656
1.36562
1.36563
1.36564
1.36564
1.36564
1.36564
1.36564
1.36563
1.36563
1.36562
1.3656
1.36559
1.36558
1.36556
1.36554
1.36552
1.36551
1.36549
1.36546
1.36544
1.36542
1.3654
1.36538
1.36535
1.36533
1.3653
1.36528
1.36526
1.36523
1.3652
1.36518
1.36515
1.36513
1.3651
1.36508
1.36505
1.36502
1.365
1.36497
1.36495
1.36492
1.3649
1.36487
1.36485
1.36482
1.3648
1.36478
1.36476
1.36474
1.36472
1.3647
1.36468
1.36466
1.36464
1.36463
1.36462
1.3646
1.36459
1.36459
1.36458
1.36457
1.36457
1.36457
1.36457
1.36458
1.36458
1.36459
1.36461
1.36462
1.36464
1.36466
1.36469
1.36472
1.36475
1.36479
1.36483
1.36488
1.36493
1.36498
1.36504
1.3651
1.36517
1.36525
1.36533
1.36541
1.3655
1.3656
1.36571
1.36582
1.36593
1.36605
1.36618
1.36632
1.36646
1.36661
1.36677
1.36694
1.36711
1.36729
1.36748
1.36768
1.36788
1.3681
1.36832
1.36855
1.36878
1.36903
1.36928
1.36955
1.36982
1.3701
1.37039
1.37068
1.37099
1.3713
1.37162
1.37194
1.37228
1.37262
1.37297
1.37332
1.37369
1.37405
1.37443
1.37481
1.37519
1.37557
1.37596
1.37636
1.37675
1.37715
1.37754
1.37794
1.37834
1.37873
1.37912
1.37951
1.3799
1.38027
1.38065
1.38102
1.38138
1.38173
1.38207
1.3824
1.38273
1.38304
1.38335
1.38364
1.38393
1.3842
1.38446
1.38471
1.38495
1.38518
1.3854
1.38561
1.38581
1.386
1.38619
1.38636
1.38653
1.38669
1.38685
1.38699
1.38713
1.38727
1.3874
1.38753
1.38765
1.38776
1.38788
1.38799
1.38809
1.3882
1.3883
1.38839
1.38849
1.38858
1.38867
1.38876
1.38885
1.38893
1.38902
1.3891
1.38918
1.38926
1.38934
1.38941
1.38949
1.38957
1.38965
1.38973
1.38981
1.38989
1.38997
1.39006
1.39015
1.39024
1.39033
1.39044
1.39054
1.39065
1.39077
1.3909
1.39104
1.39118
1.39133
1.3915
1.39168
1.39186
1.39207
1.39228
1.39251
1.39276
1.39302
1.3933
1.3936
1.39392
1.39426
1.39462
1.395
1.39541
1.39584
1.3963
1.39678
1.39729
1.39783
1.3984
1.399
1.39963
1.4003
1.401
1.40174
1.40251
1.40333
1.4042
1.4051
1.40606
1.40707
1.40814
1.40926
1.41046
1.41173
1.41308
1.41453
1.41608
1.41775
1.41957
1.42155
1.42373
1.42614
1.42884
1.4319
1.43541
1.43948
1.44425
1.44985
1.45634
1.46356
1.46942
1.4696
1.33549
1.33506
1.33556
1.3372
1.33936
1.34128
1.34294
1.34433
1.34545
1.34636
1.3471
1.34772
1.34823
1.34865
1.34901
1.34931
1.34957
1.34979
1.34998
1.35014
1.35028
1.3504
1.3505
1.35058
1.35065
1.35071
1.35075
1.35079
1.35082
1.35084
1.35085
1.35086
1.35086
1.35085
1.35085
1.35083
1.35082
1.3508
1.35078
1.35076
1.35073
1.35071
1.35068
1.35066
1.35064
1.35062
1.3506
1.35058
1.35056
1.35055
1.35054
1.35054
1.35054
1.35055
1.35056
1.35058
1.3506
1.35063
1.35067
1.35072
1.35077
1.35083
1.3509
1.35098
1.35107
1.35117
1.35127
1.35139
1.35151
1.35165
1.35179
1.35195
1.35211
1.35228
1.35246
1.35265
1.35285
1.35305
1.35327
1.35349
1.35372
1.35396
1.35421
1.35446
1.35472
1.35499
1.35527
1.35555
1.35584
1.35613
1.35642
1.35672
1.35703
1.35733
1.35764
1.35795
1.35826
1.35858
1.35889
1.3592
1.35951
1.35981
1.36011
1.36041
1.36071
1.361
1.36128
1.36156
1.36183
1.3621
1.36235
1.3626
1.36284
1.36306
1.36328
1.36349
1.36369
1.36387
1.36405
1.36421
1.36436
1.3645
1.36464
1.36476
1.36487
1.36497
1.36506
1.36514
1.36522
1.36528
1.36534
1.3654
1.36544
1.36548
1.36551
1.36554
1.36557
1.36558
1.3656
1.36561
1.36562
1.36562
1.36562
1.36562
1.36562
1.36561
1.3656
1.36559
1.36558
1.36557
1.36555
1.36554
1.36552
1.3655
1.36548
1.36546
1.36544
1.36542
1.3654
1.36538
1.36535
1.36533
1.36531
1.36528
1.36526
1.36523
1.36521
1.36518
1.36516
1.36513
1.36511
1.36508
1.36506
1.36503
1.36501
1.36498
1.36496
1.36493
1.3649
1.36488
1.36486
1.36483
1.36481
1.36479
1.36476
1.36474
1.36472
1.3647
1.36468
1.36466
1.36465
1.36463
1.36462
1.3646
1.36459
1.36458
1.36457
1.36457
1.36456
1.36456
1.36456
1.36456
1.36456
1.36457
1.36458
1.36459
1.36461
1.36463
1.36465
1.36468
1.36471
1.36474
1.36478
1.36482
1.36486
1.36491
1.36497
1.36503
1.36509
1.36516
1.36524
1.36532
1.3654
1.36549
1.36559
1.3657
1.36581
1.36592
1.36605
1.36618
1.36631
1.36646
1.36661
1.36677
1.36693
1.36711
1.36729
1.36748
1.36767
1.36788
1.36809
1.36831
1.36854
1.36878
1.36903
1.36928
1.36955
1.36982
1.3701
1.37039
1.37068
1.37099
1.3713
1.37162
1.37195
1.37229
1.37263
1.37298
1.37334
1.3737
1.37407
1.37444
1.37482
1.37521
1.37559
1.37599
1.37638
1.37678
1.37717
1.37757
1.37797
1.37837
1.37876
1.37915
1.37954
1.37993
1.38031
1.38068
1.38105
1.38141
1.38176
1.3821
1.38244
1.38276
1.38307
1.38338
1.38367
1.38395
1.38422
1.38448
1.38473
1.38497
1.3852
1.38542
1.38562
1.38582
1.38601
1.3862
1.38637
1.38653
1.38669
1.38685
1.38699
1.38713
1.38727
1.3874
1.38752
1.38764
1.38776
1.38787
1.38798
1.38808
1.38819
1.38829
1.38838
1.38848
1.38857
1.38866
1.38875
1.38884
1.38892
1.389
1.38909
1.38917
1.38924
1.38932
1.3894
1.38948
1.38955
1.38963
1.38971
1.38979
1.38987
1.38995
1.39004
1.39013
1.39022
1.39031
1.39042
1.39052
1.39063
1.39075
1.39088
1.39101
1.39116
1.39131
1.39148
1.39165
1.39184
1.39204
1.39226
1.39249
1.39274
1.393
1.39328
1.39358
1.3939
1.39424
1.3946
1.39498
1.39539
1.39582
1.39628
1.39676
1.39727
1.39781
1.39838
1.39898
1.39962
1.40028
1.40098
1.40172
1.4025
1.40332
1.40418
1.40509
1.40604
1.40705
1.40811
1.40923
1.41042
1.41168
1.41302
1.41445
1.41598
1.41763
1.41941
1.42134
1.42346
1.42578
1.42836
1.43124
1.43448
1.43812
1.44222
1.44674
1.45138
1.45554
1.45841
1.45764
1.33902
1.33839
1.33847
1.33939
1.3406
1.34192
1.34321
1.34434
1.34531
1.34614
1.34685
1.34744
1.34795
1.34838
1.34874
1.34906
1.34933
1.34956
1.34976
1.34994
1.35008
1.35021
1.35032
1.35042
1.35049
1.35056
1.35061
1.35066
1.35069
1.35072
1.35073
1.35075
1.35075
1.35075
1.35075
1.35074
1.35073
1.35071
1.35069
1.35067
1.35065
1.35063
1.35061
1.35059
1.35056
1.35055
1.35053
1.35051
1.3505
1.35049
1.35048
1.35048
1.35048
1.35049
1.3505
1.35052
1.35055
1.35058
1.35062
1.35067
1.35072
1.35079
1.35086
1.35094
1.35103
1.35113
1.35123
1.35135
1.35148
1.35161
1.35176
1.35191
1.35208
1.35225
1.35243
1.35262
1.35282
1.35303
1.35325
1.35347
1.3537
1.35395
1.35419
1.35445
1.35471
1.35498
1.35526
1.35554
1.35583
1.35613
1.35642
1.35673
1.35703
1.35734
1.35765
1.35796
1.35828
1.35859
1.3589
1.35921
1.35952
1.35983
1.36013
1.36043
1.36073
1.36102
1.36131
1.36158
1.36186
1.36212
1.36238
1.36262
1.36286
1.36309
1.3633
1.36351
1.36371
1.36389
1.36406
1.36423
1.36438
1.36452
1.36465
1.36476
1.36487
1.36497
1.36506
1.36514
1.36521
1.36528
1.36534
1.36539
1.36543
1.36547
1.3655
1.36553
1.36555
1.36557
1.36558
1.36559
1.36559
1.3656
1.3656
1.3656
1.36559
1.36559
1.36558
1.36557
1.36555
1.36554
1.36553
1.36551
1.36549
1.36548
1.36546
1.36544
1.36542
1.3654
1.36538
1.36535
1.36533
1.36531
1.36528
1.36526
1.36524
1.36521
1.36519
1.36516
1.36514
1.36511
1.36509
1.36506
1.36504
1.36501
1.36499
1.36496
1.36494
1.36491
1.36489
1.36486
1.36484
1.36481
1.36479
1.36477
1.36474
1.36472
1.3647
1.36468
1.36466
1.36465
1.36463
1.36461
1.3646
1.36458
1.36457
1.36456
1.36455
1.36455
1.36454
1.36454
1.36454
1.36454
1.36455
1.36455
1.36456
1.36458
1.36459
1.36461
1.36463
1.36466
1.36469
1.36472
1.36476
1.3648
1.36485
1.3649
1.36495
1.36501
1.36507
1.36514
1.36522
1.3653
1.36539
1.36548
1.36558
1.36568
1.36579
1.36591
1.36603
1.36616
1.3663
1.36644
1.36659
1.36675
1.36692
1.36709
1.36727
1.36746
1.36766
1.36787
1.36808
1.3683
1.36853
1.36877
1.36902
1.36928
1.36954
1.36981
1.37009
1.37038
1.37068
1.37099
1.3713
1.37162
1.37195
1.37229
1.37263
1.37298
1.37334
1.37371
1.37408
1.37445
1.37483
1.37522
1.37561
1.376
1.3764
1.3768
1.3772
1.3776
1.378
1.37839
1.37879
1.37919
1.37958
1.37996
1.38034
1.38072
1.38109
1.38145
1.3818
1.38214
1.38248
1.3828
1.38311
1.38342
1.38371
1.38399
1.38426
1.38451
1.38476
1.385
1.38522
1.38544
1.38564
1.38584
1.38603
1.38621
1.38638
1.38654
1.3867
1.38685
1.387
1.38713
1.38727
1.3874
1.38752
1.38764
1.38775
1.38786
1.38797
1.38808
1.38818
1.38828
1.38838
1.38847
1.38856
1.38865
1.38874
1.38883
1.38891
1.38899
1.38907
1.38915
1.38923
1.38931
1.38939
1.38946
1.38954
1.38962
1.38969
1.38977
1.38985
1.38993
1.39002
1.39011
1.3902
1.39029
1.39039
1.3905
1.39061
1.39072
1.39085
1.39098
1.39113
1.39128
1.39144
1.39162
1.39181
1.39201
1.39222
1.39245
1.3927
1.39296
1.39324
1.39354
1.39386
1.3942
1.39456
1.39494
1.39535
1.39578
1.39624
1.39672
1.39723
1.39777
1.39834
1.39894
1.39957
1.40023
1.40093
1.40167
1.40244
1.40326
1.40412
1.40502
1.40597
1.40696
1.40802
1.40913
1.4103
1.41155
1.41287
1.41427
1.41577
1.41737
1.4191
1.42096
1.42298
1.42518
1.42759
1.43023
1.43313
1.43628
1.43964
1.44308
1.44634
1.44884
1.45013
1.44982
1.3414
1.34072
1.34067
1.34112
1.34184
1.34274
1.34368
1.34456
1.34538
1.3461
1.34673
1.34728
1.34776
1.34818
1.34854
1.34886
1.34913
1.34937
1.34958
1.34976
1.34991
1.35005
1.35017
1.35027
1.35035
1.35042
1.35048
1.35053
1.35057
1.3506
1.35063
1.35064
1.35065
1.35065
1.35065
1.35065
1.35064
1.35063
1.35061
1.35059
1.35057
1.35055
1.35053
1.35051
1.35049
1.35047
1.35046
1.35044
1.35043
1.35042
1.35042
1.35041
1.35042
1.35043
1.35044
1.35046
1.35049
1.35052
1.35056
1.35061
1.35067
1.35073
1.3508
1.35089
1.35098
1.35108
1.35119
1.35131
1.35143
1.35157
1.35172
1.35187
1.35204
1.35221
1.3524
1.35259
1.35279
1.353
1.35322
1.35345
1.35368
1.35392
1.35417
1.35443
1.3547
1.35497
1.35525
1.35553
1.35582
1.35612
1.35642
1.35672
1.35703
1.35734
1.35766
1.35797
1.35828
1.3586
1.35891
1.35923
1.35954
1.35985
1.36015
1.36046
1.36075
1.36105
1.36133
1.36161
1.36188
1.36215
1.3624
1.36265
1.36289
1.36312
1.36333
1.36354
1.36373
1.36392
1.36409
1.36425
1.3644
1.36454
1.36466
1.36478
1.36488
1.36498
1.36507
1.36515
1.36522
1.36528
1.36533
1.36538
1.36542
1.36546
1.36549
1.36551
1.36553
1.36555
1.36556
1.36557
1.36557
1.36558
1.36558
1.36557
1.36557
1.36556
1.36555
1.36554
1.36553
1.36552
1.3655
1.36549
1.36547
1.36545
1.36543
1.36541
1.36539
1.36537
1.36535
1.36533
1.36531
1.36528
1.36526
1.36524
1.36521
1.36519
1.36516
1.36514
1.36512
1.36509
1.36507
1.36504
1.36501
1.36499
1.36496
1.36494
1.36491
1.36489
1.36486
1.36484
1.36482
1.36479
1.36477
1.36475
1.36472
1.3647
1.36468
1.36466
1.36464
1.36463
1.36461
1.36459
1.36458
1.36456
1.36455
1.36454
1.36453
1.36453
1.36452
1.36452
1.36452
1.36452
1.36453
1.36453
1.36454
1.36456
1.36457
1.36459
1.36461
1.36464
1.36467
1.3647
1.36474
1.36478
1.36482
1.36487
1.36493
1.36499
1.36505
1.36512
1.3652
1.36528
1.36536
1.36545
1.36555
1.36566
1.36577
1.36588
1.36601
1.36614
1.36627
1.36642
1.36657
1.36673
1.36689
1.36707
1.36725
1.36744
1.36764
1.36784
1.36806
1.36828
1.36851
1.36875
1.369
1.36926
1.36952
1.36979
1.37008
1.37037
1.37066
1.37097
1.37129
1.37161
1.37194
1.37228
1.37263
1.37298
1.37334
1.3737
1.37408
1.37446
1.37484
1.37523
1.37562
1.37601
1.37641
1.37681
1.37721
1.37762
1.37802
1.37842
1.37882
1.37922
1.37961
1.38
1.38038
1.38076
1.38113
1.38149
1.38184
1.38219
1.38252
1.38285
1.38316
1.38346
1.38375
1.38403
1.3843
1.38455
1.3848
1.38503
1.38526
1.38547
1.38567
1.38587
1.38605
1.38623
1.3864
1.38656
1.38671
1.38686
1.387
1.38714
1.38727
1.3874
1.38752
1.38764
1.38775
1.38786
1.38797
1.38807
1.38818
1.38827
1.38837
1.38846
1.38856
1.38864
1.38873
1.38882
1.3889
1.38898
1.38906
1.38914
1.38922
1.3893
1.38937
1.38945
1.38952
1.3896
1.38968
1.38975
1.38983
1.38991
1.38999
1.39008
1.39017
1.39026
1.39036
1.39046
1.39057
1.39069
1.39081
1.39094
1.39109
1.39124
1.3914
1.39157
1.39176
1.39196
1.39217
1.3924
1.39264
1.3929
1.39318
1.39348
1.3938
1.39414
1.39449
1.39488
1.39528
1.39571
1.39617
1.39665
1.39716
1.39769
1.39826
1.39886
1.39949
1.40015
1.40084
1.40158
1.40235
1.40316
1.40401
1.4049
1.40584
1.40683
1.40786
1.40896
1.41011
1.41133
1.41262
1.41399
1.41544
1.41699
1.41865
1.42042
1.42232
1.42437
1.42658
1.42895
1.43149
1.43414
1.43684
1.43942
1.44166
1.44326
1.44389
1.44363
1.34303
1.34245
1.34232
1.3425
1.34295
1.34356
1.34423
1.34491
1.34557
1.34618
1.34673
1.34723
1.34767
1.34806
1.34841
1.34871
1.34898
1.34922
1.34942
1.34961
1.34977
1.34991
1.35003
1.35013
1.35022
1.3503
1.35036
1.35042
1.35046
1.35049
1.35052
1.35054
1.35055
1.35056
1.35056
1.35056
1.35055
1.35054
1.35053
1.35051
1.35049
1.35048
1.35046
1.35044
1.35042
1.3504
1.35039
1.35037
1.35036
1.35035
1.35035
1.35035
1.35035
1.35036
1.35038
1.3504
1.35042
1.35046
1.3505
1.35055
1.35061
1.35067
1.35075
1.35083
1.35092
1.35102
1.35113
1.35125
1.35138
1.35152
1.35167
1.35183
1.352
1.35217
1.35236
1.35255
1.35275
1.35297
1.35319
1.35341
1.35365
1.3539
1.35415
1.35441
1.35467
1.35495
1.35523
1.35552
1.35581
1.35611
1.35641
1.35672
1.35703
1.35734
1.35766
1.35797
1.35829
1.35861
1.35893
1.35924
1.35956
1.35987
1.36018
1.36048
1.36078
1.36107
1.36136
1.36164
1.36191
1.36218
1.36244
1.36269
1.36292
1.36315
1.36337
1.36357
1.36377
1.36395
1.36412
1.36428
1.36442
1.36456
1.36468
1.3648
1.3649
1.36499
1.36508
1.36515
1.36522
1.36528
1.36533
1.36538
1.36542
1.36545
1.36548
1.3655
1.36552
1.36553
1.36554
1.36555
1.36556
1.36556
1.36556
1.36555
1.36555
1.36554
1.36553
1.36552
1.3655
1.36549
1.36548
1.36546
1.36544
1.36542
1.36541
1.36539
1.36537
1.36535
1.36532
1.3653
1.36528
1.36526
1.36523
1.36521
1.36519
1.36516
1.36514
1.36512
1.36509
1.36507
1.36504
1.36502
1.36499
1.36497
1.36494
1.36492
1.36489
1.36487
1.36484
1.36482
1.36479
1.36477
1.36475
1.36472
1.3647
1.36468
1.36466
1.36464
1.36462
1.3646
1.36459
1.36457
1.36455
1.36454
1.36453
1.36452
1.36451
1.3645
1.3645
1.3645
1.3645
1.3645
1.3645
1.36451
1.36452
1.36453
1.36455
1.36457
1.36459
1.36461
1.36464
1.36467
1.36471
1.36475
1.3648
1.36485
1.3649
1.36496
1.36502
1.36509
1.36517
1.36525
1.36533
1.36543
1.36552
1.36563
1.36574
1.36585
1.36598
1.36611
1.36624
1.36639
1.36654
1.3667
1.36686
1.36704
1.36722
1.36741
1.36761
1.36781
1.36803
1.36825
1.36848
1.36872
1.36897
1.36923
1.36949
1.36977
1.37005
1.37034
1.37064
1.37095
1.37127
1.37159
1.37192
1.37226
1.37261
1.37297
1.37333
1.3737
1.37407
1.37445
1.37484
1.37523
1.37562
1.37602
1.37642
1.37682
1.37723
1.37764
1.37804
1.37845
1.37885
1.37925
1.37965
1.38004
1.38042
1.3808
1.38117
1.38154
1.38189
1.38224
1.38257
1.3829
1.38321
1.38351
1.3838
1.38408
1.38434
1.3846
1.38484
1.38507
1.38529
1.38551
1.38571
1.3859
1.38608
1.38625
1.38642
1.38658
1.38673
1.38688
1.38702
1.38715
1.38728
1.3874
1.38752
1.38764
1.38775
1.38786
1.38797
1.38807
1.38817
1.38827
1.38837
1.38846
1.38855
1.38864
1.38872
1.38881
1.38889
1.38897
1.38905
1.38913
1.38921
1.38928
1.38936
1.38943
1.38951
1.38958
1.38966
1.38973
1.38981
1.38989
1.38997
1.39005
1.39014
1.39023
1.39032
1.39043
1.39053
1.39065
1.39077
1.3909
1.39104
1.39119
1.39134
1.39152
1.3917
1.3919
1.39211
1.39233
1.39257
1.39283
1.39311
1.39341
1.39372
1.39406
1.39441
1.39479
1.39519
1.39562
1.39607
1.39655
1.39706
1.39759
1.39815
1.39875
1.39937
1.40003
1.40072
1.40145
1.40221
1.40301
1.40385
1.40473
1.40566
1.40663
1.40765
1.40873
1.40986
1.41104
1.4123
1.41362
1.41502
1.4165
1.41807
1.41974
1.42152
1.4234
1.4254
1.4275
1.42968
1.43188
1.43402
1.43596
1.43753
1.43856
1.43891
1.43855
1.34422
1.34375
1.34357
1.34363
1.3439
1.3443
1.34479
1.34531
1.34583
1.34633
1.34681
1.34724
1.34764
1.348
1.34832
1.34861
1.34887
1.3491
1.3493
1.34948
1.34964
1.34978
1.34991
1.35001
1.35011
1.35018
1.35025
1.35031
1.35035
1.35039
1.35042
1.35044
1.35046
1.35047
1.35047
1.35047
1.35047
1.35046
1.35045
1.35043
1.35042
1.3504
1.35038
1.35037
1.35035
1.35033
1.35032
1.3503
1.35029
1.35028
1.35028
1.35028
1.35029
1.3503
1.35031
1.35033
1.35036
1.35039
1.35044
1.35049
1.35054
1.35061
1.35069
1.35077
1.35086
1.35096
1.35108
1.3512
1.35133
1.35147
1.35162
1.35178
1.35195
1.35212
1.35231
1.35251
1.35271
1.35292
1.35315
1.35338
1.35361
1.35386
1.35411
1.35438
1.35465
1.35492
1.35521
1.3555
1.35579
1.35609
1.3564
1.35671
1.35702
1.35734
1.35766
1.35798
1.3583
1.35862
1.35894
1.35926
1.35957
1.35989
1.3602
1.3605
1.3608
1.3611
1.36139
1.36167
1.36195
1.36222
1.36247
1.36272
1.36296
1.36319
1.36341
1.36361
1.36381
1.36399
1.36416
1.36431
1.36446
1.36459
1.36471
1.36482
1.36492
1.36501
1.36509
1.36517
1.36523
1.36529
1.36533
1.36538
1.36541
1.36544
1.36547
1.36549
1.36551
1.36552
1.36553
1.36553
1.36554
1.36554
1.36553
1.36553
1.36552
1.36551
1.3655
1.36549
1.36548
1.36547
1.36545
1.36543
1.36542
1.3654
1.36538
1.36536
1.36534
1.36532
1.3653
1.36528
1.36525
1.36523
1.36521
1.36519
1.36516
1.36514
1.36511
1.36509
1.36506
1.36504
1.36502
1.36499
1.36497
1.36494
1.36492
1.36489
1.36487
1.36484
1.36482
1.36479
1.36477
1.36475
1.36472
1.3647
1.36468
1.36466
1.36464
1.36462
1.3646
1.36458
1.36456
1.36455
1.36453
1.36452
1.36451
1.36449
1.36449
1.36448
1.36447
1.36447
1.36447
1.36447
1.36448
1.36448
1.36449
1.3645
1.36452
1.36454
1.36456
1.36458
1.36461
1.36464
1.36468
1.36472
1.36477
1.36482
1.36487
1.36493
1.36499
1.36506
1.36513
1.36521
1.3653
1.36539
1.36549
1.36559
1.3657
1.36582
1.36594
1.36607
1.36621
1.36635
1.3665
1.36666
1.36682
1.367
1.36718
1.36737
1.36757
1.36777
1.36799
1.36821
1.36844
1.36868
1.36893
1.36919
1.36946
1.36973
1.37001
1.37031
1.37061
1.37092
1.37123
1.37156
1.37189
1.37223
1.37258
1.37294
1.3733
1.37368
1.37405
1.37444
1.37482
1.37522
1.37562
1.37602
1.37642
1.37683
1.37724
1.37765
1.37806
1.37847
1.37887
1.37928
1.37968
1.38007
1.38046
1.38085
1.38122
1.38159
1.38195
1.38229
1.38263
1.38295
1.38327
1.38357
1.38386
1.38413
1.3844
1.38465
1.38489
1.38512
1.38534
1.38555
1.38575
1.38593
1.38611
1.38628
1.38645
1.3866
1.38675
1.3869
1.38703
1.38716
1.38729
1.38741
1.38753
1.38765
1.38776
1.38787
1.38797
1.38807
1.38817
1.38827
1.38836
1.38845
1.38854
1.38863
1.38872
1.3888
1.38888
1.38896
1.38904
1.38912
1.3892
1.38927
1.38934
1.38942
1.38949
1.38956
1.38963
1.38971
1.38978
1.38986
1.38994
1.39002
1.3901
1.39019
1.39029
1.39038
1.39049
1.3906
1.39072
1.39084
1.39098
1.39113
1.39128
1.39145
1.39163
1.39182
1.39203
1.39226
1.39249
1.39275
1.39302
1.39332
1.39363
1.39396
1.39431
1.39469
1.39509
1.39551
1.39596
1.39643
1.39693
1.39746
1.39802
1.39861
1.39923
1.39988
1.40056
1.40128
1.40203
1.40282
1.40365
1.40452
1.40543
1.40638
1.40738
1.40843
1.40953
1.41068
1.4119
1.41317
1.4145
1.41591
1.41739
1.41895
1.42059
1.42231
1.42409
1.42593
1.42779
1.4296
1.43129
1.43276
1.43389
1.43457
1.43475
1.43435
1.34513
1.34474
1.34455
1.34455
1.3447
1.34497
1.34532
1.34571
1.34612
1.34653
1.34693
1.34731
1.34766
1.34799
1.34828
1.34855
1.34879
1.34901
1.34921
1.34939
1.34954
1.34968
1.3498
1.34991
1.35
1.35008
1.35015
1.35021
1.35026
1.3503
1.35033
1.35035
1.35037
1.35038
1.35039
1.35039
1.35038
1.35038
1.35037
1.35036
1.35034
1.35032
1.35031
1.35029
1.35027
1.35026
1.35024
1.35023
1.35022
1.35021
1.35021
1.35021
1.35022
1.35023
1.35024
1.35026
1.35029
1.35033
1.35037
1.35042
1.35048
1.35054
1.35062
1.35071
1.3508
1.3509
1.35102
1.35114
1.35127
1.35141
1.35156
1.35172
1.35189
1.35207
1.35226
1.35246
1.35266
1.35288
1.3531
1.35333
1.35357
1.35382
1.35408
1.35434
1.35461
1.35489
1.35518
1.35547
1.35577
1.35607
1.35638
1.35669
1.35701
1.35733
1.35765
1.35798
1.3583
1.35862
1.35895
1.35927
1.35959
1.3599
1.36022
1.36053
1.36083
1.36113
1.36142
1.36171
1.36198
1.36225
1.36251
1.36276
1.363
1.36323
1.36345
1.36366
1.36385
1.36403
1.3642
1.36435
1.36449
1.36462
1.36474
1.36485
1.36495
1.36503
1.36511
1.36518
1.36524
1.36529
1.36534
1.36538
1.36541
1.36544
1.36546
1.36548
1.3655
1.36551
1.36551
1.36552
1.36552
1.36552
1.36551
1.36551
1.3655
1.36549
1.36548
1.36547
1.36545
1.36544
1.36542
1.3654
1.36539
1.36537
1.36535
1.36533
1.36531
1.36529
1.36527
1.36525
1.36522
1.3652
1.36518
1.36516
1.36513
1.36511
1.36509
1.36506
1.36504
1.36501
1.36499
1.36496
1.36494
1.36491
1.36489
1.36486
1.36484
1.36482
1.36479
1.36477