# vtk DataFile Version 2.0
LBE mesh
ASCII
DATASET STRUCTURED_POINTS
DIMENSIONS 400 100 1
ASPECT_RATIO 1 1 1
ORIGIN 0 0 0
POINT_DATA 40000
SCALARS rho double 1
LOOKUP_TABLE default
0.946196
0.977225
0.987002
0.990702
0.992841
0.994188
0.995029
0.995567
0.995964
0.99628
0.996564
0.996815
0.997055
0.997265
0.997457
0.997606
0.997722
0.997779
0.997787
0.997723
0.997601
0.997401
0.997144
0.996815
0.996441
0.996015
0.995567
0.995094
0.994629
0.994169
0.993744
0.993349
0.993008
0.992713
0.992478
0.992292
0.992162
0.992075
0.992032
0.992021
0.992041
0.992081
0.99214
0.99221
0.992293
0.992386
0.992492
0.992612
0.992753
0.992919
0.993118
0.993355
0.993636
0.993965
0.994348
0.994787
0.995284
0.99584
0.996457
0.997136
0.997877
0.99868
0.999544
1.00047
1.00145
1.00248
1.00355
1.00466
1.00578
1.0069
1.00802
1.0091
1.01013
1.01111
1.01201
1.01282
1.01355
1.01419
1.01473
1.0152
1.01558
1.01588
1.01612
1.01631
1.01645
1.01654
1.01661
1.01664
1.01666
1.01665
1.01664
1.01661
1.01658
1.01654
1.0165
1.01646
1.01642
1.01638
1.01635
1.01632
1.01629
1.01627
1.01626
1.01625
1.01624
1.01624
1.01624
1.01624
1.01624
1.01625
1.01624
1.01624
1.01622
1.0162
1.01617
1.01612
1.01605
1.01597
1.01586
1.01572
1.01555
1.01535
1.01511
1.01483
1.01451
1.01415
1.01374
1.01329
1.01281
1.01229
1.01174
1.01117
1.01058
1.00999
1.00939
1.0088
1.00823
1.00768
1.00715
1.00665
1.00619
1.00575
1.00534
1.00497
1.00462
1.00431
1.00403
1.00379
1.00358
1.00342
1.00329
1.0032
1.00315
1.00313
1.00315
1.00319
1.00325
1.00334
1.00343
1.00353
1.00365
1.00377
1.0039
1.00404
1.00421
1.0044
1.00462
1.00489
1.0052
1.00557
1.00599
1.00646
1.00698
1.00756
1.00816
1.00879
1.00944
1.01008
1.0107
1.01129
1.01184
1.01234
1.01278
1.01316
1.01348
1.01375
1.01396
1.01412
1.01425
1.01434
1.0144
1.01445
1.01448
1.0145
1.01452
1.01453
1.01453
1.01453
1.01454
1.01454
1.01454
1.01454
1.01454
1.01454
1.01454
1.01454
1.01454
1.01454
1.01454
1.01454
1.01454
1.01454
1.01454
1.01454
1.01454
1.01454
1.01454
1.01454
1.01454
1.01454
1.01454
1.01454
1.01454
1.01454
1.01454
1.01454
1.01454
1.01454
1.01454
1.01454
1.01454
1.01454
1.01454
1.01454
1.01454
1.01454
1.01454
1.01454
1.01454
1.01454
1.01454
1.01454
1.01454
1.01454
1.01454
1.01454
1.01454
1.01455
1.01456
1.01457
1.01458
1.0146
1.01463
1.01467
1.01472
1.01478
1.01487
1.01497
1.0151
1.01525
1.01543
1.01563
1.01587
1.01614
1.01644
1.01677
1.01713
1.01752
1.01793
1.01837
1.01883
1.01931
1.0198
1.02031
1.02083
1.02136
1.02189
1.02244
1.02298
1.02354
1.02409
1.02464
1.02519
1.02574
1.02628
1.02681
1.02733
1.02784
1.02833
1.0288
1.02924
1.02966
1.03004
1.03038
1.03069
1.03096
1.03118
1.03136
1.03148
1.03156
1.0316
1.03158
1.03151
1.0314
1.03124
1.03104
1.03079
1.0305
1.03017
1.02981
1.02942
1.02899
1.02854
1.02807
1.02758
1.02707
1.02655
1.02602
1.02549
1.02496
1.02442
1.02389
1.02337
1.02285
1.02235
1.02187
1.02142
1.02101
1.02064
1.02032
1.02007
1.01989
1.01978
1.01977
1.01983
1.01997
1.02019
1.02046
1.02078
1.02112
1.02147
1.02182
1.02216
1.02246
1.02274
1.02299
1.0232
1.02339
1.02356
1.02371
1.02385
1.02399
1.02412
1.02426
1.02439
1.02453
1.02468
1.02483
1.02498
1.02514
1.0253
1.02546
1.02563
1.0258
1.02598
1.02616
1.02634
1.02653
1.02672
1.02692
1.02712
1.02733
1.02755
1.02778
1.02801
1.02826
1.02852
1.02879
1.02908
1.02939
1.02972
1.03007
1.03046
1.03088
1.03136
1.03189
1.03249
1.0332
1.03402
1.03501
1.03621
1.03768
1.03954
1.0419
1.04498
1.0492
1.05532
1.06417
1.0777
1.10594
0.958979
0.973022
0.982495
0.988069
0.99104
0.99276
0.99389
0.994675
0.995268
0.995725
0.996118
0.996445
0.996746
0.996994
0.997217
0.997382
0.997512
0.997571
0.997586
0.99752
0.997403
0.997203
0.996957
0.996634
0.996279
0.995868
0.995446
0.994994
0.994559
0.994122
0.993725
0.993349
0.993029
0.992745
0.992523
0.99234
0.992215
0.992125
0.992081
0.992064
0.992082
0.992116
0.992173
0.992241
0.992326
0.992421
0.992532
0.992659
0.99281
0.992986
0.993195
0.993442
0.993734
0.994072
0.994463
0.994907
0.995409
0.99597
0.99659
0.99727
0.998012
0.998815
0.999677
1.0006
1.00157
1.00259
1.00364
1.00473
1.00582
1.00692
1.00801
1.00906
1.01006
1.01101
1.01188
1.01268
1.01339
1.01402
1.01456
1.01501
1.01539
1.0157
1.01595
1.01614
1.01628
1.01639
1.01646
1.01651
1.01653
1.01654
1.01653
1.01651
1.01649
1.01646
1.01643
1.01639
1.01636
1.01633
1.0163
1.01627
1.01625
1.01623
1.01621
1.0162
1.01619
1.01619
1.01619
1.01619
1.01618
1.01618
1.01617
1.01616
1.01614
1.01611
1.01607
1.01602
1.01594
1.01585
1.01574
1.0156
1.01543
1.01522
1.01499
1.01471
1.0144
1.01405
1.01365
1.01322
1.01275
1.01225
1.01172
1.01117
1.0106
1.01002
1.00944
1.00887
1.00831
1.00776
1.00724
1.00674
1.00627
1.00584
1.00543
1.00505
1.00471
1.0044
1.00412
1.00387
1.00366
1.00349
1.00336
1.00326
1.0032
1.00318
1.00319
1.00323
1.00328
1.00336
1.00345
1.00356
1.00367
1.00379
1.00392
1.00407
1.00424
1.00444
1.00466
1.00493
1.00524
1.0056
1.00601
1.00647
1.00699
1.00754
1.00814
1.00875
1.00938
1.01001
1.01063
1.01121
1.01176
1.01226
1.0127
1.01309
1.01342
1.01369
1.01391
1.01408
1.01422
1.01431
1.01439
1.01444
1.01447
1.0145
1.01451
1.01452
1.01453
1.01453
1.01453
1.01453
1.01453
1.01453
1.01453
1.01453
1.01453
1.01453
1.01453
1.01453
1.01453
1.01453
1.01453
1.01453
1.01453
1.01453
1.01453
1.01453
1.01453
1.01453
1.01453
1.01453
1.01453
1.01453
1.01453
1.01453
1.01453
1.01453
1.01453
1.01453
1.01453
1.01453
1.01453
1.01453
1.01453
1.01453
1.01453
1.01453
1.01453
1.01453
1.01453
1.01454
1.01454
1.01454
1.01454
1.01454
1.01454
1.01454
1.01454
1.01455
1.01456
1.01457
1.01459
1.01461
1.01464
1.01469
1.01474
1.01482
1.01491
1.01502
1.01515
1.01531
1.0155
1.01571
1.01595
1.01623
1.01653
1.01686
1.01721
1.0176
1.018
1.01843
1.01888
1.01935
1.01983
1.02033
1.02083
1.02135
1.02187
1.0224
1.02293
1.02347
1.02401
1.02454
1.02508
1.02561
1.02613
1.02665
1.02715
1.02764
1.02811
1.02856
1.02898
1.02937
1.02974
1.03006
1.03035
1.0306
1.03081
1.03097
1.03109
1.03116
1.03119
1.03118
1.03111
1.03101
1.03085
1.03066
1.03043
1.03015
1.02984
1.0295
1.02912
1.02871
1.02828
1.02783
1.02736
1.02687
1.02637
1.02586
1.02534
1.02482
1.0243
1.02379
1.02328
1.02278
1.02229
1.02183
1.0214
1.02101
1.02066
1.02036
1.02013
1.01997
1.01989
1.01988
1.01996
1.02011
1.02032
1.02058
1.02089
1.02122
1.02155
1.02188
1.0222
1.02249
1.02275
1.02299
1.02319
1.02338
1.02354
1.02369
1.02384
1.02397
1.02411
1.02425
1.02439
1.02453
1.02468
1.02483
1.02498
1.02514
1.0253
1.02547
1.02564
1.02581
1.02598
1.02616
1.02635
1.02654
1.02673
1.02693
1.02713
1.02735
1.02757
1.0278
1.02803
1.02828
1.02855
1.02882
1.02911
1.02943
1.02976
1.03012
1.03051
1.03095
1.03143
1.03198
1.03261
1.03334
1.0342
1.03524
1.03651
1.03808
1.04007
1.04263
1.04599
1.05047
1.05654
1.06572
1.08199
1.10764
0.975305
0.978174
0.983325
0.987318
0.989975
0.991801
0.993078
0.993994
0.994696
0.995251
0.995719
0.996111
0.996454
0.996737
0.996978
0.997158
0.997292
0.997356
0.997368
0.997304
0.997187
0.996996
0.996757
0.996453
0.996117
0.995735
0.995342
0.994927
0.994523
0.994121
0.993753
0.993405
0.993104
0.992837
0.992621
0.992443
0.992315
0.992221
0.99217
0.992147
0.992156
0.992186
0.992238
0.992306
0.992392
0.992492
0.992611
0.992749
0.992911
0.993101
0.993324
0.993584
0.993887
0.994236
0.994635
0.995087
0.995594
0.996159
0.996783
0.997467
0.99821
0.999012
0.999871
1.00078
1.00174
1.00274
1.00377
1.00483
1.00589
1.00695
1.00799
1.009
1.00996
1.01086
1.0117
1.01246
1.01315
1.01375
1.01427
1.01472
1.01509
1.0154
1.01566
1.01586
1.01601
1.01613
1.01622
1.01628
1.01632
1.01635
1.01636
1.01635
1.01634
1.01633
1.01631
1.01628
1.01626
1.01623
1.01621
1.01619
1.01617
1.01615
1.01614
1.01613
1.01612
1.01611
1.0161
1.0161
1.01609
1.01607
1.01606
1.01604
1.01601
1.01597
1.01591
1.01585
1.01576
1.01566
1.01554
1.01539
1.01522
1.01502
1.01478
1.01451
1.01421
1.01387
1.01349
1.01308
1.01264
1.01217
1.01167
1.01114
1.0106
1.01005
1.0095
1.00895
1.0084
1.00787
1.00736
1.00687
1.0064
1.00596
1.00555
1.00518
1.00483
1.00451
1.00423
1.00398
1.00377
1.00359
1.00345
1.00335
1.00329
1.00326
1.00326
1.00329
1.00334
1.00341
1.0035
1.0036
1.00371
1.00383
1.00397
1.00412
1.00429
1.00449
1.00472
1.00498
1.00529
1.00565
1.00605
1.00651
1.00701
1.00755
1.00813
1.00873
1.00934
1.00996
1.01056
1.01114
1.01169
1.01219
1.01263
1.01303
1.01336
1.01364
1.01387
1.01405
1.01419
1.0143
1.01438
1.01443
1.01447
1.0145
1.01451
1.01452
1.01453
1.01453
1.01454
1.01454
1.01454
1.01454
1.01454
1.01454
1.01454
1.01454
1.01454
1.01454
1.01454
1.01454
1.01454
1.01454
1.01454
1.01454
1.01454
1.01454
1.01454
1.01454
1.01454
1.01454
1.01454
1.01454
1.01454
1.01454
1.01454
1.01454
1.01454
1.01454
1.01454
1.01454
1.01454
1.01454
1.01454
1.01454
1.01454
1.01454
1.01454
1.01454
1.01454
1.01454
1.01454
1.01454
1.01454
1.01454
1.01454
1.01455
1.01455
1.01456
1.01457
1.01459
1.01461
1.01464
1.01468
1.01473
1.01479
1.01488
1.01498
1.0151
1.01524
1.01541
1.01561
1.01583
1.01608
1.01635
1.01665
1.01698
1.01733
1.0177
1.0181
1.01851
1.01894
1.01939
1.01985
1.02032
1.02081
1.0213
1.0218
1.0223
1.02281
1.02332
1.02383
1.02434
1.02485
1.02535
1.02585
1.02633
1.02681
1.02726
1.0277
1.02811
1.0285
1.02886
1.02919
1.02949
1.02975
1.02997
1.03016
1.0303
1.03041
1.03047
1.03049
1.03048
1.03042
1.03032
1.03018
1.03001
1.0298
1.02955
1.02926
1.02895
1.0286
1.02823
1.02782
1.0274
1.02696
1.0265
1.02603
1.02555
1.02506
1.02456
1.02407
1.02358
1.0231
1.02262
1.02217
1.02174
1.02133
1.02097
1.02065
1.02038
1.02018
1.02005
1.01999
1.02
1.02009
1.02025
1.02046
1.02072
1.02101
1.02133
1.02164
1.02195
1.02225
1.02252
1.02277
1.02299
1.02319
1.02337
1.02353
1.02368
1.02382
1.02396
1.0241
1.02424
1.02438
1.02453
1.02468
1.02483
1.02498
1.02514
1.02531
1.02547
1.02564
1.02582
1.02599
1.02617
1.02636
1.02655
1.02674
1.02694
1.02715
1.02736
1.02758
1.02781
1.02805
1.0283
1.02857
1.02884
1.02914
1.02945
1.02978
1.03015
1.03054
1.03098
1.03147
1.03202
1.03265
1.03338
1.03425
1.03529
1.03656
1.03814
1.04012
1.04264
1.04588
1.05019
1.05599
1.06349
1.07172
1.07927
0.984142
0.983749
0.985692
0.988
0.990022
0.991564
0.992723
0.99362
0.99434
0.994929
0.995427
0.995848
0.99621
0.996509
0.996757
0.99694
0.99707
0.997131
0.997137
0.997073
0.996955
0.996772
0.996544
0.996263
0.995952
0.995605
0.995247
0.994873
0.994508
0.994146
0.993809
0.993491
0.993211
0.992959
0.992749
0.992574
0.992441
0.992341
0.99228
0.992248
0.992247
0.99227
0.992318
0.992385
0.992474
0.992581
0.992709
0.992859
0.993036
0.993241
0.993479
0.993754
0.994069
0.99443
0.994838
0.995298
0.995812
0.996383
0.997012
0.997699
0.998443
0.999244
1.0001
1.001
1.00194
1.00292
1.00392
1.00494
1.00595
1.00696
1.00795
1.0089
1.00981
1.01066
1.01145
1.01217
1.01282
1.01339
1.01389
1.01433
1.01469
1.015
1.01526
1.01547
1.01564
1.01577
1.01588
1.01596
1.01602
1.01607
1.01609
1.01611
1.01612
1.01612
1.01612
1.01611
1.0161
1.01608
1.01607
1.01606
1.01604
1.01603
1.01601
1.016
1.01599
1.01597
1.01596
1.01594
1.01592
1.0159
1.01587
1.01584
1.01579
1.01574
1.01567
1.01559
1.0155
1.01538
1.01525
1.01509
1.01492
1.01471
1.01448
1.01422
1.01393
1.01361
1.01326
1.01288
1.01247
1.01203
1.01157
1.01108
1.01058
1.01007
1.00955
1.00903
1.00851
1.00799
1.00749
1.00701
1.00655
1.00611
1.0057
1.00532
1.00497
1.00465
1.00436
1.00411
1.00389
1.00371
1.00356
1.00346
1.00338
1.00334
1.00334
1.00336
1.0034
1.00346
1.00355
1.00364
1.00375
1.00387
1.00401
1.00416
1.00434
1.00454
1.00477
1.00504
1.00535
1.0057
1.0061
1.00654
1.00703
1.00755
1.00811
1.0087
1.0093
1.0099
1.01049
1.01106
1.0116
1.01209
1.01254
1.01294
1.01328
1.01357
1.01381
1.014
1.01415
1.01427
1.01435
1.01441
1.01445
1.01448
1.0145
1.01451
1.01452
1.01453
1.01453
1.01453
1.01453
1.01453
1.01453
1.01453
1.01453
1.01453
1.01453
1.01453
1.01453
1.01453
1.01453
1.01453
1.01453
1.01453
1.01453
1.01453
1.01453
1.01453
1.01453
1.01453
1.01453
1.01453
1.01453
1.01453
1.01453
1.01453
1.01453
1.01453
1.01453
1.01453
1.01453
1.01453
1.01453
1.01453
1.01453
1.01453
1.01453
1.01453
1.01453
1.01453
1.01453
1.01453
1.01454
1.01454
1.01454
1.01454
1.01455
1.01456
1.01458
1.0146
1.01462
1.01466
1.01471
1.01477
1.01485
1.01494
1.01505
1.01519
1.01535
1.01553
1.01573
1.01596
1.01621
1.01649
1.01679
1.01711
1.01745
1.01781
1.01819
1.01858
1.01899
1.01941
1.01985
1.02029
1.02074
1.0212
1.02167
1.02214
1.02261
1.02309
1.02356
1.02404
1.02451
1.02498
1.02543
1.02588
1.02631
1.02672
1.02711
1.02748
1.02783
1.02815
1.02843
1.02869
1.02891
1.0291
1.02926
1.02938
1.02947
1.02952
1.02954
1.02952
1.02947
1.02938
1.02927
1.02911
1.02893
1.02871
1.02846
1.02819
1.02788
1.02754
1.02718
1.0268
1.0264
1.02598
1.02555
1.0251
1.02465
1.02419
1.02373
1.02328
1.02283
1.02239
1.02197
1.02157
1.02121
1.02088
1.0206
1.02037
1.0202
1.0201
1.02007
1.02011
1.02021
1.02038
1.02059
1.02085
1.02113
1.02143
1.02173
1.02202
1.0223
1.02255
1.02279
1.023
1.02318
1.02335
1.02351
1.02366
1.0238
1.02394
1.02408
1.02422
1.02436
1.02451
1.02466
1.02481
1.02497
1.02513
1.02529
1.02546
1.02563
1.0258
1.02598
1.02616
1.02635
1.02654
1.02673
1.02693
1.02714
1.02735
1.02758
1.02781
1.02805
1.0283
1.02856
1.02884
1.02913
1.02944
1.02978
1.03014
1.03053
1.03096
1.03144
1.03198
1.0326
1.03331
1.03416
1.03517
1.03639
1.0379
1.03977
1.04212
1.04508
1.04875
1.0532
1.05826
1.06236
1.06216
0.988123
0.98757
0.988256
0.989423
0.990695
0.991827
0.992783
0.993577
0.994243
0.994808
0.995295
0.995711
0.996068
0.996362
0.9966
0.996774
0.996891
0.996943
0.996938
0.99687
0.996751
0.996577
0.996363
0.996106
0.995823
0.995514
0.995195
0.994866
0.994542
0.994222
0.993919
0.993632
0.993372
0.993135
0.992932
0.992758
0.99262
0.992512
0.99244
0.992397
0.992386
0.992401
0.992444
0.99251
0.9926
0.992713
0.992851
0.993014
0.993204
0.993425
0.993679
0.993968
0.994297
0.994669
0.995088
0.995557
0.996078
0.996655
0.997289
0.997979
0.998724
0.999521
1.00037
1.00125
1.00217
1.00312
1.00409
1.00506
1.00603
1.00698
1.00791
1.0088
1.00965
1.01044
1.01118
1.01185
1.01246
1.013
1.01347
1.01389
1.01424
1.01455
1.01481
1.01502
1.0152
1.01536
1.01548
1.01558
1.01566
1.01573
1.01578
1.01582
1.01585
1.01587
1.01588
1.01589
1.0159
1.01589
1.01589
1.01588
1.01588
1.01586
1.01585
1.01584
1.01582
1.0158
1.01578
1.01575
1.01572
1.01568
1.01564
1.01559
1.01553
1.01546
1.01537
1.01528
1.01517
1.01504
1.0149
1.01473
1.01455
1.01435
1.01412
1.01387
1.0136
1.0133
1.01298
1.01263
1.01226
1.01187
1.01146
1.01102
1.01057
1.0101
1.00962
1.00914
1.00864
1.00816
1.00767
1.0072
1.00674
1.00631
1.00589
1.00551
1.00515
1.00482
1.00453
1.00427
1.00405
1.00386
1.00371
1.0036
1.00351
1.00347
1.00345
1.00346
1.0035
1.00355
1.00363
1.00372
1.00382
1.00394
1.00408
1.00424
1.00442
1.00462
1.00486
1.00513
1.00544
1.00579
1.00618
1.00661
1.00708
1.00759
1.00813
1.00869
1.00927
1.00985
1.01043
1.01099
1.01152
1.01201
1.01246
1.01287
1.01322
1.01351
1.01376
1.01396
1.01412
1.01425
1.01434
1.0144
1.01445
1.01448
1.01451
1.01452
1.01453
1.01454
1.01454
1.01454
1.01454
1.01454
1.01454
1.01454
1.01454
1.01454
1.01454
1.01454
1.01454
1.01454
1.01454
1.01454
1.01454
1.01454
1.01454
1.01454
1.01454
1.01454
1.01454
1.01454
1.01454
1.01454
1.01454
1.01454
1.01454
1.01454
1.01454
1.01454
1.01454
1.01454
1.01454
1.01454
1.01454
1.01454
1.01454
1.01454
1.01454
1.01454
1.01454
1.01454
1.01454
1.01454
1.01455
1.01455
1.01455
1.01456
1.01457
1.01458
1.0146
1.01463
1.01466
1.01471
1.01477
1.01484
1.01493
1.01504
1.01517
1.01531
1.01549
1.01568
1.01589
1.01613
1.01639
1.01666
1.01696
1.01727
1.0176
1.01794
1.0183
1.01866
1.01904
1.01944
1.01984
1.02024
1.02066
1.02108
1.02151
1.02194
1.02238
1.02282
1.02325
1.02368
1.02411
1.02453
1.02494
1.02534
1.02572
1.02608
1.02643
1.02674
1.02704
1.0273
1.02754
1.02775
1.02793
1.02809
1.02821
1.02831
1.02837
1.02841
1.02842
1.02841
1.02836
1.02829
1.0282
1.02807
1.02792
1.02774
1.02753
1.0273
1.02703
1.02675
1.02643
1.0261
1.02575
1.02537
1.02498
1.02458
1.02418
1.02376
1.02334
1.02293
1.02252
1.02212
1.02174
1.02139
1.02107
1.02078
1.02054
1.02035
1.02022
1.02016
1.02016
1.02022
1.02034
1.02052
1.02074
1.02099
1.02127
1.02155
1.02183
1.02211
1.02237
1.02261
1.02282
1.02302
1.0232
1.02336
1.02351
1.02366
1.0238
1.02394
1.02407
1.02422
1.02436
1.02451
1.02466
1.02481
1.02497
1.02513
1.02529
1.02546
1.02563
1.02581
1.02598
1.02617
1.02635
1.02654
1.02674
1.02694
1.02715
1.02736
1.02758
1.02781
1.02805
1.0283
1.02856
1.02884
1.02913
1.02944
1.02977
1.03013
1.03051
1.03094
1.03141
1.03193
1.03253
1.03321
1.03402
1.03497
1.03612
1.03752
1.03923
1.04132
1.04385
1.04681
1.04999
1.05289
1.05476
1.05384
0.990619
0.990218
0.990382
0.990939
0.991686
0.992455
0.99317
0.993809
0.994375
0.994873
0.995311
0.995691
0.996016
0.996284
0.996495
0.996646
0.996739
0.996772
0.996751
0.996675
0.996553
0.996385
0.996184
0.995951
0.995699
0.995428
0.99515
0.994865
0.994583
0.994305
0.994038
0.993781
0.993543
0.993323
0.993127
0.992955
0.992812
0.992698
0.992615
0.992561
0.992539
0.992546
0.992581
0.992644
0.992735
0.992852
0.992998
0.993172
0.993375
0.99361
0.993879
0.994183
0.994526
0.994911
0.995341
0.995819
0.99635
0.996934
0.997572
0.998264
0.999008
0.999799
1.00063
1.0015
1.0024
1.00331
1.00424
1.00516
1.00607
1.00697
1.00784
1.00867
1.00946
1.01019
1.01087
1.01149
1.01205
1.01256
1.013
1.01339
1.01373
1.01403
1.01428
1.01451
1.0147
1.01486
1.015
1.01512
1.01522
1.01531
1.01538
1.01544
1.01549
1.01553
1.01556
1.01559
1.01561
1.01562
1.01563
1.01563
1.01563
1.01562
1.0156
1.01559
1.01557
1.01554
1.01551
1.01547
1.01542
1.01537
1.01532
1.01525
1.01517
1.01509
1.01499
1.01488
1.01475
1.01461
1.01446
1.01429
1.0141
1.0139
1.01369
1.01345
1.0132
1.01293
1.01264
1.01234
1.01201
1.01167
1.01131
1.01093
1.01053
1.01011
1.00968
1.00924
1.00878
1.00832
1.00785
1.00739
1.00694
1.00651
1.00609
1.0057
1.00534
1.00501
1.00471
1.00444
1.00421
1.00402
1.00386
1.00373
1.00364
1.00359
1.00356
1.00356
1.00359
1.00363
1.0037
1.00379
1.00389
1.00401
1.00415
1.00431
1.0045
1.00471
1.00495
1.00522
1.00553
1.00588
1.00626
1.00668
1.00713
1.00762
1.00814
1.00868
1.00923
1.00979
1.01034
1.01089
1.01141
1.0119
1.01235
1.01276
1.01311
1.01342
1.01368
1.01389
1.01407
1.0142
1.0143
1.01437
1.01443
1.01446
1.01449
1.0145
1.01452
1.01452
1.01453
1.01453
1.01453
1.01453
1.01453
1.01453
1.01453
1.01453
1.01453
1.01453
1.01453
1.01453
1.01453
1.01453
1.01453
1.01453
1.01453
1.01453
1.01453
1.01453
1.01453
1.01453
1.01453
1.01453
1.01453
1.01453
1.01453
1.01453
1.01453
1.01453
1.01453
1.01453
1.01453
1.01453
1.01453
1.01453
1.01453
1.01453
1.01453
1.01453
1.01453
1.01453
1.01453
1.01453
1.01454
1.01454
1.01455
1.01455
1.01457
1.01458
1.01461
1.01464
1.01469
1.01474
1.01481
1.0149
1.015
1.01513
1.01527
1.01543
1.01562
1.01582
1.01604
1.01628
1.01654
1.01682
1.0171
1.01741
1.01772
1.01804
1.01838
1.01872
1.01907
1.01943
1.01979
1.02017
1.02054
1.02093
1.02132
1.02171
1.0221
1.02249
1.02289
1.02327
1.02365
1.02403
1.02439
1.02473
1.02506
1.02537
1.02565
1.02591
1.02615
1.02637
1.02655
1.02671
1.02685
1.02697
1.02706
1.02712
1.02717
1.0272
1.0272
1.02719
1.02715
1.0271
1.02702
1.02692
1.0268
1.02666
1.0265
1.02631
1.02609
1.02586
1.0256
1.02532
1.02501
1.02469
1.02435
1.024
1.02364
1.02327
1.0229
1.02253
1.02217
1.02181
1.02148
1.02117
1.02089
1.02065
1.02045
1.02031
1.02022
1.02019
1.02022
1.02031
1.02046
1.02064
1.02087
1.02112
1.02139
1.02166
1.02193
1.02219
1.02243
1.02265
1.02285
1.02303
1.0232
1.02335
1.0235
1.02364
1.02377
1.02391
1.02405
1.02419
1.02433
1.02448
1.02463
1.02478
1.02494
1.02511
1.02527
1.02544
1.02561
1.02578
1.02596
1.02614
1.02633
1.02652
1.02672
1.02692
1.02712
1.02734
1.02756
1.02779
1.02803
1.02828
1.02854
1.02881
1.0291
1.02941
1.02973
1.03008
1.03046
1.03087
1.03133
1.03183
1.0324
1.03305
1.03381
1.0347
1.03575
1.03702
1.03854
1.04034
1.04241
1.04466
1.04688
1.04858
1.04928
1.04866
0.99248
0.992082
0.99204
0.992299
0.992724
0.993224
0.993735
0.994226
0.994682
0.995098
0.995471
0.995798
0.996076
0.996303
0.996476
0.996593
0.996656
0.996665
0.996624
0.996536
0.99641
0.996248
0.996061
0.995852
0.995629
0.995395
0.995158
0.994917
0.994677
0.99444
0.994208
0.993982
0.993767
0.993563
0.993377
0.993209
0.993064
0.992943
0.992851
0.992787
0.992754
0.99275
0.992778
0.992835
0.992923
0.993042
0.993193
0.993374
0.993588
0.993835
0.994117
0.994434
0.994791
0.995188
0.99563
0.996119
0.996659
0.997249
0.997892
0.998584
0.999323
1.00011
1.00092
1.00177
1.00264
1.00351
1.0044
1.00527
1.00613
1.00697
1.00778
1.00856
1.00928
1.00996
1.01059
1.01116
1.01168
1.01214
1.01255
1.01291
1.01324
1.01352
1.01377
1.01398
1.01418
1.01435
1.0145
1.01463
1.01475
1.01486
1.01495
1.01503
1.0151
1.01516
1.0152
1.01525
1.01528
1.0153
1.01532
1.01533
1.01533
1.01533
1.01531
1.01529
1.01527
1.01523
1.01519
1.01514
1.01509
1.01502
1.01495
1.01487
1.01478
1.01468
1.01456
1.01444
1.0143
1.01416
1.014
1.01382
1.01364
1.01345
1.01324
1.01302
1.0128
1.01256
1.01231
1.01205
1.01177
1.01148
1.01118
1.01085
1.01051
1.01015
1.00977
1.00936
1.00895
1.00851
1.00807
1.00763
1.00719
1.00675
1.00634
1.00594
1.00557
1.00523
1.00492
1.00465
1.00441
1.00421
1.00404
1.00391
1.00381
1.00374
1.00371
1.0037
1.00372
1.00376
1.00382
1.00391
1.00401
1.00413
1.00427
1.00444
1.00463
1.00485
1.00509
1.00537
1.00568
1.00602
1.00639
1.00679
1.00723
1.00769
1.00818
1.00869
1.00922
1.00975
1.01028
1.01081
1.01132
1.0118
1.01225
1.01266
1.01302
1.01334
1.01362
1.01384
1.01403
1.01417
1.01428
1.01436
1.01442
1.01447
1.0145
1.01451
1.01453
1.01453
1.01454
1.01454
1.01454
1.01454
1.01454
1.01454
1.01454
1.01454
1.01454
1.01454
1.01454
1.01454
1.01454
1.01454
1.01454
1.01454
1.01454
1.01454
1.01454
1.01454
1.01454
1.01454
1.01454
1.01454
1.01454
1.01454
1.01454
1.01454
1.01454
1.01454
1.01454
1.01454
1.01454
1.01454
1.01454
1.01454
1.01454
1.01454
1.01454
1.01454
1.01455
1.01455
1.01455
1.01455
1.01455
1.01456
1.01457
1.01458
1.01459
1.01462
1.01465
1.01469
1.01474
1.01481
1.01489
1.01499
1.01511
1.01525
1.01541
1.01558
1.01578
1.01599
1.01622
1.01647
1.01672
1.01699
1.01727
1.01756
1.01786
1.01816
1.01847
1.01878
1.0191
1.01943
1.01976
1.0201
1.02044
1.02079
1.02114
1.02149
1.02184
1.02219
1.02253
1.02287
1.02321
1.02353
1.02383
1.02413
1.0244
1.02465
1.02488
1.02509
1.02527
1.02543
1.02557
1.02568
1.02578
1.02585
1.02591
1.02595
1.02598
1.02599
1.02599
1.02598
1.02595
1.02591
1.02585
1.02578
1.02569
1.02559
1.02547
1.02532
1.02516
1.02497
1.02477
1.02454
1.02429
1.02402
1.02373
1.02343
1.02312
1.0228
1.02248
1.02215
1.02183
1.02153
1.02124
1.02097
1.02074
1.02054
1.02039
1.02029
1.02024
1.02025
1.02031
1.02043
1.02059
1.02079
1.02102
1.02127
1.02153
1.02179
1.02205
1.02229
1.02252
1.02272
1.02291
1.02308
1.02324
1.02338
1.02352
1.02365
1.02378
1.02391
1.02405
1.02419
1.02433
1.02448
1.02463
1.02478
1.02494
1.0251
1.02527
1.02544
1.02561
1.02579
1.02596
1.02615
1.02633
1.02652
1.02672
1.02692
1.02713
1.02734
1.02756
1.02779
1.02803
1.02828
1.02853
1.02881
1.02909
1.0294
1.02972
1.03006
1.03043
1.03083
1.03127
1.03176
1.0323
1.03292
1.03363
1.03446
1.03542
1.03656
1.03788
1.03939
1.04105
1.04273
1.04423
1.04523
1.04541
1.04478
0.993891
0.993511
0.993397
0.993492
0.993725
0.994041
0.994392
0.994751
0.995099
0.995425
0.995721
0.995982
0.996201
0.996374
0.996499
0.996573
0.996599
0.996577
0.996512
0.99641
0.996277
0.996119
0.995944
0.995756
0.995561
0.995362
0.995163
0.994963
0.994764
0.994566
0.994369
0.994174
0.993983
0.993799
0.993624
0.993463
0.993319
0.993195
0.993096
0.993022
0.992978
0.992964
0.992981
0.99303
0.993113
0.99323
0.993381
0.993567
0.993787
0.994044
0.994336
0.994666
0.995035
0.995445
0.9959
0.9964
0.996949
0.997546
0.998191
0.998882
0.999615
1.00038
1.00118
1.002
1.00284
1.00368
1.00452
1.00535
1.00616
1.00695
1.0077
1.00842
1.0091
1.00972
1.0103
1.01082
1.0113
1.01172
1.01209
1.01243
1.01272
1.01299
1.01322
1.01343
1.01362
1.01379
1.01395
1.01409
1.01422
1.01433
1.01444
1.01453
1.01462
1.01469
1.01475
1.01481
1.01485
1.01488
1.01491
1.01493
1.01493
1.01493
1.01492
1.0149
1.01486
1.01482
1.01478
1.01472
1.01465
1.01458
1.01449
1.0144
1.0143
1.01418
1.01406
1.01393
1.01379
1.01364
1.01347
1.01331
1.01313
1.01295
1.01276
1.01256
1.01236
1.01216
1.01195
1.01173
1.01151
1.01127
1.01102
1.01075
1.01046
1.01016
1.00982
1.00947
1.00909
1.00869
1.00827
1.00785
1.00741
1.00699
1.00657
1.00617
1.00579
1.00544
1.00512
1.00484
1.00459
1.00438
1.00421
1.00407
1.00396
1.00388
1.00384
1.00382
1.00384
1.00387
1.00393
1.00402
1.00412
1.00425
1.00439
1.00456
1.00476
1.00498
1.00523
1.00551
1.00581
1.00615
1.00651
1.00689
1.00731
1.00774
1.0082
1.00868
1.00917
1.00968
1.01018
1.01069
1.01118
1.01165
1.0121
1.01252
1.01289
1.01322
1.01351
1.01375
1.01394
1.0141
1.01423
1.01432
1.01439
1.01444
1.01447
1.01449
1.01451
1.01452
1.01452
1.01452
1.01453
1.01453
1.01453
1.01453
1.01453
1.01453
1.01453
1.01453
1.01453
1.01453
1.01453
1.01453
1.01453
1.01453
1.01453
1.01453
1.01453
1.01453
1.01453
1.01453
1.01453
1.01453
1.01453
1.01453
1.01453
1.01453
1.01453
1.01453
1.01453
1.01453
1.01453
1.01453
1.01453
1.01453
1.01453
1.01453
1.01453
1.01453
1.01453
1.01453
1.01453
1.01454
1.01454
1.01455
1.01456
1.01457
1.01459
1.01462
1.01466
1.01471
1.01477
1.01485
1.01495
1.01506
1.01519
1.01535
1.01552
1.01571
1.01591
1.01613
1.01637
1.01661
1.01687
1.01713
1.0174
1.01767
1.01795
1.01823
1.01852
1.01881
1.0191
1.0194
1.0197
1.02
1.02031
1.02062
1.02093
1.02124
1.02155
1.02186
1.02216
1.02246
1.02274
1.02302
1.02327
1.02351
1.02373
1.02393
1.0241
1.02425
1.02439
1.02449
1.02458
1.02466
1.02471
1.02475
1.02478
1.0248
1.02481
1.02481
1.0248
1.02479
1.02477
1.02474
1.02471
1.02466
1.0246
1.02453
1.02445
1.02435
1.02423
1.02409
1.02394
1.02376
1.02356
1.02335
1.02311
1.02286
1.0226
1.02232
1.02205
1.02177
1.02149
1.02123
1.02098
1.02076
1.02057
1.02042
1.02031
1.02024
1.02023
1.02027
1.02037
1.0205
1.02068
1.0209
1.02114
1.02139
1.02165
1.0219
1.02215
1.02238
1.02259
1.02278
1.02295
1.02311
1.02325
1.02338
1.02351
1.02364
1.02376
1.02389
1.02402
1.02416
1.0243
1.02444
1.02459
1.02475
1.02491
1.02507
1.02524
1.0254
1.02558
1.02575
1.02593
1.02611
1.0263
1.02649
1.02668
1.02689
1.02709
1.0273
1.02752
1.02775
1.02799
1.02824
1.02849
1.02876
1.02905
1.02935
1.02966
1.03
1.03036
1.03075
1.03118
1.03165
1.03217
1.03275
1.03341
1.03417
1.03504
1.03604
1.03718
1.03842
1.03972
1.04095
1.04195
1.04252
1.04249
1.04182
0.994994
0.994649
0.994496
0.9945
0.994621
0.994817
0.995055
0.995312
0.99557
0.995816
0.996041
0.996236
0.996395
0.996513
0.996588
0.996617
0.996604
0.99655
0.996461
0.996344
0.996205
0.99605
0.995887
0.995719
0.995552
0.995386
0.995223
0.995062
0.994902
0.994742
0.99458
0.994416
0.994252
0.994088
0.993928
0.993777
0.993637
0.993512
0.993407
0.993326
0.99327
0.993244
0.993249
0.993288
0.993361
0.993472
0.993619
0.993805
0.994029
0.994291
0.994591
0.994932
0.995312
0.995735
0.996202
0.996713
0.99727
0.997873
0.998519
0.999205
0.999926
1.00068
1.00145
1.00224
1.00304
1.00385
1.00465
1.00543
1.0062
1.00694
1.00765
1.00832
1.00895
1.00953
1.01006
1.01054
1.01098
1.01136
1.0117
1.012
1.01227
1.01251
1.01272
1.01292
1.0131
1.01327
1.01342
1.01356
1.01369
1.01381
1.01393
1.01403
1.01412
1.0142
1.01428
1.01434
1.01439
1.01443
1.01446
1.01449
1.01449
1.01449
1.01448
1.01446
1.01443
1.01438
1.01433
1.01426
1.01419
1.01411
1.01402
1.01392
1.01381
1.01369
1.01356
1.01342
1.01328
1.01313
1.01297
1.01281
1.01265
1.01248
1.01231
1.01215
1.01198
1.01181
1.01164
1.01146
1.01128
1.0111
1.0109
1.01068
1.01045
1.01019
1.00991
1.00959
1.00925
1.00889
1.0085
1.00809
1.00767
1.00725
1.00683
1.00643
1.00604
1.00569
1.00536
1.00507
1.00481
1.00459
1.00441
1.00426
1.00414
1.00406
1.00401
1.004
1.004
1.00404
1.0041
1.00419
1.0043
1.00443
1.00458
1.00476
1.00496
1.00518
1.00544
1.00571
1.00601
1.00633
1.00668
1.00704
1.00743
1.00784
1.00826
1.00871
1.00916
1.00964
1.01011
1.0106
1.01107
1.01153
1.01198
1.01239
1.01278
1.01312
1.01342
1.01368
1.01389
1.01406
1.0142
1.0143
1.01438
1.01444
1.01448
1.0145
1.01452
1.01453
1.01454
1.01454
1.01454
1.01454
1.01455
1.01455
1.01455
1.01455
1.01455
1.01455
1.01455
1.01455
1.01455
1.01455
1.01455
1.01455
1.01455
1.01455
1.01455
1.01455
1.01455
1.01455
1.01455
1.01455
1.01455
1.01455
1.01455
1.01455
1.01455
1.01455
1.01455
1.01455
1.01455
1.01455
1.01455
1.01455
1.01455
1.01455
1.01455
1.01455
1.01455
1.01455
1.01455
1.01456
1.01456
1.01457
1.01458
1.0146
1.01463
1.01466
1.01471
1.01477
1.01484
1.01493
1.01504
1.01517
1.01532
1.01548
1.01567
1.01586
1.01608
1.0163
1.01654
1.01678
1.01703
1.01729
1.01754
1.0178
1.01806
1.01833
1.01859
1.01886
1.01912
1.01939
1.01967
1.01994
1.02021
1.02049
1.02077
1.02104
1.02132
1.02159
1.02185
1.0221
1.02234
1.02257
1.02277
1.02296
1.02313
1.02328
1.0234
1.02351
1.02359
1.02365
1.0237
1.02374
1.02376
1.02377
1.02378
1.02378
1.02377
1.02376
1.02375
1.02374
1.02372
1.02371
1.02368
1.02366
1.02363
1.02359
1.02354
1.02348
1.0234
1.02331
1.0232
1.02307
1.02292
1.02276
1.02257
1.02237
1.02215
1.02192
1.02168
1.02145
1.02122
1.02099
1.02079
1.0206
1.02045
1.02034
1.02026
1.02024
1.02026
1.02033
1.02045
1.02061
1.0208
1.02103
1.02127
1.02153
1.02178
1.02203
1.02227
1.02249
1.02269
1.02287
1.02303
1.02317
1.02331
1.02343
1.02355
1.02366
1.02378
1.0239
1.02403
1.02416
1.0243
1.02444
1.02459
1.02475
1.02491
1.02507
1.02523
1.0254
1.02557
1.02575
1.02593
1.02611
1.0263
1.02649
1.02668
1.02688
1.02709
1.0273
1.02752
1.02775
1.02799
1.02823
1.02849
1.02876
1.02904
1.02933
1.02965
1.02998
1.03033
1.03072
1.03113
1.03158
1.03208
1.03263
1.03325
1.03395
1.03474
1.03561
1.03658
1.03759
1.03859
1.03948
1.04013
1.04041
1.04025
1.03958
0.995873
0.995572
0.995414
0.995374
0.995425
0.99554
0.995695
0.99587
0.99605
0.996223
0.996378
0.996507
0.996604
0.996665
0.996686
0.996669
0.996614
0.996527
0.996413
0.996279
0.996133
0.99598
0.995826
0.995677
0.995534
0.995398
0.995269
0.995144
0.995021
0.994896
0.994769
0.994637
0.9945
0.99436
0.994219
0.99408
0.993948
0.993826
0.993718
0.993629
0.993563
0.993524
0.993516
0.99354
0.993602
0.993702
0.993842
0.994024
0.994246
0.994511
0.994818
0.995166
0.995558
0.995992
0.996471
0.996993
0.997558
0.998164
0.998808
0.999486
1.00019
1.00093
1.00167
1.00243
1.0032
1.00397
1.00473
1.00547
1.0062
1.0069
1.00758
1.00821
1.0088
1.00934
1.00983
1.01027
1.01067
1.01101
1.01132
1.01159
1.01182
1.01204
1.01223
1.01241
1.01257
1.01272
1.01286
1.013
1.01313
1.01325
1.01336
1.01346
1.01356