# vtk DataFile Version 2.0
LBE mesh
ASCII
DATASET STRUCTURED_POINTS
DIMENSIONS 400 100 1
ASPECT_RATIO 1 1 1
ORIGIN 0 0 0
POINT_DATA 40000
SCALARS rho double 1
LOOKUP_TABLE default
1.08462
1.15247
1.17239
1.17672
1.17889
1.18071
1.18201
1.18286
1.18344
1.18385
1.18417
1.18441
1.1846
1.18474
1.18485
1.18493
1.18499
1.18503
1.18506
1.18507
1.18507
1.18506
1.18505
1.18502
1.18499
1.18495
1.1849
1.18485
1.1848
1.18473
1.18467
1.1846
1.18453
1.18445
1.18437
1.18429
1.1842
1.18411
1.18402
1.18393
1.18383
1.18373
1.18364
1.18354
1.18344
1.18334
1.18324
1.18314
1.18304
1.18294
1.18284
1.18275
1.18266
1.18257
1.18248
1.1824
1.18232
1.18224
1.18217
1.18211
1.18205
1.18199
1.18194
1.1819
1.18187
1.18184
1.18183
1.18181
1.18181
1.18182
1.18183
1.18186
1.18189
1.18193
1.18198
1.18204
1.18211
1.18219
1.18228
1.18238
1.18248
1.1826
1.18272
1.18286
1.183
1.18315
1.1833
1.18347
1.18364
1.18382
1.184
1.1842
1.18439
1.18459
1.1848
1.18501
1.18522
1.18543
1.18565
1.18586
1.18608
1.1863
1.18652
1.18673
1.18694
1.18716
1.18736
1.18757
1.18777
1.18796
1.18815
1.18833
1.18851
1.18868
1.18884
1.18899
1.18914
1.18927
1.1894
1.18952
1.18963
1.18973
1.18982
1.1899
1.18998
1.19004
1.1901
1.19016
1.1902
1.19024
1.19027
1.1903
1.19032
1.19034
1.19035
1.19036
1.19037
1.19037
1.19037
1.19037
1.19036
1.19035
1.19034
1.19033
1.19032
1.1903
1.19029
1.19027
1.19025
1.19023
1.19021
1.19019
1.19016
1.19014
1.19011
1.19009
1.19006
1.19003
1.19
1.18997
1.18993
1.1899
1.18987
1.18983
1.18979
1.18976
1.18972
1.18968
1.18964
1.18959
1.18955
1.18951
1.18946
1.18942
1.18937
1.18932
1.18927
1.18922
1.18917
1.18912
1.18907
1.18902
1.18897
1.18891
1.18886
1.18881
1.18875
1.1887
1.18865
1.18859
1.18854
1.18848
1.18843
1.18838
1.18832
1.18827
1.18822
1.18816
1.18811
1.18806
1.18801
1.18796
1.18791
1.18786
1.18781
1.18777
1.18772
1.18767
1.18763
1.18759
1.18755
1.18751
1.18747
1.18743
1.18739
1.18736
1.18733
1.1873
1.18727
1.18724
1.18721
1.18719
1.18717
1.18715
1.18714
1.18712
1.18711
1.1871
1.1871
1.18709
1.18709
1.1871
1.18711
1.18712
1.18713
1.18715
1.18717
1.1872
1.18723
1.18727
1.18731
1.18736
1.18741
1.18746
1.18753
1.1876
1.18767
1.18775
1.18784
1.18793
1.18803
1.18814
1.18826
1.18838
1.18851
1.18864
1.18878
1.18893
1.18909
1.18925
1.18942
1.1896
1.18979
1.18998
1.19017
1.19037
1.19058
1.19079
1.191
1.19122
1.19144
1.19167
1.19189
1.19212
1.19235
1.19258
1.1928
1.19303
1.19325
1.19347
1.19369
1.1939
1.19411
1.19431
1.19451
1.1947
1.19489
1.19507
1.19524
1.19541
1.19557
1.19572
1.19587
1.19601
1.19615
1.19628
1.19641
1.19653
1.19665
1.19677
1.19688
1.19698
1.19709
1.19719
1.19729
1.19738
1.19748
1.19757
1.19766
1.19775
1.19783
1.19792
1.198
1.19808
1.19816
1.19824
1.19831
1.19838
1.19845
1.19852
1.19858
1.19864
1.1987
1.19875
1.19881
1.19885
1.1989
1.19894
1.19898
1.19902
1.19905
1.19909
1.19912
1.19915
1.19918
1.1992
1.19923
1.19927
1.1993
1.19933
1.19937
1.19942
1.19947
1.19952
1.19958
1.19965
1.19973
1.19982
1.19991
1.20002
1.20015
1.20028
1.20044
1.2006
1.20079
1.20099
1.20121
1.20144
1.2017
1.20198
1.20229
1.20262
1.20297
1.20334
1.20375
1.20418
1.20464
1.20512
1.20564
1.20619
1.20678
1.20739
1.20805
1.20874
1.20947
1.21024
1.21105
1.21192
1.21283
1.21379
1.21481
1.2159
1.21706
1.21829
1.21962
1.22104
1.22258
1.22426
1.22611
1.22815
1.23044
1.23303
1.23604
1.23959
1.24392
1.24951
1.25726
1.26815
1.28465
1.31916
1.14054
1.15091
1.16243
1.17162
1.17641
1.1789
1.18046
1.18158
1.1824
1.183
1.18345
1.1838
1.18406
1.18427
1.18444
1.18456
1.18466
1.18473
1.18479
1.18482
1.18485
1.18485
1.18485
1.18484
1.18482
1.18479
1.18476
1.18472
1.18467
1.18461
1.18456
1.18449
1.18443
1.18435
1.18428
1.1842
1.18412
1.18403
1.18395
1.18386
1.18377
1.18367
1.18358
1.18348
1.18338
1.18329
1.18319
1.18309
1.183
1.1829
1.18281
1.18271
1.18262
1.18254
1.18245
1.18237
1.18229
1.18222
1.18215
1.18209
1.18203
1.18198
1.18193
1.1819
1.18186
1.18184
1.18182
1.18182
1.18182
1.18182
1.18184
1.18186
1.1819
1.18194
1.182
1.18206
1.18213
1.18221
1.1823
1.1824
1.1825
1.18262
1.18275
1.18288
1.18302
1.18317
1.18333
1.1835
1.18367
1.18385
1.18403
1.18422
1.18442
1.18462
1.18482
1.18503
1.18524
1.18545
1.18567
1.18588
1.1861
1.18632
1.18653
1.18675
1.18696
1.18717
1.18737
1.18757
1.18777
1.18796
1.18815
1.18833
1.18851
1.18867
1.18883
1.18898
1.18912
1.18926
1.18938
1.1895
1.18961
1.18971
1.1898
1.18988
1.18995
1.19002
1.19008
1.19013
1.19017
1.19021
1.19024
1.19027
1.19029
1.19031
1.19032
1.19033
1.19034
1.19034
1.19034
1.19034
1.19033
1.19033
1.19032
1.19031
1.19029
1.19028
1.19027
1.19025
1.19023
1.19021
1.19019
1.19017
1.19015
1.19012
1.1901
1.19007
1.19004
1.19001
1.18998
1.18995
1.18992
1.18989
1.18985
1.18982
1.18978
1.18974
1.18971
1.18967
1.18963
1.18958
1.18954
1.1895
1.18945
1.18941
1.18936
1.18931
1.18926
1.18921
1.18917
1.18911
1.18906
1.18901
1.18896
1.18891
1.18885
1.1888
1.18875
1.18869
1.18864
1.18859
1.18853
1.18848
1.18842
1.18837
1.18832
1.18826
1.18821
1.18816
1.18811
1.18805
1.188
1.18795
1.1879
1.18786
1.18781
1.18776
1.18772
1.18767
1.18763
1.18758
1.18754
1.1875
1.18746
1.18743
1.18739
1.18736
1.18733
1.1873
1.18727
1.18724
1.18721
1.18719
1.18717
1.18715
1.18714
1.18712
1.18711
1.18711
1.1871
1.1871
1.1871
1.1871
1.18711
1.18712
1.18714
1.18716
1.18718
1.18721
1.18724
1.18728
1.18732
1.18737
1.18742
1.18748
1.18754
1.18761
1.18769
1.18777
1.18786
1.18796
1.18806
1.18817
1.18828
1.1884
1.18853
1.18867
1.18881
1.18896
1.18912
1.18928
1.18946
1.18963
1.18982
1.19001
1.1902
1.19041
1.19061
1.19082
1.19104
1.19126
1.19148
1.1917
1.19193
1.19215
1.19238
1.1926
1.19283
1.19305
1.19328
1.19349
1.19371
1.19392
1.19413
1.19433
1.19452
1.19471
1.1949
1.19507
1.19525
1.19541
1.19557
1.19572
1.19587
1.19601
1.19615
1.19628
1.19641
1.19653
1.19665
1.19676
1.19687
1.19698
1.19708
1.19718
1.19728
1.19738
1.19747
1.19756
1.19765
1.19774
1.19783
1.19791
1.19799
1.19807
1.19815
1.19823
1.1983
1.19837
1.19844
1.19851
1.19857
1.19863
1.19869
1.19874
1.19879
1.19884
1.19888
1.19893
1.19897
1.199
1.19904
1.19907
1.1991
1.19913
1.19916
1.19919
1.19922
1.19925
1.19929
1.19932
1.19936
1.19941
1.19946
1.19952
1.19958
1.19965
1.19973
1.19982
1.19992
1.20003
1.20016
1.2003
1.20045
1.20062
1.20081
1.20101
1.20124
1.20148
1.20174
1.20203
1.20233
1.20266
1.20302
1.2034
1.20381
1.20424
1.2047
1.2052
1.20572
1.20628
1.20687
1.20749
1.20815
1.20884
1.20958
1.21036
1.21118
1.21205
1.21297
1.21395
1.21498
1.21608
1.21725
1.21851
1.21985
1.2213
1.22288
1.2246
1.2265
1.2286
1.23098
1.2337
1.23686
1.24065
1.24531
1.25121
1.25891
1.27024
1.2899
1.32063
1.15967
1.15852
1.16542
1.17116
1.17479
1.1774
1.17927
1.18059
1.18155
1.18226
1.18281
1.18324
1.18357
1.18384
1.18405
1.18421
1.18435
1.18445
1.18453
1.18459
1.18463
1.18465
1.18467
1.18467
1.18466
1.18464
1.18462
1.18458
1.18454
1.1845
1.18445
1.18439
1.18433
1.18426
1.18419
1.18412
1.18404
1.18396
1.18387
1.18379
1.1837
1.18361
1.18352
1.18342
1.18333
1.18323
1.18314
1.18304
1.18295
1.18286
1.18277
1.18267
1.18259
1.1825
1.18242
1.18234
1.18226
1.18219
1.18213
1.18207
1.18201
1.18196
1.18192
1.18188
1.18185
1.18183
1.18182
1.18181
1.18181
1.18182
1.18184
1.18187
1.1819
1.18195
1.182
1.18206
1.18214
1.18222
1.18231
1.18241
1.18252
1.18264
1.18276
1.1829
1.18304
1.18319
1.18335
1.18352
1.18369
1.18387
1.18406
1.18425
1.18444
1.18464
1.18485
1.18506
1.18527
1.18548
1.18569
1.18591
1.18612
1.18634
1.18655
1.18677
1.18698
1.18718
1.18739
1.18759
1.18778
1.18798
1.18816
1.18834
1.18851
1.18868
1.18883
1.18898
1.18912
1.18925
1.18938
1.18949
1.1896
1.18969
1.18978
1.18986
1.18993
1.19
1.19006
1.1901
1.19015
1.19019
1.19022
1.19024
1.19027
1.19028
1.1903
1.19031
1.19031
1.19031
1.19032
1.19031
1.19031
1.1903
1.19029
1.19028
1.19027
1.19026
1.19024
1.19022
1.19021
1.19019
1.19017
1.19015
1.19012
1.1901
1.19008
1.19005
1.19002
1.18999
1.18997
1.18994
1.1899
1.18987
1.18984
1.1898
1.18977
1.18973
1.18969
1.18965
1.18961
1.18957
1.18953
1.18948
1.18944
1.18939
1.18935
1.1893
1.18925
1.1892
1.18915
1.1891
1.18905
1.189
1.18895
1.1889
1.18884
1.18879
1.18874
1.18868
1.18863
1.18858
1.18852
1.18847
1.18841
1.18836
1.18831
1.18825
1.1882
1.18815
1.1881
1.18805
1.188
1.18795
1.1879
1.18785
1.1878
1.18775
1.18771
1.18766
1.18762
1.18758
1.18754
1.1875
1.18746
1.18742
1.18739
1.18735
1.18732
1.18729
1.18726
1.18724
1.18721
1.18719
1.18717
1.18715
1.18714
1.18712
1.18711
1.1871
1.1871
1.1871
1.1871
1.18711
1.18711
1.18713
1.18714
1.18716
1.18719
1.18721
1.18725
1.18729
1.18733
1.18738
1.18743
1.18749
1.18755
1.18762
1.1877
1.18778
1.18787
1.18797
1.18807
1.18818
1.1883
1.18842
1.18855
1.18869
1.18883
1.18898
1.18914
1.18931
1.18948
1.18966
1.18984
1.19003
1.19023
1.19043
1.19064
1.19085
1.19107
1.19129
1.19151
1.19173
1.19196
1.19218
1.19241
1.19264
1.19286
1.19308
1.1933
1.19352
1.19374
1.19394
1.19415
1.19435
1.19454
1.19473
1.19491
1.19509
1.19526
1.19543
1.19558
1.19574
1.19588
1.19602
1.19616
1.19629
1.19641
1.19653
1.19665
1.19676
1.19687
1.19698
1.19708
1.19718
1.19728
1.19737
1.19747
1.19756
1.19765
1.19774
1.19782
1.19791
1.19799
1.19807
1.19815
1.19822
1.19829
1.19837
1.19843
1.1985
1.19856
1.19862
1.19868
1.19873
1.19878
1.19883
1.19887
1.19891
1.19895
1.19899
1.19902
1.19906
1.19909
1.19912
1.19915
1.19918
1.19921
1.19924
1.19927
1.19931
1.19935
1.1994
1.19945
1.19951
1.19957
1.19964
1.19972
1.19982
1.19992
1.20003
1.20016
1.2003
1.20046
1.20063
1.20082
1.20102
1.20125
1.20149
1.20176
1.20205
1.20236
1.20269
1.20305
1.20343
1.20384
1.20428
1.20475
1.20524
1.20577
1.20633
1.20692
1.20755
1.20821
1.20891
1.20965
1.21043
1.21126
1.21214
1.21306
1.21404
1.21508
1.21619
1.21737
1.21863
1.21998
1.22144
1.22303
1.22476
1.22667
1.22879
1.23119
1.23391
1.23708
1.24082
1.24534
1.251
1.25833
1.26756
1.27758
1.28675
1.16778
1.16691
1.16914
1.17182
1.17468
1.17698
1.17867
1.17994
1.18093
1.1817
1.1823
1.18277
1.18315
1.18346
1.1837
1.1839
1.18406
1.18418
1.18429
1.18436
1.18442
1.18446
1.18449
1.1845
1.18451
1.1845
1.18448
1.18445
1.18442
1.18438
1.18434
1.18429
1.18423
1.18417
1.1841
1.18403
1.18396
1.18388
1.1838
1.18372
1.18363
1.18354
1.18346
1.18336
1.18327
1.18318
1.18309
1.18299
1.1829
1.18281
1.18272
1.18263
1.18255
1.18246
1.18238
1.1823
1.18223
1.18216
1.1821
1.18204
1.18198
1.18194
1.18189
1.18186
1.18183
1.18181
1.1818
1.18179
1.1818
1.18181
1.18183
1.18186
1.1819
1.18194
1.182
1.18206
1.18214
1.18222
1.18231
1.18242
1.18253
1.18265
1.18277
1.18291
1.18306
1.18321
1.18337
1.18353
1.18371
1.18389
1.18408
1.18427
1.18447
1.18467
1.18487
1.18508
1.18529
1.1855
1.18572
1.18593
1.18615
1.18636
1.18658
1.18679
1.187
1.18721
1.18741
1.18761
1.1878
1.18799
1.18818
1.18835
1.18852
1.18869
1.18884
1.18899
1.18913
1.18926
1.18938
1.18949
1.18959
1.18969
1.18977
1.18985
1.18992
1.18998
1.19004
1.19009
1.19013
1.19017
1.1902
1.19022
1.19024
1.19026
1.19027
1.19028
1.19029
1.19029
1.19029
1.19029
1.19028
1.19027
1.19027
1.19026
1.19024
1.19023
1.19022
1.1902
1.19018
1.19016
1.19014
1.19012
1.1901
1.19008
1.19005
1.19003
1.19
1.18997
1.18994
1.18991
1.18988
1.18985
1.18982
1.18978
1.18975
1.18971
1.18967
1.18963
1.18959
1.18955
1.18951
1.18947
1.18942
1.18938
1.18933
1.18928
1.18924
1.18919
1.18914
1.18909
1.18904
1.18899
1.18893
1.18888
1.18883
1.18878
1.18872
1.18867
1.18862
1.18856
1.18851
1.18845
1.1884
1.18835
1.1883
1.18824
1.18819
1.18814
1.18809
1.18804
1.18798
1.18794
1.18789
1.18784
1.18779
1.18774
1.1877
1.18765
1.18761
1.18757
1.18753
1.18749
1.18745
1.18741
1.18738
1.18734
1.18731
1.18728
1.18725
1.18723
1.1872
1.18718
1.18716
1.18714
1.18713
1.18712
1.18711
1.1871
1.18709
1.18709
1.1871
1.1871
1.18711
1.18712
1.18714
1.18716
1.18718
1.18721
1.18725
1.18728
1.18733
1.18738
1.18743
1.18749
1.18755
1.18763
1.1877
1.18779
1.18788
1.18797
1.18808
1.18819
1.1883
1.18843
1.18856
1.1887
1.18884
1.189
1.18916
1.18932
1.1895
1.18968
1.18986
1.19005
1.19025
1.19046
1.19066
1.19088
1.19109
1.19131
1.19154
1.19176
1.19199
1.19221
1.19244
1.19267
1.19289
1.19312
1.19334
1.19355
1.19377
1.19398
1.19418
1.19438
1.19457
1.19476
1.19494
1.19512
1.19529
1.19545
1.1956
1.19575
1.1959
1.19604
1.19617
1.1963
1.19642
1.19654
1.19666
1.19677
1.19688
1.19698
1.19709
1.19718
1.19728
1.19738
1.19747
1.19756
1.19765
1.19774
1.19782
1.19791
1.19799
1.19807
1.19814
1.19822
1.19829
1.19836
1.19843
1.1985
1.19856
1.19862
1.19867
1.19873
1.19878
1.19882
1.19887
1.19891
1.19895
1.19898
1.19901
1.19905
1.19908
1.19911
1.19913
1.19916
1.19919
1.19923
1.19926
1.1993
1.19934
1.19938
1.19943
1.19949
1.19955
1.19963
1.19971
1.1998
1.1999
1.20002
1.20015
1.20029
1.20045
1.20062
1.20081
1.20102
1.20124
1.20149
1.20176
1.20204
1.20236
1.20269
1.20305
1.20344
1.20385
1.20429
1.20476
1.20526
1.20579
1.20635
1.20694
1.20757
1.20824
1.20894
1.20968
1.21046
1.21129
1.21217
1.21309
1.21408
1.21512
1.21622
1.2174
1.21866
1.22001
1.22146
1.22304
1.22475
1.22664
1.22873
1.23107
1.23372
1.23675
1.24027
1.24439
1.24924
1.25485
1.26106
1.26611
1.26619
1.17204
1.17158
1.17219
1.17367
1.17548
1.1771
1.1785
1.17964
1.18057
1.18132
1.18192
1.18241
1.18281
1.18314
1.1834
1.18362
1.1838
1.18395
1.18406
1.18415
1.18423
1.18428
1.18432
1.18434
1.18436
1.18436
1.18435
1.18433
1.1843
1.18427
1.18423
1.18419
1.18413
1.18408
1.18402
1.18395
1.18388
1.1838
1.18373
1.18365
1.18357
1.18348
1.18339
1.1833
1.18322
1.18312
1.18303
1.18294
1.18285
1.18276
1.18268
1.18259
1.1825
1.18242
1.18234
1.18227
1.18219
1.18213
1.18206
1.182
1.18195
1.18191
1.18187
1.18183
1.18181
1.18179
1.18178
1.18177
1.18178
1.18179
1.18181
1.18184
1.18188
1.18193
1.18199
1.18206
1.18213
1.18222
1.18231
1.18242
1.18253
1.18265
1.18278
1.18292
1.18306
1.18322
1.18338
1.18355
1.18372
1.18391
1.18409
1.18429
1.18449
1.18469
1.18489
1.1851
1.18531
1.18553
1.18574
1.18596
1.18617
1.18639
1.1866
1.18681
1.18703
1.18723
1.18744
1.18763
1.18783
1.18802
1.1882
1.18838
1.18855
1.18871
1.18886
1.18901
1.18914
1.18927
1.18939
1.1895
1.1896
1.18969
1.18978
1.18985
1.18992
1.18998
1.19003
1.19008
1.19012
1.19015
1.19018
1.1902
1.19022
1.19024
1.19025
1.19026
1.19026
1.19026
1.19026
1.19026
1.19025
1.19025
1.19024
1.19023
1.19021
1.1902
1.19019
1.19017
1.19015
1.19013
1.19012
1.19009
1.19007
1.19005
1.19003
1.19
1.18997
1.18995
1.18992
1.18989
1.18986
1.18983
1.18979
1.18976
1.18972
1.18969
1.18965
1.18961
1.18957
1.18953
1.18949
1.18944
1.1894
1.18935
1.18931
1.18926
1.18921
1.18917
1.18912
1.18907
1.18902
1.18897
1.18892
1.18886
1.18881
1.18876
1.18871
1.18865
1.1886
1.18855
1.18849
1.18844
1.18839
1.18833
1.18828
1.18823
1.18817
1.18812
1.18807
1.18802
1.18797
1.18792
1.18787
1.18782
1.18778
1.18773
1.18769
1.18764
1.1876
1.18756
1.18752
1.18748
1.18744
1.1874
1.18737
1.18733
1.1873
1.18727
1.18724
1.18722
1.18719
1.18717
1.18715
1.18713
1.18712
1.18711
1.1871
1.18709
1.18708
1.18708
1.18708
1.18709
1.1871
1.18711
1.18713
1.18715
1.18717
1.1872
1.18724
1.18728
1.18732
1.18737
1.18742
1.18748
1.18755
1.18762
1.1877
1.18778
1.18787
1.18797
1.18807
1.18818
1.1883
1.18843
1.18856
1.1887
1.18885
1.189
1.18916
1.18933
1.18951
1.18969
1.18987
1.19007
1.19027
1.19047
1.19068
1.1909
1.19112
1.19134
1.19156
1.19179
1.19202
1.19224
1.19247
1.1927
1.19293
1.19315
1.19337
1.19359
1.1938
1.19401
1.19422
1.19442
1.19461
1.19479
1.19498
1.19515
1.19532
1.19548
1.19563
1.19578
1.19592
1.19606
1.19619
1.19632
1.19644
1.19656
1.19667
1.19678
1.19689
1.19699
1.19709
1.19719
1.19729
1.19738
1.19748
1.19757
1.19765
1.19774
1.19783
1.19791
1.19799
1.19807
1.19815
1.19822
1.1983
1.19837
1.19843
1.1985
1.19856
1.19862
1.19868
1.19873
1.19878
1.19882
1.19887
1.19891
1.19894
1.19898
1.19901
1.19904
1.19907
1.1991
1.19912
1.19915
1.19918
1.19921
1.19924
1.19928
1.19932
1.19936
1.19941
1.19947
1.19953
1.19961
1.19969
1.19978
1.19988
1.2
1.20012
1.20027
1.20042
1.2006
1.20079
1.20099
1.20122
1.20147
1.20173
1.20202
1.20234
1.20267
1.20303
1.20342
1.20383
1.20427
1.20474
1.20524
1.20577
1.20633
1.20693
1.20756
1.20822
1.20893
1.20967
1.21045
1.21128
1.21215
1.21307
1.21405
1.21508
1.21618
1.21735
1.21859
1.21993
1.22136
1.2229
1.22458
1.22641
1.22843
1.23066
1.23315
1.23594
1.23909
1.24263
1.24653
1.25054
1.25412
1.25656
1.2559
1.17496
1.17446
1.17461
1.17541
1.17647
1.1776
1.17868
1.17962
1.18043
1.18111
1.18168
1.18216
1.18255
1.18288
1.18316
1.18339
1.18358
1.18374
1.18386
1.18397
1.18405
1.18411
1.18416
1.1842
1.18422
1.18422
1.18422
1.18421
1.18419
1.18416
1.18413
1.18409
1.18404
1.18399
1.18393
1.18387
1.1838
1.18373
1.18366
1.18358
1.1835
1.18342
1.18333
1.18325
1.18316
1.18307
1.18298
1.18289
1.1828
1.18271
1.18263
1.18254
1.18246
1.18238
1.1823
1.18222
1.18215
1.18209
1.18202
1.18197
1.18192
1.18187
1.18183
1.1818
1.18178
1.18176
1.18175
1.18175
1.18175
1.18177
1.18179
1.18182
1.18187
1.18191
1.18197
1.18204
1.18212
1.18221
1.1823
1.18241
1.18252
1.18265
1.18278
1.18292
1.18307
1.18322
1.18339
1.18356
1.18373
1.18392
1.18411
1.1843
1.1845
1.18471
1.18491
1.18512
1.18534
1.18555
1.18577
1.18598
1.1862
1.18642
1.18663
1.18684
1.18705
1.18726
1.18747
1.18766
1.18786
1.18805
1.18823
1.1884
1.18857
1.18873
1.18889
1.18903
1.18916
1.18929
1.18941
1.18951
1.18961
1.1897
1.18978
1.18985
1.18992
1.18998
1.19003
1.19007
1.19011
1.19014
1.19017
1.19019
1.1902
1.19022
1.19023
1.19023
1.19024
1.19024
1.19024
1.19023
1.19023
1.19022
1.19021
1.1902
1.19018
1.19017
1.19016
1.19014
1.19012
1.1901
1.19009
1.19006
1.19004
1.19002
1.19
1.18997
1.18995
1.18992
1.18989
1.18986
1.18983
1.1898
1.18976
1.18973
1.1897
1.18966
1.18962
1.18958
1.18954
1.1895
1.18946
1.18942
1.18937
1.18933
1.18928
1.18924
1.18919
1.18914
1.18909
1.18904
1.18899
1.18894
1.18889
1.18884
1.18879
1.18874
1.18868
1.18863
1.18858
1.18852
1.18847
1.18842
1.18837
1.18831
1.18826
1.18821
1.18816
1.1881
1.18805
1.188
1.18795
1.1879
1.18786
1.18781
1.18776
1.18771
1.18767
1.18763
1.18758
1.18754
1.1875
1.18746
1.18742
1.18739
1.18735
1.18732
1.18729
1.18726
1.18723
1.1872
1.18718
1.18716
1.18714
1.18712
1.1871
1.18709
1.18708
1.18707
1.18707
1.18707
1.18707
1.18707
1.18708
1.1871
1.18711
1.18713
1.18716
1.18719
1.18722
1.18726
1.1873
1.18735
1.18741
1.18747
1.18753
1.1876
1.18768
1.18777
1.18786
1.18796
1.18806
1.18817
1.18829
1.18842
1.18855
1.18869
1.18884
1.189
1.18916
1.18933
1.18951
1.18969
1.18988
1.19008
1.19028
1.19048
1.1907
1.19091
1.19113
1.19136
1.19158
1.19181
1.19204
1.19227
1.1925
1.19273
1.19296
1.19319
1.19341
1.19363
1.19384
1.19405
1.19426
1.19446
1.19465
1.19484
1.19502
1.19519
1.19535
1.19551
1.19567
1.19581
1.19596
1.19609
1.19622
1.19635
1.19647
1.19658
1.19669
1.1968
1.19691
1.19701
1.19711
1.19721
1.1973
1.19739
1.19749
1.19758
1.19766
1.19775
1.19784
1.19792
1.198
1.19808
1.19816
1.19823
1.1983
1.19837
1.19844
1.19851
1.19857
1.19863
1.19868
1.19873
1.19878
1.19883
1.19887
1.19891
1.19894
1.19898
1.19901
1.19904
1.19906
1.19909
1.19912
1.19914
1.19917
1.1992
1.19923
1.19926
1.1993
1.19934
1.19939
1.19945
1.19951
1.19958
1.19966
1.19975
1.19985
1.19996
1.20009
1.20023
1.20039
1.20056
1.20075
1.20095
1.20118
1.20143
1.20169
1.20198
1.2023
1.20263
1.20299
1.20338
1.20379
1.20423
1.2047
1.2052
1.20573
1.20629
1.20688
1.20751
1.20817
1.20887
1.20961
1.21039
1.21121
1.21208
1.21299
1.21396
1.21498
1.21607
1.21722
1.21844
1.21974
1.22114
1.22263
1.22425
1.226
1.22791
1.22999
1.23227
1.23478
1.2375
1.2404
1.24337
1.24617
1.24833
1.24941
1.24914
1.17695
1.17643
1.17643
1.17683
1.17747
1.17824
1.17903
1.17978
1.18045
1.18104
1.18156
1.182
1.18238
1.1827
1.18297
1.1832
1.18339
1.18356
1.18369
1.1838
1.18389
1.18396
1.18402
1.18406
1.18408
1.1841
1.1841
1.1841
1.18408
1.18406
1.18403
1.18399
1.18395
1.1839
1.18385
1.18379
1.18373
1.18366
1.18359
1.18351
1.18343
1.18335
1.18327
1.18319
1.1831
1.18301
1.18293
1.18284
1.18275
1.18266
1.18258
1.18249
1.18241
1.18233
1.18225
1.18218
1.18211
1.18204
1.18198
1.18193
1.18188
1.18183
1.1818
1.18176
1.18174
1.18172
1.18172
1.18171
1.18172
1.18174
1.18176
1.1818
1.18184
1.18189
1.18195
1.18202
1.1821
1.18219
1.18229
1.1824
1.18251
1.18264
1.18277
1.18291
1.18306
1.18322
1.18339
1.18356
1.18374
1.18393
1.18412
1.18432
1.18452
1.18472
1.18493
1.18515
1.18536
1.18558
1.18579
1.18601
1.18623
1.18645
1.18666
1.18688
1.18709
1.18729
1.1875
1.1877
1.18789
1.18808
1.18826
1.18844
1.18861
1.18877
1.18892
1.18906
1.18919
1.18932
1.18943
1.18953
1.18963
1.18972
1.1898
1.18986
1.18993
1.18998
1.19003
1.19007
1.1901
1.19013
1.19015
1.19017
1.19019
1.1902
1.19021
1.19021
1.19021
1.19021
1.19021
1.1902
1.1902
1.19019
1.19018
1.19017
1.19015
1.19014
1.19012
1.19011
1.19009
1.19007
1.19005
1.19003
1.19001
1.18999
1.18996
1.18994
1.18991
1.18989
1.18986
1.18983
1.1898
1.18977
1.18973
1.1897
1.18966
1.18963
1.18959
1.18955
1.18951
1.18947
1.18943
1.18939
1.18935
1.1893
1.18926
1.18921
1.18916
1.18912
1.18907
1.18902
1.18897
1.18892
1.18887
1.18882
1.18876
1.18871
1.18866
1.18861
1.18855
1.1885
1.18845
1.1884
1.18834
1.18829
1.18824
1.18819
1.18813
1.18808
1.18803
1.18798
1.18793
1.18788
1.18784
1.18779
1.18774
1.18769
1.18765
1.18761
1.18756
1.18752
1.18748
1.18744
1.1874
1.18737
1.18733
1.1873
1.18727
1.18724
1.18721
1.18718
1.18716
1.18714
1.18712
1.1871
1.18708
1.18707
1.18706
1.18705
1.18705
1.18705
1.18705
1.18705
1.18706
1.18707
1.18709
1.18711
1.18714
1.18717
1.1872
1.18724
1.18728
1.18733
1.18738
1.18744
1.18751
1.18758
1.18766
1.18775
1.18784
1.18794
1.18804
1.18816
1.18828
1.1884
1.18854
1.18868
1.18883
1.18899
1.18915
1.18932
1.1895
1.18969
1.18988
1.19008
1.19028
1.19049
1.19071
1.19093
1.19115
1.19138
1.19161
1.19184
1.19207
1.1923
1.19254
1.19277
1.193
1.19323
1.19345
1.19367
1.19389
1.1941
1.19431
1.1945
1.1947
1.19488
1.19506
1.19523
1.1954
1.19556
1.19571
1.19585
1.19599
1.19613
1.19626
1.19638
1.1965
1.19661
1.19672
1.19683
1.19693
1.19703
1.19713
1.19722
1.19732
1.19741
1.1975
1.19759
1.19768
1.19776
1.19785
1.19793
1.19801
1.19809
1.19817
1.19824
1.19832
1.19839
1.19845
1.19852
1.19858
1.19864
1.19869
1.19874
1.19879
1.19883
1.19887
1.19891
1.19895
1.19898
1.19901
1.19903
1.19906
1.19908
1.19911
1.19913
1.19916
1.19918
1.19921
1.19924
1.19928
1.19932
1.19937
1.19942
1.19948
1.19955
1.19962
1.19971
1.19981
1.19992
1.20005
1.20019
1.20034
1.20051
1.2007
1.2009
1.20113
1.20137
1.20164
1.20193
1.20224
1.20257
1.20293
1.20331
1.20372
1.20416
1.20463
1.20513
1.20565
1.20621
1.2068
1.20743
1.20809
1.20878
1.20951
1.21029
1.2111
1.21196
1.21286
1.21382
1.21482
1.21588
1.21701
1.2182
1.21946
1.22081
1.22224
1.22378
1.22543
1.22721
1.22912
1.23117
1.23336
1.23565
1.23798
1.2402
1.24213
1.2435
1.24403
1.24379
1.17834
1.17789
1.17779
1.17798
1.17837
1.17889
1.17946
1.18004
1.18058
1.18108
1.18153
1.18193
1.18227
1.18257
1.18283
1.18306
1.18325
1.18341
1.18355
1.18366
1.18376
1.18383
1.18389
1.18393
1.18397
1.18399
1.18399
1.18399
1.18398
1.18397
1.18394
1.18391
1.18387
1.18382
1.18377
1.18371
1.18365
1.18359
1.18352
1.18345
1.18337
1.18329
1.18321
1.18313
1.18305
1.18296
1.18287
1.18279
1.1827
1.18262
1.18253
1.18245
1.18237
1.18229
1.18221
1.18214
1.18207
1.182
1.18194
1.18189
1.18184
1.18179
1.18176
1.18173
1.1817
1.18169
1.18168
1.18168
1.18169
1.18171
1.18173
1.18177
1.18181
1.18187
1.18193
1.182
1.18208
1.18217
1.18227
1.18238
1.1825
1.18262
1.18276
1.1829
1.18306
1.18322
1.18339
1.18356
1.18374
1.18393
1.18413
1.18433
1.18453
1.18474
1.18495
1.18516
1.18538
1.1856
1.18582
1.18604
1.18626
1.18648
1.18669
1.18691
1.18712
1.18733
1.18753
1.18773
1.18793
1.18812
1.1883
1.18848
1.18864
1.1888
1.18895
1.18909
1.18923
1.18935
1.18946
1.18956
1.18965
1.18974
1.18981
1.18988
1.18994
1.18999
1.19003
1.19007
1.1901
1.19012
1.19014
1.19016
1.19017
1.19018
1.19019
1.19019
1.19019
1.19019
1.19018
1.19017
1.19017
1.19016
1.19015
1.19013
1.19012
1.19011
1.19009
1.19007
1.19006
1.19004
1.19002
1.19
1.18997
1.18995
1.18993
1.1899
1.18988
1.18985
1.18982
1.18979
1.18976
1.18973
1.1897
1.18967
1.18963
1.18959
1.18956
1.18952
1.18948
1.18944
1.1894
1.18936
1.18931
1.18927
1.18923
1.18918
1.18913
1.18908
1.18904
1.18899
1.18894
1.18889
1.18884
1.18879
1.18874
1.18868
1.18863
1.18858
1.18853
1.18847
1.18842
1.18837
1.18832
1.18826
1.18821
1.18816
1.18811
1.18806
1.18801
1.18796
1.18791
1.18786
1.18781
1.18776
1.18772
1.18767
1.18763
1.18758
1.18754
1.1875
1.18746
1.18742
1.18738
1.18735
1.18731
1.18728
1.18725
1.18722
1.18719
1.18716
1.18714
1.18711
1.18709
1.18708
1.18706
1.18705
1.18704
1.18703
1.18702
1.18702
1.18702
1.18703
1.18704
1.18705
1.18706
1.18708
1.18711
1.18714
1.18717
1.18721
1.18725
1.1873
1.18736
1.18742
1.18748
1.18755
1.18763
1.18772
1.18781
1.18791
1.18801
1.18813
1.18825
1.18838
1.18851
1.18866
1.18881
1.18897
1.18913
1.18931
1.18949
1.18967
1.18987
1.19007
1.19028
1.19049
1.19071
1.19093
1.19116
1.19139
1.19162
1.19186
1.19209
1.19233
1.19257
1.1928
1.19304
1.19327
1.1935
1.19372
1.19394
1.19415
1.19436
1.19456
1.19475
1.19494
1.19511
1.19529
1.19545
1.19561
1.19576
1.1959
1.19604
1.19617
1.19629
1.19642
1.19653
1.19664
1.19675
1.19685
1.19696
1.19706
1.19715
1.19725
1.19734
1.19743
1.19752
1.19761
1.19769
1.19778
1.19786
1.19794
1.19803
1.19811
1.19818
1.19826
1.19833
1.1984
1.19847
1.19853
1.19859
1.19865
1.19871
1.19876
1.1988
1.19885
1.19889
1.19892
1.19895
1.19898
1.19901
1.19904
1.19906
1.19908
1.1991
1.19912
1.19915
1.19917
1.1992
1.19923
1.19926
1.1993
1.19934
1.19939
1.19944
1.19951
1.19958
1.19967
1.19977
1.19987
1.2
1.20013
1.20028
1.20045
1.20064
1.20084
1.20106
1.2013
1.20156
1.20185
1.20216
1.20249
1.20284
1.20323
1.20363
1.20407
1.20453
1.20503
1.20555
1.2061
1.20669
1.20731
1.20796
1.20865
1.20938
1.21014
1.21094
1.21179
1.21268
1.21361
1.21459
1.21563
1.21672
1.21787
1.21909
1.22038
1.22175
1.2232
1.22473
1.22637
1.22809
1.22991
1.23179
1.23369
1.23553
1.2372
1.23855
1.23944
1.23973
1.23941
1.17935
1.17897
1.17884
1.17891
1.17914
1.17949
1.1799
1.18034
1.18077
1.18119
1.18157
1.18191
1.18222
1.1825
1.18274
1.18295
1.18314
1.18329
1.18343
1.18354
1.18364
1.18371
1.18378
1.18382
1.18386
1.18388
1.18389
1.18389
1.18389
1.18387
1.18385
1.18382
1.18379
1.18374
1.18369
1.18364
1.18358
1.18352
1.18345
1.18338
1.18331
1.18323
1.18315
1.18307
1.18299
1.18291
1.18282
1.18274
1.18265
1.18257
1.18248
1.1824
1.18232
1.18224
1.18216
1.18209
1.18202
1.18196
1.1819
1.18184
1.18179
1.18175
1.18171
1.18168
1.18166
1.18165
1.18164
1.18164
1.18165
1.18167
1.1817
1.18174
1.18178
1.18184
1.1819
1.18198
1.18206
1.18215
1.18225
1.18236
1.18248
1.18261
1.18275
1.18289
1.18305
1.18321
1.18338
1.18356
1.18374
1.18393
1.18413
1.18433
1.18454
1.18475
1.18497
1.18518
1.1854
1.18562
1.18584
1.18606
1.18629
1.18651
1.18673
1.18694
1.18716
1.18737
1.18757
1.18777
1.18797
1.18816
1.18834
1.18852
1.18869
1.18884
1.18899
1.18913
1.18926
1.18938
1.18949
1.18959
1.18968
1.18976
1.18983
1.1899
1.18995
1.19
1.19004
1.19007
1.1901
1.19012
1.19014
1.19015
1.19016
1.19016
1.19017
1.19017
1.19016
1.19016
1.19015
1.19014
1.19014
1.19012
1.19011
1.1901
1.19009
1.19007
1.19005
1.19004
1.19002
1.19
1.18998
1.18996
1.18994
1.18991
1.18989
1.18987
1.18984
1.18981
1.18979
1.18976
1.18973
1.18969
1.18966
1.18963
1.18959
1.18956
1.18952
1.18948
1.18945
1.1894
1.18936
1.18932
1.18928
1.18924
1.18919
1.18914
1.1891
1.18905
1.189
1.18895
1.18891
1.18886
1.18881
1.18875
1.1887
1.18865
1.1886
1.18855
1.1885
1.18844
1.18839
1.18834
1.18829
1.18824
1.18818
1.18813
1.18808
1.18803
1.18798
1.18793
1.18788
1.18783
1.18779
1.18774
1.18769
1.18765
1.1876
1.18756
1.18752
1.18748
1.18744
1.1874
1.18736
1.18732
1.18729
1.18725
1.18722
1.18719
1.18716
1.18714
1.18711
1.18709
1.18707
1.18705
1.18703
1.18702
1.18701
1.187
1.187
1.18699
1.18699
1.187
1.18701
1.18702
1.18703
1.18705
1.18708
1.1871
1.18714
1.18718
1.18722
1.18727
1.18732
1.18738
1.18745
1.18752
1.1876
1.18768
1.18777
1.18787
1.18798
1.18809
1.18822
1.18834
1.18848
1.18863
1.18878
1.18894
1.18911
1.18928
1.18947
1.18966
1.18985
1.19006
1.19027
1.19048
1.19071
1.19093
1.19116
1.1914
1.19163
1.19187
1.19211
1.19236
1.1926
1.19284
1.19307
1.19331
1.19354
1.19377
1.19399
1.1942
1.19441
1.19461
1.19481
1.19499
1.19517
1.19534
1.19551
1.19566
1.19581
1.19595
1.19609
1.19622
1.19634
1.19646
1.19657
1.19668
1.19678
1.19689
1.19699
1.19708
1.19718
1.19727
1.19736
1.19745
1.19754
1.19763
1.19771
1.1978
1.19788
1.19796
1.19804
1.19812
1.1982
1.19828
1.19835
1.19842
1.19849
1.19855
1.19861
1.19867
1.19872
1.19877
1.19882
1.19886
1.1989
1.19893
1.19896
1.19899
1.19902
1.19904
1.19906
1.19908
1.1991
1.19912
1.19914
1.19916
1.19918
1.19921
1.19923
1.19927
1.19931
1.19935
1.19941
1.19947
1.19954
1.19962
1.19971
1.19982
1.19994
1.20007
1.20022
1.20038
1.20056
1.20076
1.20098
1.20122
1.20148
1.20176
1.20206
1.20239
1.20274
1.20312
1.20353
1.20396
1.20442
1.20491
1.20542
1.20597
1.20655
1.20716
1.20781
1.20849
1.2092
1.20995
1.21074
1.21157
1.21244
1.21335
1.21431
1.21532
1.21637
1.21748
1.21865
1.21987
1.22116
1.22251
1.22393
1.22542
1.22697
1.22855
1.23016
1.23172
1.23318
1.23444
1.23541
1.23599
1.23614
1.23579
1.18012
1.1798
1.17965
1.17966
1.1798
1.18003
1.18033
1.18066
1.181
1.18133
1.18165
1.18195
1.18222
1.18247
1.18269
1.18289
1.18306
1.18321
1.18334
1.18345
1.18354
1.18362
1.18368
1.18373
1.18376
1.18379
1.1838
1.18381
1.1838
1.18379
1.18377
1.18374
1.18371
1.18367
1.18363
1.18357
1.18352
1.18346
1.18339
1.18332
1.18325
1.18318
1.1831
1.18302
1.18294
1.18286
1.18277
1.18269
1.1826
1.18252
1.18244
1.18235
1.18227
1.18219
1.18212
1.18205
1.18198
1.18191
1.18185
1.1818
1.18175
1.18171
1.18167
1.18164
1.18162
1.18161
1.1816
1.18161
1.18162
1.18164
1.18167
1.1817
1.18175
1.18181
1.18187
1.18195
1.18203
1.18212
1.18223
1.18234
1.18246
1.18259
1.18273
1.18288
1.18303
1.1832
1.18337
1.18355
1.18374
1.18393
1.18413
1.18434
1.18455
1.18476
1.18498
1.1852
1.18542
1.18564
1.18587
1.18609
1.18631
1.18653
1.18675
1.18697
1.18719
1.1874
1.18761
1.18781
1.18801
1.1882
1.18838
1.18856
1.18873
1.18889
1.18904
1.18917
1.1893
1.18942
1.18953
1.18963
1.18971
1.18979
1.18986
1.18991
1.18997
1.19001
1.19004
1.19007
1.1901
1.19011
1.19013
1.19014
1.19014
1.19015
1.19015
1.19014
1.19014
1.19013
1.19013
1.19012
1.19011
1.19009
1.19008
1.19007
1.19005
1.19003
1.19002
1.19
1.18998
1.18996
1.18994
1.18992
1.1899
1.18987
1.18985
1.18983
1.1898
1.18977
1.18975
1.18972
1.18969
1.18965
1.18962
1.18959
1.18955
1.18952
1.18948
1.18944
1.18941
1.18937
1.18933
1.18928
1.18924
1.1892
1.18915
1.18911
1.18906
1.18901
1.18897
1.18892
1.18887