# vtk DataFile Version 2.0
LBE mesh
ASCII
DATASET STRUCTURED_POINTS
DIMENSIONS 400 100 1
ASPECT_RATIO 1 1 1
ORIGIN 0 0 0
POINT_DATA 40000
SCALARS rho double 1
LOOKUP_TABLE default
1.01906
1.06924
1.0844
1.0885
1.09072
1.09238
1.09352
1.09426
1.09475
1.0951
1.09535
1.09553
1.09565
1.09573
1.09578
1.0958
1.0958
1.09578
1.09574
1.09569
1.09563
1.09556
1.09549
1.0954
1.09531
1.09522
1.09512
1.09502
1.09492
1.09481
1.0947
1.0946
1.09449
1.09438
1.09427
1.09416
1.09405
1.09394
1.09383
1.09372
1.09361
1.09351
1.0934
1.0933
1.09319
1.09309
1.09299
1.09289
1.09279
1.0927
1.0926
1.09251
1.09241
1.09232
1.09223
1.09215
1.09206
1.09198
1.0919
1.09182
1.09174
1.09167
1.0916
1.09154
1.09147
1.09141
1.09136
1.09131
1.09126
1.09122
1.09118
1.09115
1.09113
1.09111
1.09109
1.09109
1.09109
1.09109
1.09111
1.09113
1.09116
1.0912
1.09124
1.0913
1.09136
1.09143
1.0915
1.09159
1.09168
1.09178
1.09189
1.092
1.09212
1.09225
1.09238
1.09252
1.09266
1.0928
1.09295
1.09311
1.09326
1.09342
1.09358
1.09374
1.0939
1.09406
1.09422
1.09438
1.09454
1.09469
1.09484
1.09499
1.09514
1.09528
1.09541
1.09555
1.09567
1.0958
1.09591
1.09603
1.09613
1.09624
1.09633
1.09643
1.09652
1.0966
1.09669
1.09677
1.09684
1.09692
1.09699
1.09706
1.09713
1.0972
1.09727
1.09734
1.0974
1.09747
1.09754
1.0976
1.09767
1.09773
1.09779
1.09786
1.09792
1.09798
1.09804
1.09809
1.09815
1.0982
1.09825
1.0983
1.09835
1.09839
1.09843
1.09847
1.0985
1.09853
1.09855
1.09858
1.09859
1.09861
1.09862
1.09862
1.09862
1.09862
1.09861
1.0986
1.09859
1.09857
1.09855
1.09852
1.0985
1.09846
1.09843
1.09839
1.09836
1.09832
1.09827
1.09823
1.09818
1.09814
1.09809
1.09804
1.09799
1.09794
1.09789
1.09783
1.09778
1.09773
1.09768
1.09762
1.09757
1.09751
1.09746
1.0974
1.09734
1.09729
1.09723
1.09717
1.09711
1.09704
1.09698
1.09691
1.09685
1.09678
1.09671
1.09663
1.09656
1.09648
1.0964
1.09632
1.09623
1.09615
1.09606
1.09597
1.09587
1.09578
1.09569
1.09559
1.09549
1.09539
1.0953
1.0952
1.0951
1.095
1.0949
1.09481
1.09471
1.09462
1.09453
1.09444
1.09435
1.09427
1.09419
1.09411
1.09404
1.09397
1.0939
1.09384
1.09378
1.09373
1.09368
1.09363
1.09359
1.09356
1.09353
1.09351
1.09349
1.09347
1.09347
1.09346
1.09347
1.09347
1.09349
1.09351
1.09353
1.09356
1.09359
1.09363
1.09367
1.09372
1.09377
1.09383
1.09389
1.09395
1.09402
1.09409
1.09416
1.09423
1.09431
1.09439
1.09447
1.09455
1.09463
1.0947
1.09478
1.09486
1.09494
1.09501
1.09508
1.09515
1.09522
1.09528
1.09534
1.0954
1.09545
1.09551
1.09555
1.0956
1.09564
1.09568
1.09572
1.09576
1.09579
1.09582
1.09585
1.09588
1.09591
1.09594
1.09596
1.09598
1.09601
1.09603
1.09605
1.09607
1.09609
1.09611
1.09612
1.09614
1.09615
1.09616
1.09616
1.09617
1.09617
1.09617
1.09616
1.09615
1.09614
1.09613
1.09611
1.09608
1.09606
1.09603
1.096
1.09597
1.09594
1.0959
1.09587
1.09583
1.09579
1.09576
1.09572
1.09569
1.09566
1.09563
1.09561
1.09559
1.09557
1.09556
1.09555
1.09555
1.09556
1.09557
1.09559
1.09561
1.09565
1.09569
1.09574
1.0958
1.09587
1.09595
1.09604
1.09615
1.09626
1.0964
1.09654
1.09671
1.09689
1.09709
1.09731
1.09755
1.09782
1.09811
1.09843
1.09877
1.09914
1.09955
1.09999
1.10046
1.10097
1.10152
1.1021
1.10273
1.10341
1.10413
1.1049
1.10572
1.1066
1.10753
1.10853
1.10959
1.11072
1.11192
1.11322
1.11461
1.11611
1.11773
1.1195
1.12145
1.12362
1.12607
1.12889
1.13219
1.1362
1.14136
1.14845
1.15836
1.17398
1.20766
1.05447
1.0665
1.07704
1.08455
1.08854
1.09073
1.09212
1.09311
1.09382
1.09433
1.0947
1.09497
1.09516
1.0953
1.0954
1.09546
1.09549
1.0955
1.09549
1.09546
1.09542
1.09537
1.0953
1.09523
1.09515
1.09507
1.09498
1.09489
1.0948
1.0947
1.0946
1.09449
1.09439
1.09429
1.09418
1.09408
1.09397
1.09386
1.09376
1.09365
1.09355
1.09345
1.09334
1.09324
1.09314
1.09304
1.09294
1.09285
1.09275
1.09266
1.09256
1.09247
1.09238
1.09229
1.09221
1.09212
1.09204
1.09196
1.09188
1.0918
1.09173
1.09166
1.09159
1.09152
1.09146
1.0914
1.09135
1.0913
1.09126
1.09122
1.09118
1.09115
1.09113
1.09111
1.0911
1.09109
1.0911
1.09111
1.09112
1.09114
1.09118
1.09121
1.09126
1.09132
1.09138
1.09145
1.09152
1.09161
1.0917
1.0918
1.09191
1.09202
1.09214
1.09227
1.0924
1.09253
1.09267
1.09282
1.09297
1.09312
1.09327
1.09343
1.09359
1.09374
1.0939
1.09406
1.09422
1.09438
1.09453
1.09469
1.09484
1.09498
1.09513
1.09527
1.0954
1.09553
1.09566
1.09578
1.09589
1.096
1.09611
1.09621
1.09631
1.0964
1.09649
1.09657
1.09666
1.09673
1.09681
1.09689
1.09696
1.09703
1.0971
1.09717
1.09724
1.09731
1.09737
1.09744
1.09751
1.09757
1.09764
1.0977
1.09777
1.09783
1.09789
1.09795
1.09801
1.09807
1.09812
1.09818
1.09823
1.09828
1.09832
1.09836
1.0984
1.09844
1.09847
1.0985
1.09852
1.09855
1.09856
1.09858
1.09859
1.09859
1.09859
1.09859
1.09858
1.09857
1.09856
1.09854
1.09852
1.09849
1.09846
1.09843
1.0984
1.09836
1.09833
1.09829
1.09824
1.0982
1.09815
1.09811
1.09806
1.09801
1.09796
1.09791
1.09786
1.09781
1.09776
1.09771
1.09765
1.0976
1.09755
1.09749
1.09744
1.09738
1.09732
1.09727
1.09721
1.09715
1.09709
1.09703
1.09696
1.0969
1.09683
1.09676
1.09669
1.09661
1.09654
1.09646
1.09638
1.0963
1.09622
1.09613
1.09604
1.09595
1.09586
1.09576
1.09567
1.09557
1.09548
1.09538
1.09528
1.09518
1.09508
1.09499
1.09489
1.09479
1.0947
1.09461
1.09452
1.09443
1.09434
1.09426
1.09418
1.0941
1.09403
1.09396
1.09389
1.09383
1.09377
1.09372
1.09367
1.09363
1.09359
1.09356
1.09353
1.0935
1.09349
1.09347
1.09347
1.09347
1.09347
1.09348
1.09349
1.09351
1.09354
1.09357
1.0936
1.09364
1.09368
1.09373
1.09379
1.09384
1.0939
1.09397
1.09404
1.09411
1.09418
1.09425
1.09433
1.09441
1.09449
1.09457
1.09465
1.09472
1.0948
1.09488
1.09495
1.09503
1.0951
1.09517
1.09523
1.0953
1.09536
1.09541
1.09547
1.09552
1.09556
1.09561
1.09565
1.09569
1.09573
1.09576
1.09579
1.09583
1.09585
1.09588
1.09591
1.09594
1.09596
1.09598
1.09601
1.09603
1.09605
1.09607
1.09609
1.0961
1.09612
1.09613
1.09614
1.09615
1.09616
1.09616
1.09616
1.09616
1.09615
1.09614
1.09613
1.09611
1.09609
1.09607
1.09604
1.09602
1.09599
1.09595
1.09592
1.09588
1.09585
1.09581
1.09578
1.09574
1.09571
1.09568
1.09565
1.09562
1.09559
1.09557
1.09556
1.09555
1.09554
1.09554
1.09555
1.09556
1.09558
1.0956
1.09564
1.09568
1.09573
1.0958
1.09587
1.09595
1.09604
1.09615
1.09627
1.0964
1.09655
1.09672
1.09691
1.09711
1.09733
1.09758
1.09785
1.09814
1.09846
1.09881
1.09919
1.0996
1.10005
1.10052
1.10104
1.10159
1.10219
1.10283
1.10351
1.10424
1.10502
1.10585
1.10673
1.10768
1.10868
1.10976
1.1109
1.11213
1.11344
1.11486
1.11639
1.11805
1.11987
1.12188
1.12413
1.12668
1.12964
1.13316
1.13747
1.1429
1.15001
1.16052
1.17857
1.2064
1.07217
1.07291
1.07898
1.08392
1.08715
1.08944
1.09107
1.09222
1.09304
1.09365
1.0941
1.09445
1.0947
1.09489
1.09503
1.09513
1.09519
1.09522
1.09523
1.09523
1.0952
1.09517
1.09512
1.09506
1.095
1.09492
1.09484
1.09476
1.09467
1.09458
1.09449
1.09439
1.09429
1.09419
1.09409
1.09399
1.09389
1.09379
1.09369
1.09359
1.09348
1.09338
1.09328
1.09319
1.09309
1.09299
1.09289
1.0928
1.09271
1.09261
1.09252
1.09243
1.09234
1.09226
1.09217
1.09209
1.09201
1.09193
1.09185
1.09177
1.0917
1.09163
1.09157
1.0915
1.09144
1.09139
1.09133
1.09129
1.09124
1.09121
1.09117
1.09115
1.09112
1.09111
1.0911
1.09109
1.0911
1.09111
1.09113
1.09115
1.09118
1.09122
1.09127
1.09133
1.09139
1.09146
1.09154
1.09163
1.09172
1.09182
1.09193
1.09204
1.09216
1.09229
1.09242
1.09256
1.0927
1.09284
1.09299
1.09314
1.09329
1.09345
1.0936
1.09376
1.09392
1.09407
1.09423
1.09439
1.09454
1.09469
1.09484
1.09498
1.09512
1.09526
1.09539
1.09552
1.09564
1.09576
1.09588
1.09598
1.09609
1.09619
1.09628
1.09637
1.09646
1.09654
1.09662
1.0967
1.09678
1.09685
1.09692
1.097
1.09706
1.09713
1.0972
1.09727
1.09734
1.0974
1.09747
1.09753
1.0976
1.09766
1.09773
1.09779
1.09785
1.09791
1.09797
1.09802
1.09808
1.09813
1.09818
1.09823
1.09828
1.09832
1.09836
1.09839
1.09842
1.09845
1.09848
1.0985
1.09852
1.09853
1.09854
1.09854
1.09854
1.09854
1.09853
1.09852
1.09851
1.09849
1.09847
1.09844
1.09841
1.09838
1.09835
1.09832
1.09828
1.09824
1.0982
1.09815
1.09811
1.09806
1.09801
1.09797
1.09792
1.09787
1.09782
1.09777
1.09772
1.09766
1.09761
1.09756
1.09751
1.09745
1.0974
1.09734
1.09729
1.09723
1.09717
1.09711
1.09705
1.09699
1.09692
1.09686
1.09679
1.09672
1.09665
1.09658
1.0965
1.09643
1.09635
1.09626
1.09618
1.09609
1.096
1.09591
1.09582
1.09573
1.09563
1.09554
1.09544
1.09534
1.09525
1.09515
1.09505
1.09495
1.09486
1.09476
1.09467
1.09457
1.09448
1.0944
1.09431
1.09423
1.09415
1.09407
1.094
1.09393
1.09386
1.0938
1.09375
1.09369
1.09365
1.0936
1.09357
1.09353
1.09351
1.09348
1.09347
1.09345
1.09345
1.09345
1.09345
1.09346
1.09348
1.0935
1.09352
1.09356
1.09359
1.09363
1.09368
1.09373
1.09378
1.09384
1.0939
1.09397
1.09404
1.09411
1.09418
1.09426
1.09434
1.09442
1.0945
1.09458
1.09466
1.09474
1.09482
1.09489
1.09497
1.09504
1.09511
1.09518
1.09525
1.09531
1.09537
1.09543
1.09548
1.09553
1.09558
1.09562
1.09566
1.0957
1.09574
1.09577
1.0958
1.09583
1.09586
1.09589
1.09592
1.09594
1.09596
1.09599
1.09601
1.09603
1.09605
1.09607
1.09609
1.0961
1.09612
1.09613
1.09614
1.09615
1.09615
1.09616
1.09615
1.09615
1.09614
1.09613
1.09612
1.0961
1.09608
1.09606
1.09604
1.09601
1.09598
1.09594
1.09591
1.09587
1.09584
1.0958
1.09576
1.09573
1.09569
1.09566
1.09563
1.0956
1.09558
1.09556
1.09554
1.09553
1.09553
1.09553
1.09553
1.09554
1.09556
1.09559
1.09562
1.09567
1.09572
1.09578
1.09585
1.09594
1.09603
1.09614
1.09626
1.0964
1.09655
1.09671
1.0969
1.09711
1.09733
1.09758
1.09785
1.09815
1.09847
1.09882
1.09921
1.09962
1.10007
1.10055
1.10107
1.10163
1.10223
1.10287
1.10356
1.1043
1.10508
1.10592
1.10681
1.10776
1.10877
1.10985
1.11101
1.11224
1.11356
1.11499
1.11653
1.1182
1.12003
1.12206
1.12432
1.12689
1.12984
1.13332
1.1375
1.14272
1.14945
1.15795
1.16717
1.17529
1.08052
1.07987
1.08197
1.08452
1.08704
1.08903
1.0905
1.09162
1.09247
1.09312
1.09362
1.094
1.0943
1.09453
1.09469
1.09482
1.09491
1.09496
1.09499
1.095
1.095
1.09497
1.09494
1.09489
1.09484
1.09477
1.0947
1.09463
1.09454
1.09446
1.09437
1.09428
1.09419
1.0941
1.094
1.0939
1.09381
1.09371
1.09361
1.09351
1.09341
1.09332
1.09322
1.09312
1.09303
1.09293
1.09284
1.09275
1.09265
1.09256
1.09247
1.09239
1.0923
1.09221
1.09213
1.09205
1.09197
1.09189
1.09181
1.09174
1.09167
1.0916
1.09154
1.09147
1.09142
1.09136
1.09131
1.09127
1.09122
1.09119
1.09116
1.09113
1.09111
1.0911
1.09109
1.09109
1.0911
1.09111
1.09113
1.09116
1.09119
1.09123
1.09128
1.09134
1.09141
1.09148
1.09156
1.09165
1.09174
1.09184
1.09195
1.09207
1.09219
1.09231
1.09245
1.09258
1.09272
1.09287
1.09301
1.09316
1.09332
1.09347
1.09362
1.09378
1.09394
1.09409
1.09425
1.0944
1.09455
1.0947
1.09485
1.09499
1.09513
1.09526
1.09539
1.09552
1.09564
1.09575
1.09586
1.09597
1.09607
1.09617
1.09626
1.09635
1.09643
1.09651
1.09659
1.09667
1.09674
1.09681
1.09688
1.09695
1.09702
1.09709
1.09716
1.09722
1.09729
1.09735
1.09742
1.09748
1.09755
1.09761
1.09767
1.09774
1.0978
1.09786
1.09791
1.09797
1.09802
1.09808
1.09813
1.09817
1.09822
1.09826
1.0983
1.09833
1.09836
1.09839
1.09842
1.09844
1.09845
1.09846
1.09847
1.09848
1.09848
1.09847
1.09847
1.09846
1.09844
1.09842
1.0984
1.09838
1.09835
1.09832
1.09829
1.09825
1.09821
1.09817
1.09813
1.09809
1.09804
1.098
1.09795
1.0979
1.09786
1.09781
1.09776
1.09771
1.09766
1.0976
1.09755
1.0975
1.09745
1.09739
1.09734
1.09729
1.09723
1.09717
1.09711
1.09706
1.097
1.09693
1.09687
1.0968
1.09674
1.09667
1.0966
1.09652
1.09645
1.09637
1.09629
1.09621
1.09612
1.09604
1.09595
1.09586
1.09577
1.09567
1.09558
1.09548
1.09539
1.09529
1.09519
1.09509
1.095
1.0949
1.0948
1.09471
1.09461
1.09452
1.09443
1.09434
1.09426
1.09418
1.0941
1.09402
1.09395
1.09388
1.09382
1.09376
1.0937
1.09365
1.0936
1.09356
1.09352
1.09349
1.09346
1.09344
1.09343
1.09342
1.09341
1.09341
1.09342
1.09343
1.09345
1.09347
1.0935
1.09353
1.09357
1.09361
1.09366
1.09371
1.09376
1.09382
1.09389
1.09396
1.09403
1.0941
1.09418
1.09426
1.09434
1.09442
1.0945
1.09458
1.09466
1.09475
1.09483
1.0949
1.09498
1.09506
1.09513
1.0952
1.09526
1.09533
1.09539
1.09544
1.0955
1.09555
1.09559
1.09564
1.09568
1.09572
1.09575
1.09578
1.09582
1.09585
1.09587
1.0959
1.09593
1.09595
1.09597
1.096
1.09602
1.09604
1.09606
1.09608
1.09609
1.09611
1.09612
1.09613
1.09614
1.09615
1.09616
1.09616
1.09616
1.09615
1.09614
1.09613
1.09612
1.0961
1.09608
1.09606
1.09603
1.096
1.09597
1.09594
1.0959
1.09587
1.09583
1.09579
1.09575
1.09572
1.09568
1.09565
1.09562
1.09559
1.09557
1.09555
1.09553
1.09552
1.09551
1.09551
1.09551
1.09553
1.09554
1.09557
1.0956
1.09565
1.0957
1.09576
1.09583
1.09591
1.09601
1.09611
1.09623
1.09637
1.09652
1.09669
1.09687
1.09708
1.09731
1.09756
1.09783
1.09813
1.09845
1.0988
1.09919
1.0996
1.10005
1.10054
1.10106
1.10162
1.10223
1.10287
1.10356
1.1043
1.10509
1.10593
1.10682
1.10777
1.10879
1.10987
1.11102
1.11226
1.11358
1.115
1.11653
1.11819
1.12
1.122
1.12421
1.1267
1.12954
1.13281
1.13663
1.1411
1.14626
1.15194
1.15656
1.15659
1.08453
1.08403
1.08469
1.08606
1.08767
1.08911
1.09033
1.09133
1.09212
1.09275
1.09326
1.09365
1.09397
1.09421
1.0944
1.09454
1.09465
1.09472
1.09477
1.09479
1.0948
1.09479
1.09476
1.09472
1.09468
1.09462
1.09456
1.09449
1.09442
1.09434
1.09426
1.09417
1.09409
1.094
1.09391
1.09381
1.09372
1.09363
1.09353
1.09344
1.09334
1.09325
1.09315
1.09306
1.09297
1.09287
1.09278
1.09269
1.0926
1.09251
1.09242
1.09233
1.09225
1.09216
1.09208
1.092
1.09192
1.09184
1.09177
1.0917
1.09163
1.09156
1.0915
1.09144
1.09138
1.09133
1.09128
1.09124
1.0912
1.09116
1.09113
1.09111
1.09109
1.09108
1.09107
1.09108
1.09108
1.0911
1.09112
1.09115
1.09119
1.09123
1.09129
1.09135
1.09141
1.09149
1.09157
1.09166
1.09176
1.09186
1.09197
1.09209
1.09221
1.09234
1.09247
1.09261
1.09275
1.09289
1.09304
1.09319
1.09334
1.0935
1.09365
1.09381
1.09396
1.09412
1.09427
1.09442
1.09457
1.09472
1.09486
1.09501
1.09514
1.09527
1.0954
1.09552
1.09564
1.09575
1.09586
1.09596
1.09606
1.09615
1.09624
1.09633
1.09641
1.09649
1.09656
1.09663
1.09671
1.09677
1.09684
1.09691
1.09698
1.09704
1.09711
1.09717
1.09723
1.0973
1.09736
1.09742
1.09749
1.09755
1.09761
1.09767
1.09773
1.09779
1.09785
1.0979
1.09795
1.098
1.09805
1.0981
1.09814
1.09818
1.09822
1.09826
1.09829
1.09831
1.09834
1.09836
1.09837
1.09838
1.09839
1.09839
1.09839
1.09839
1.09838
1.09837
1.09836
1.09834
1.09832
1.09829
1.09826
1.09823
1.0982
1.09817
1.09813
1.09809
1.09805
1.09801
1.09796
1.09792
1.09787
1.09782
1.09778
1.09773
1.09768
1.09763
1.09758
1.09753
1.09748
1.09742
1.09737
1.09732
1.09727
1.09721
1.09716
1.0971
1.09704
1.09698
1.09692
1.09686
1.0968
1.09673
1.09666
1.09659
1.09652
1.09645
1.09637
1.0963
1.09622
1.09613
1.09605
1.09596
1.09587
1.09578
1.09569
1.0956
1.0955
1.09541
1.09531
1.09522
1.09512
1.09502
1.09492
1.09483
1.09473
1.09464
1.09454
1.09445
1.09436
1.09427
1.09419
1.09411
1.09403
1.09395
1.09388
1.09381
1.09375
1.09369
1.09363
1.09358
1.09354
1.0935
1.09346
1.09343
1.0934
1.09338
1.09337
1.09336
1.09336
1.09336
1.09336
1.09338
1.09339
1.09342
1.09345
1.09348
1.09352
1.09357
1.09361
1.09367
1.09373
1.09379
1.09386
1.09393
1.094
1.09408
1.09416
1.09424
1.09432
1.09441
1.09449
1.09458
1.09466
1.09475
1.09483
1.09491
1.09499
1.09507
1.09514
1.09521
1.09528
1.09534
1.09541
1.09546
1.09552
1.09557
1.09561
1.09566
1.0957
1.09573
1.09577
1.0958
1.09583
1.09586
1.09589
1.09591
1.09594
1.09596
1.09599
1.09601
1.09603
1.09605
1.09607
1.09608
1.0961
1.09612
1.09613
1.09614
1.09615
1.09616
1.09616
1.09616
1.09616
1.09616
1.09615
1.09614
1.09613
1.09611
1.09609
1.09606
1.09604
1.09601
1.09597
1.09594
1.0959
1.09586
1.09583
1.09579
1.09575
1.09571
1.09568
1.09564
1.09561
1.09558
1.09555
1.09553
1.09551
1.0955
1.09549
1.09549
1.09549
1.0955
1.09552
1.09554
1.09557
1.09562
1.09566
1.09572
1.09579
1.09587
1.09597
1.09607
1.09619
1.09633
1.09648
1.09664
1.09683
1.09703
1.09726
1.09751
1.09778
1.09807
1.0984
1.09875
1.09914
1.09955
1.1
1.10049
1.10101
1.10157
1.10218
1.10282
1.10351
1.10425
1.10504
1.10587
1.10677
1.10772
1.10873
1.10981
1.11095
1.11218
1.11348
1.11488
1.11639
1.11801
1.11978
1.1217
1.12382
1.12617
1.12879
1.13172
1.135
1.1386
1.14228
1.14556
1.14778
1.1472
1.0871
1.08665
1.08683
1.08755
1.0885
1.08951
1.09045
1.09127
1.09196
1.09253
1.09301
1.09339
1.0937
1.09395
1.09415
1.0943
1.09442
1.0945
1.09456
1.09459
1.09461
1.09461
1.09459
1.09456
1.09452
1.09448
1.09442
1.09436
1.09429
1.09422
1.09414
1.09406
1.09398
1.0939
1.09381
1.09372
1.09363
1.09354
1.09345
1.09336
1.09327
1.09318
1.09308
1.09299
1.0929
1.09281
1.09272
1.09263
1.09254
1.09245
1.09237
1.09228
1.0922
1.09211
1.09203
1.09195
1.09187
1.0918
1.09172
1.09165
1.09158
1.09152
1.09146
1.0914
1.09134
1.09129
1.09124
1.0912
1.09117
1.09113
1.09111
1.09108
1.09107
1.09106
1.09106
1.09106
1.09107
1.09109
1.09111
1.09115
1.09119
1.09123
1.09129
1.09135
1.09142
1.0915
1.09159
1.09168
1.09178
1.09188
1.092
1.09212
1.09224
1.09237
1.0925
1.09264
1.09278
1.09293
1.09308
1.09323
1.09338
1.09353
1.09369
1.09384
1.094
1.09415
1.0943
1.09445
1.0946
1.09475
1.09489
1.09503
1.09516
1.09529
1.09541
1.09553
1.09565
1.09576
1.09586
1.09596
1.09605
1.09614
1.09622
1.0963
1.09638
1.09646
1.09653
1.0966
1.09666
1.09673
1.0968
1.09686
1.09692
1.09699
1.09705
1.09711
1.09717
1.09723
1.09729
1.09736
1.09742
1.09748
1.09754
1.0976
1.09765
1.09771
1.09777
1.09782
1.09787
1.09792
1.09797
1.09801
1.09806
1.0981
1.09813
1.09816
1.09819
1.09822
1.09824
1.09826
1.09828
1.09829
1.09829
1.0983
1.0983
1.09829
1.09828
1.09827
1.09826
1.09824
1.09822
1.09819
1.09817
1.09814
1.0981
1.09807
1.09803
1.09799
1.09795
1.09791
1.09787
1.09782
1.09778
1.09773
1.09768
1.09763
1.09759
1.09754
1.09749
1.09744
1.09738
1.09733
1.09728
1.09723
1.09717
1.09712
1.09706
1.09701
1.09695
1.09689
1.09683
1.09677
1.09671
1.09664
1.09657
1.0965
1.09643
1.09636
1.09628
1.0962
1.09612
1.09604
1.09596
1.09587
1.09578
1.09569
1.0956
1.09551
1.09541
1.09532
1.09522
1.09512
1.09503
1.09493
1.09483
1.09474
1.09464
1.09455
1.09445
1.09436
1.09427
1.09419
1.0941
1.09402
1.09394
1.09387
1.0938
1.09373
1.09367
1.09361
1.09355
1.0935
1.09346
1.09342
1.09338
1.09335
1.09333
1.09331
1.09329
1.09328
1.09328
1.09328
1.09329
1.09331
1.09333
1.09335
1.09338
1.09342
1.09346
1.09351
1.09356
1.09362
1.09368
1.09374
1.09381
1.09389
1.09396
1.09404
1.09413
1.09421
1.0943
1.09439
1.09448
1.09456
1.09465
1.09474
1.09483
1.09491
1.09499
1.09507
1.09515
1.09523
1.0953
1.09536
1.09542
1.09548
1.09554
1.09559
1.09564
1.09568
1.09572
1.09576
1.09579
1.09582
1.09585
1.09588
1.09591
1.09593
1.09596
1.09598
1.096
1.09602
1.09604
1.09606
1.09608
1.0961
1.09611
1.09613
1.09614
1.09615
1.09616
1.09617
1.09617
1.09618
1.09617
1.09617
1.09616
1.09615
1.09614
1.09612
1.0961
1.09607
1.09604
1.09601
1.09598
1.09594
1.09591
1.09587
1.09583
1.09579
1.09575
1.09571
1.09567
1.09563
1.0956
1.09557
1.09554
1.09552
1.0955
1.09548
1.09547
1.09547
1.09547
1.09548
1.09549
1.09551
1.09554
1.09558
1.09563
1.09568
1.09575
1.09583
1.09592
1.09602
1.09614
1.09627
1.09642
1.09658
1.09676
1.09696
1.09719
1.09743
1.0977
1.098
1.09832
1.09867
1.09906
1.09947
1.09992
1.1004
1.10092
1.10148
1.10208
1.10273
1.10341
1.10415
1.10493
1.10577
1.10665
1.1076
1.1086
1.10966
1.1108
1.112
1.11328
1.11465
1.11611
1.11768
1.11938
1.1212
1.12319
1.12535
1.12769
1.13023
1.13293
1.13567
1.13825
1.14023
1.14122
1.14099
1.08887
1.08843
1.08842
1.08879
1.08936
1.09004
1.09073
1.09137
1.09194
1.09244
1.09286
1.09322
1.09351
1.09375
1.09394
1.0941
1.09422
1.09431
1.09437
1.09441
1.09443
1.09444
1.09443
1.09441
1.09438
1.09434
1.09429
1.09423
1.09417
1.0941
1.09403
1.09396
1.09388
1.0938
1.09371
1.09363
1.09354
1.09346
1.09337
1.09328
1.09319
1.0931
1.09301
1.09292
1.09283
1.09274
1.09265
1.09257
1.09248
1.09239
1.09231
1.09222
1.09214
1.09206
1.09198
1.0919
1.09182
1.09174
1.09167
1.0916
1.09153
1.09147
1.09141
1.09135
1.0913
1.09125
1.0912
1.09116
1.09113
1.0911
1.09107
1.09105
1.09104
1.09103
1.09103
1.09104
1.09105
1.09107
1.0911
1.09113
1.09118
1.09123
1.09129
1.09135
1.09143
1.09151
1.09159
1.09169
1.09179
1.0919
1.09202
1.09214
1.09226
1.0924
1.09253
1.09267
1.09281
1.09296
1.09311
1.09326
1.09341
1.09357
1.09372
1.09388
1.09403
1.09418
1.09434
1.09449
1.09463
1.09478
1.09492
1.09505
1.09518
1.09531
1.09543
1.09555
1.09566
1.09576
1.09586
1.09596
1.09604
1.09613
1.09621
1.09629
1.09636
1.09643
1.09649
1.09656
1.09662
1.09668
1.09675
1.09681
1.09687
1.09692
1.09698
1.09704
1.0971
1.09716
1.09722
1.09728
1.09734
1.0974
1.09745
1.09751
1.09757
1.09762
1.09768
1.09773
1.09778
1.09783
1.09787
1.09791
1.09796
1.09799
1.09803
1.09806
1.09809
1.09811
1.09813
1.09815
1.09817
1.09818
1.09818
1.09818
1.09818
1.09818
1.09817
1.09816
1.09814
1.09812
1.0981
1.09808
1.09805
1.09802
1.09799
1.09795
1.09792
1.09788
1.09784
1.0978
1.09775
1.09771
1.09766
1.09762
1.09757
1.09752
1.09747
1.09743
1.09738
1.09733
1.09728
1.09722
1.09717
1.09712
1.09707
1.09701
1.09696
1.0969
1.09684
1.09678
1.09672
1.09666
1.0966
1.09653
1.09646
1.0964
1.09632
1.09625
1.09617
1.0961
1.09602
1.09593
1.09585
1.09576
1.09567
1.09558
1.09549
1.0954
1.0953
1.09521
1.09511
1.09502
1.09492
1.09482
1.09473
1.09463
1.09454
1.09444
1.09435
1.09426
1.09417
1.09408
1.094
1.09392
1.09384
1.09377
1.0937
1.09363
1.09357
1.09351
1.09345
1.0934
1.09336
1.09332
1.09329
1.09326
1.09323
1.09321
1.0932
1.09319
1.09319
1.09319
1.0932
1.09322
1.09324
1.09327
1.0933
1.09334
1.09338
1.09343
1.09349
1.09355
1.09361
1.09368
1.09375
1.09383
1.09391
1.09399
1.09408
1.09417
1.09426
1.09436
1.09445
1.09454
1.09464
1.09473
1.09482
1.09491
1.09499
1.09508
1.09516
1.09524
1.09531
1.09538
1.09544
1.0955
1.09556
1.09561
1.09566
1.0957
1.09574
1.09578
1.09582
1.09585
1.09588
1.0959
1.09593
1.09595
1.09598
1.096
1.09602
1.09604
1.09606
1.09608
1.0961
1.09612
1.09613
1.09615
1.09616
1.09617
1.09618
1.09619
1.09619
1.09619
1.09619
1.09619
1.09618
1.09617
1.09615
1.09613
1.09611
1.09609
1.09606
1.09602
1.09599
1.09595
1.09591
1.09587
1.09583
1.09579
1.09575
1.09571
1.09567
1.09563
1.09559
1.09556
1.09553
1.0955
1.09548
1.09546
1.09545
1.09544
1.09544
1.09544
1.09546
1.09547
1.0955
1.09554
1.09558
1.09563
1.0957
1.09577
1.09586
1.09596
1.09607
1.0962
1.09634
1.0965
1.09668
1.09688
1.0971
1.09734
1.0976
1.0979
1.09822
1.09856
1.09894
1.09935
1.0998
1.10028
1.10079
1.10135
1.10194
1.10258
1.10327
1.10399
1.10477
1.1056
1.10647
1.1074
1.10839
1.10944
1.11055
1.11173
1.11297
1.1143
1.11571
1.11721
1.11881
1.12052
1.12235
1.12429
1.12635
1.1285
1.13067
1.13273
1.13451
1.13577
1.13627
1.13606
1.09011
1.0897
1.08962
1.08978
1.09013
1.09058
1.09107
1.09156
1.09202
1.09243
1.0928
1.09311
1.09338
1.0936
1.09378
1.09393
1.09404
1.09413
1.0942
1.09424
1.09427
1.09428
1.09428
1.09426
1.09423
1.0942
1.09415
1.0941
1.09405
1.09398
1.09392
1.09385
1.09377
1.0937
1.09362
1.09354
1.09345
1.09337
1.09329
1.0932
1.09311
1.09303
1.09294
1.09285
1.09276
1.09268
1.09259
1.0925
1.09242
1.09233
1.09225
1.09216
1.09208
1.092
1.09192
1.09184
1.09176
1.09169
1.09162
1.09155
1.09148
1.09142
1.09136
1.0913
1.09125
1.0912
1.09116
1.09112
1.09109
1.09106
1.09103
1.09102
1.09101
1.091
1.091
1.09101
1.09103
1.09105
1.09108
1.09112
1.09117
1.09122
1.09128
1.09135
1.09143
1.09151
1.09161
1.0917
1.09181
1.09192
1.09204
1.09216
1.09229
1.09243
1.09256
1.09271
1.09285
1.093
1.09315
1.0933
1.09345
1.09361
1.09376
1.09392
1.09407
1.09422
1.09437
1.09452
1.09467
1.09481
1.09495
1.09508
1.09521
1.09534
1.09545
1.09557
1.09567
1.09577
1.09587
1.09596
1.09604
1.09612
1.09619
1.09627
1.09633
1.0964
1.09646
1.09652
1.09658
1.09664
1.09669
1.09675
1.0968
1.09686
1.09692
1.09697
1.09703
1.09708
1.09714
1.0972
1.09725
1.09731
1.09736
1.09742
1.09747
1.09752
1.09758
1.09763
1.09767
1.09772
1.09776
1.09781
1.09785
1.09788
1.09791
1.09794
1.09797
1.098
1.09801
1.09803
1.09804
1.09805
1.09806
1.09806
1.09806
1.09805
1.09804
1.09803
1.09801
1.098
1.09797
1.09795
1.09792
1.09789
1.09786
1.09782
1.09779
1.09775
1.09771
1.09767
1.09763
1.09758
1.09754
1.09749
1.09745
1.0974
1.09735
1.0973
1.09725
1.0972
1.09715
1.0971
1.09705
1.097
1.09695
1.09689
1.09684
1.09678
1.09672
1.09666
1.0966
1.09654
1.09648
1.09641
1.09634
1.09627
1.0962
1.09613
1.09605
1.09597
1.09589
1.09581
1.09572
1.09564
1.09555
1.09546
1.09537
1.09527
1.09518
1.09509
1.09499
1.09489
1.0948
1.0947
1.0946
1.09451
1.09441
1.09432
1.09423
1.09414
1.09405
1.09396
1.09388
1.0938
1.09372
1.09365
1.09358
1.09351
1.09345
1.09339
1.09334
1.09329
1.09325
1.09321
1.09317
1.09315
1.09312
1.0931
1.09309
1.09309
1.09308
1.09309
1.0931
1.09312
1.09314
1.09317
1.0932
1.09324
1.09329
1.09334
1.0934
1.09346
1.09353
1.0936
1.09368
1.09376
1.09385
1.09394
1.09403
1.09412
1.09422
1.09432
1.09441
1.09451
1.09461
1.09471
1.09481
1.0949
1.09499
1.09508
1.09516
1.09524
1.09532
1.09539
1.09546
1.09552
1.09558
1.09563
1.09568
1.09573
1.09577
1.09581
1.09584
1.09587
1.0959
1.09593
1.09595
1.09598
1.096
1.09602
1.09604
1.09606
1.09608
1.0961
1.09612
1.09613
1.09615
1.09617
1.09618
1.09619
1.0962
1.09621
1.09621
1.09621
1.09621
1.09621
1.0962
1.09619
1.09617
1.09615
1.09613
1.0961
1.09607
1.09604
1.096
1.09597
1.09592
1.09588
1.09584
1.0958
1.09575
1.09571
1.09567
1.09563
1.09559
1.09555
1.09552
1.09549
1.09546
1.09544
1.09543
1.09541
1.09541
1.09541
1.09542
1.09543
1.09546
1.09549
1.09553
1.09558
1.09564
1.09571
1.09579
1.09588
1.09599
1.09611
1.09625
1.09641
1.09658
1.09678
1.09699
1.09723
1.09749
1.09777
1.09809
1.09843
1.0988
1.09921
1.09965
1.10012
1.10063
1.10118
1.10177
1.1024
1.10308
1.10379
1.10456
1.10537
1.10624
1.10715
1.10812
1.10914
1.11023
1.11137
1.11258
1.11385
1.1152
1.11662
1.11812
1.1197
1.12135
1.12309
1.12487
1.12665
1.12838
1.12994
1.13119
1.13202
1.1323
1.13202
1.09099
1.09065
1.09052
1.09058
1.09078
1.09108
1.09143
1.09179
1.09215
1.09249
1.09279
1.09306
1.09329
1.09349
1.09366
1.0938
1.09391
1.09399
1.09406
1.0941
1.09413
1.09414
1.09414
1.09413
1.0941
1.09407
1.09403
1.09398
1.09393
1.09387
1.09381
1.09374
1.09367
1.0936
1.09353
1.09345
1.09337
1.09329
1.0932
1.09312
1.09304
1.09295
1.09287
1.09278
1.0927
1.09261
1.09252
1.09244
1.09235
1.09227
1.09219
1.0921
1.09202
1.09194
1.09186
1.09178
1.09171
1.09163
1.09156
1.09149
1.09143
1.09137
1.09131
1.09125
1.0912
1.09115
1.09111
1.09107
1.09104
1.09101
1.09099
1.09098
1.09097
1.09097
1.09097
1.09098
1.091
1.09103
1.09106
1.0911
1.09115
1.09121
1.09127
1.09135
1.09143
1.09152
1.09161
1.09171
1.09182
1.09194
1.09206
1.09219
1.09232
1.09245
1.09259
1.09274
1.09289
1.09303
1.09319
1.09334
1.09349
1.09365
1.0938
1.09396
1.09411
1.09426
1.09441
1.09456
1.09471
1.09485
1.09498
1.09512
1.09524
1.09536
1.09548
1.09559
1.09569
1.09579
1.09588
1.09596
1.09604
1.09611
1.09618
1.09625
1.09631
1.09637
1.09642
1.09648
1.09653
1.09658
1.09664
1.09669
1.09674
1.09679
1.09684
1.09689
1.09695
1.097
1.09705
1.0971
1.09716
1.09721
1.09726
1.09732
1.09737
1.09742
1.09747
1.09751
1.09756
1.0976
1.09765
1.09769
1.09772
1.09776
1.09779
1.09782
1.09784
1.09786
1.09788
1.0979
1.09791
1.09792
1.09792
1.09792
1.09792
1.09791
1.0979
1.09789
1.09787
1.09785
1.09783
1.09781
1.09778
1.09775
1.09772
1.09768
1.09765
1.09761
1.09757
1.09753
1.09748
1.09744
1.0974
1.09735
1.09731
1.09726
1.09721
1.09716
1.09712
1.09707
1.09702
1.09697
1.09691
1.09686
1.09681
1.09675
1.0967
1.09664
1.09658
1.09653
1.09646
1.0964
1.09634
1.09627
1.0962
1.09613
1.09606
1.09599
1.09591
1.09583
1.09575
1.09567
1.09558
1.0955
1.09541
1.09532
1.09523
1.09514
1.09504
1.09495
1.09485
1.09475
1.09466
1.09456
1.09447
1.09437
1.09428
1.09418
1.09409
1.094
1.09392
1.09383
1.09375
1.09367
1.09359
1.09352
1.09345
1.09338
1.09332
1.09326
1.09321
1.09316
1.09312
1.09308
1.09305
1.09302
1.093
1.09298
1.09297
1.09296
1.09296
1.09297
1.09298
1.093
1.09302
1.09306
1.09309
1.09313
1.09318
1.09324
1.0933
1.09336
1.09343
1.09351
1.09359
1.09368
1.09377
1.09386
1.09396
1.09406
1.09416
1.09426
1.09437
1.09447
1.09458
1.09468
1.09478
1.09488
1.09498
1.09507
1.09516
1.09525
1.09533
1.09541
1.09548
1.09554
1.0956
1.09566
1.09571
1.09575
1.0958
1.09583
1.09587
1.0959
1.09593
1.09596
1.09598
1.096
1.09603
1.09605
1.09607
1.09609
1.09611
1.09612
1.09614
1.09616
1.09617
1.09619
1.0962
1.09621
1.09622
1.09623
1.09624
1.09624
1.09624
1.09623
1.09622
1.09621
1.0962
1.09618
1.09615
1.09612
1.09609
1.09606
1.09602
1.09598
1.09594
1.0959
1.09585
1.0958
1.09576
1.09571
1.09567
1.09562
1.09558
1.09554
1.09551
1.09547
1.09545
1.09542
1.0954
1.09539
1.09538
1.09537
1.09538
1.09539
1.09541
1.09543
1.09547
1.09551
1.09557
1.09563
1.09571
1.0958
1.0959
1.09602
1.09615
1.0963
1.09647
1.09666
1.09686
1.09709
1.09735
1.09763
1.09794
1.09827
1.09864
1.09903
1.09947
1.09993
1.10043
1.10097
1.10155
1.10218
1.10284
1.10355
1.1043
1.1051
1.10594
1.10684
1.10778
1.10878
1.10983
1.11093
1.11209
1.11331
1.11458
1.11592
1.11731
1.11876
1.12025
1.12178
1.1233
1.12479
1.12617
1.12736
1.12827
1.12882
1.12897
1.12867
1.09165
1.09136
1.09122
1.09122
1.09132
1.09152
1.09176
1.09203
1.0923
1.09257
1.09282
1.09305
1.09325
1.09342
1.09357
1.09369
1.09379
1.09387
1.09393
1.09397
1.094
1.09401
1.09401
1.094
1.09398
1.09395
1.09391
1.09387
1.09382
1.09376
1.0937
1.09364
1.09358
1.09351
1.09343
1.09336
1.09328
1.0932
1.09312
1.09304
1.09296
1.09288
1.0928
1.09271
1.09263
1.09254
1.09246
1.09238
1.09229
1.09221
1.09213
1.09204
1.09196
1.09188
1.0918
1.09173
1.09165
1.09158
1.09151
1.09144
1.09138
1.09131
1.09126
1.0912
1.09115
1.0911
1.09106
1.09103
1.091
1.09097
1.09095
1.09094
1.09093
1.09093
1.09094
1.09096
1.09098
1.09101
1.09104
1.09109
1.09114
1.0912
1.09127
1.09134
1.09143
1.09152
1.09162
1.09172
1.09184
1.09196
1.09208
1.09221
1.09234
1.09248
1.09263
1.09277
1.09292
1.09307
1.09323
1.09338
1.09353
1.09369
1.09385
1.094
1.09415
1.09431
1.09446
1.0946
1.09475
1.09489
1.09502
1.09515
1.09527
1.09539
1.0955
1.09561
1.09571
1.0958
1.09588
1.09596
1.09603
1.0961
1.09617
1.09623
1.09628
1.09633
1.09638
1.09643
1.09648
1.09653
1.09658
1.09662
1.09667
1.09672
1.09676
1.09681
1.09686
1.09691
1.09696
1.09701
1.09706
1.09711
1.09716
1.09721
1.09726
1.0973
1.09735
1.0974
1.09744
1.09748
1.09752
1.09756
1.09759
1.09763
1.09766
1.09768
1.09771
1.09773
1.09774
1.09776
1.09777
1.09777
1.09778
1.09777
1.09777
1.09776
1.09775
1.09774
1.09772
1.0977
1.09768
1.09765
1.09763
1.0976
1.09756
1.09753
1.09749
1.09746
1.09742
1.09738
1.09733
1.09729
1.09725
1.0972
1.09716
1.09711
1.09706