# vtk DataFile Version 2.0
LBE mesh
ASCII
DATASET STRUCTURED_POINTS
DIMENSIONS 400 100 1
ASPECT_RATIO 1 1 1
ORIGIN 0 0 0
POINT_DATA 40000
SCALARS rho double 1
LOOKUP_TABLE default
0.950971
0.983326
0.993618
0.997592
0.999995
1.00162
1.00268
1.0034
1.0039
1.00426
1.00454
1.00475
1.00491
1.00504
1.00515
1.00524
1.00531
1.00538
1.00544
1.0055
1.00556
1.00561
1.00567
1.00573
1.00578
1.00584
1.0059
1.00595
1.00601
1.00607
1.00612
1.00617
1.00622
1.00627
1.00632
1.00636
1.00639
1.00642
1.00645
1.00647
1.00649
1.00651
1.00652
1.00653
1.00654
1.00655
1.00655
1.00656
1.00657
1.00658
1.00659
1.00661
1.00663
1.00666
1.00669
1.00674
1.00678
1.00684
1.0069
1.00697
1.00705
1.00714
1.00723
1.00733
1.00743
1.00754
1.00766
1.00778
1.0079
1.00803
1.00816
1.00829
1.00843
1.00857
1.00871
1.00885
1.009
1.00916
1.00931
1.00947
1.00964
1.00982
1.01
1.0102
1.0104
1.01061
1.01084
1.01108
1.01133
1.0116
1.01188
1.01217
1.01248
1.01281
1.01315
1.01351
1.01388
1.01426
1.01466
1.01507
1.0155
1.01593
1.01638
1.01683
1.01729
1.01776
1.01824
1.01872
1.01921
1.0197
1.02019
1.02068
1.02117
1.02166
1.02215
1.02264
1.02312
1.0236
1.02408
1.02455
1.02502
1.02548
1.02593
1.02639
1.02683
1.02728
1.02771
1.02815
1.02858
1.029
1.02942
1.02984
1.03025
1.03066
1.03107
1.03148
1.03188
1.03228
1.03269
1.03309
1.03349
1.03388
1.03428
1.03468
1.03508
1.03547
1.03587
1.03626
1.03666
1.03705
1.03743
1.03782
1.0382
1.03858
1.03895
1.03931
1.03967
1.04002
1.04036
1.04069
1.04101
1.04132
1.04162
1.0419
1.04218
1.04243
1.04268
1.04291
1.04313
1.04333
1.04352
1.04369
1.04385
1.044
1.04414
1.04426
1.04438
1.04448
1.04458
1.04467
1.04475
1.04483
1.0449
1.04497
1.04503
1.0451
1.04516
1.04522
1.04528
1.04534
1.0454
1.04546
1.04552
1.04558
1.04564
1.0457
1.04576
1.04582
1.04588
1.04593
1.04599
1.04604
1.04609
1.04613
1.04618
1.04621
1.04625
1.04628
1.0463
1.04633
1.04635
1.04636
1.04638
1.04639
1.0464
1.04641
1.04641
1.04642
1.04643
1.04644
1.04645
1.04646
1.04648
1.04649
1.04652
1.04654
1.04657
1.04661
1.04665
1.04669
1.04674
1.0468
1.04686
1.04693
1.047
1.04708
1.04717
1.04726
1.04736
1.04746
1.04757
1.04769
1.04781
1.04794
1.04807
1.04821
1.04835
1.0485
1.04865
1.04881
1.04897
1.04913
1.0493
1.04947
1.04964
1.04981
1.04998
1.05015
1.05032
1.05049
1.05066
1.05083
1.05099
1.05115
1.05131
1.05146
1.05161
1.05175
1.05189
1.05203
1.05216
1.05229
1.05241
1.05253
1.05265
1.05277
1.05289
1.05301
1.05313
1.05325
1.05337
1.05349
1.05362
1.05376
1.0539
1.05405
1.0542
1.05437
1.05455
1.05473
1.05493
1.05514
1.05536
1.05559
1.05584
1.0561
1.05637
1.05665
1.05695
1.05726
1.05759
1.05792
1.05827
1.05863
1.05899
1.05937
1.05975
1.06014
1.06054
1.06094
1.06135
1.06176
1.06217
1.06258
1.06299
1.0634
1.0638
1.06421
1.06461
1.065
1.06539
1.06578
1.06616
1.06653
1.06689
1.06725
1.0676
1.06795
1.06828
1.06861
1.06894
1.06926
1.06957
1.06987
1.07017
1.07046
1.07075
1.07103
1.07131
1.07158
1.07184
1.07211
1.07236
1.07261
1.07286
1.0731
1.07333
1.07356
1.07378
1.074
1.07421
1.07442
1.07461
1.0748
1.07499
1.07517
1.07534
1.07551
1.07567
1.07583
1.07599
1.07615
1.0763
1.07646
1.07661
1.07677
1.07694
1.07711
1.07729
1.07748
1.07768
1.0779
1.07814
1.0784
1.07869
1.079
1.07935
1.07974
1.08018
1.08066
1.0812
1.08181
1.08249
1.08325
1.0841
1.08507
1.08615
1.08737
1.08876
1.09033
1.09214
1.09425
1.09672
1.09968
1.10332
1.10805
1.11487
1.12465
1.13673
1.15651
0.965299
0.979267
0.988962
0.994873
0.998138
1.00011
1.00144
1.00238
1.00306
1.00356
1.00394
1.00423
1.00446
1.00464
1.00479
1.00492
1.00503
1.00513
1.00521
1.00529
1.00537
1.00544
1.00551
1.00558
1.00565
1.00571
1.00578
1.00585
1.00591
1.00597
1.00603
1.00609
1.00614
1.0062
1.00624
1.00629
1.00633
1.00636
1.00639
1.00642
1.00644
1.00646
1.00648
1.00649
1.0065
1.00651
1.00652
1.00653
1.00654
1.00656
1.00657
1.0066
1.00662
1.00665
1.00669
1.00673
1.00678
1.00684
1.0069
1.00698
1.00706
1.00714
1.00724
1.00734
1.00744
1.00755
1.00767
1.00779
1.00791
1.00804
1.00817
1.00831
1.00844
1.00858
1.00873
1.00887
1.00902
1.00917
1.00933
1.0095
1.00967
1.00984
1.01003
1.01023
1.01043
1.01065
1.01087
1.01111
1.01137
1.01164
1.01192
1.01222
1.01253
1.01285
1.01319
1.01355
1.01392
1.01431
1.0147
1.01511
1.01554
1.01597
1.01641
1.01686
1.01732
1.01779
1.01827
1.01874
1.01923
1.01971
1.0202
1.02069
1.02118
1.02167
1.02215
1.02264
1.02312
1.0236
1.02407
1.02454
1.025
1.02547
1.02592
1.02637
1.02682
1.02726
1.0277
1.02813
1.02856
1.02899
1.02941
1.02983
1.03024
1.03065
1.03106
1.03147
1.03187
1.03228
1.03268
1.03308
1.03348
1.03388
1.03428
1.03467
1.03507
1.03546
1.03586
1.03625
1.03664
1.03703
1.03742
1.0378
1.03818
1.03855
1.03892
1.03928
1.03964
1.03999
1.04033
1.04065
1.04097
1.04128
1.04158
1.04186
1.04213
1.04239
1.04263
1.04286
1.04308
1.04328
1.04347
1.04364
1.0438
1.04395
1.04409
1.04421
1.04433
1.04444
1.04453
1.04462
1.04471
1.04478
1.04486
1.04492
1.04499
1.04505
1.04511
1.04518
1.04524
1.0453
1.04536
1.04542
1.04548
1.04554
1.0456
1.04566
1.04572
1.04578
1.04584
1.04589
1.04595
1.046
1.04604
1.04609
1.04613
1.04617
1.0462
1.04623
1.04626
1.04628
1.0463
1.04632
1.04633
1.04634
1.04635
1.04636
1.04637
1.04638
1.04639
1.0464
1.04641
1.04642
1.04644
1.04646
1.04648
1.04651
1.04654
1.04658
1.04662
1.04667
1.04672
1.04678
1.04684
1.04691
1.04699
1.04707
1.04716
1.04725
1.04735
1.04746
1.04757
1.04769
1.04781
1.04794
1.04808
1.04822
1.04836
1.04851
1.04866
1.04882
1.04898
1.04914
1.04931
1.04948
1.04965
1.04982
1.04999
1.05017
1.05034
1.05051
1.05067
1.05084
1.051
1.05116
1.05132
1.05147
1.05162
1.05176
1.0519
1.05204
1.05217
1.0523
1.05242
1.05254
1.05266
1.05278
1.0529
1.05301
1.05313
1.05325
1.05337
1.0535
1.05363
1.05376
1.0539
1.05405
1.05421
1.05437
1.05455
1.05473
1.05493
1.05514
1.05536
1.05559
1.05584
1.0561
1.05637
1.05666
1.05696
1.05727
1.05759
1.05793
1.05827
1.05863
1.05899
1.05937
1.05975
1.06014
1.06054
1.06093
1.06134
1.06175
1.06215
1.06256
1.06297
1.06338
1.06378
1.06419
1.06458
1.06498
1.06537
1.06575
1.06613
1.0665
1.06686
1.06722
1.06757
1.06792
1.06826
1.06859
1.06891
1.06923
1.06954
1.06985
1.07015
1.07044
1.07073
1.07101
1.07129
1.07156
1.07183
1.07209
1.07235
1.0726
1.07285
1.07309
1.07333
1.07356
1.07378
1.074
1.07421
1.07441
1.07461
1.0748
1.07499
1.07517
1.07534
1.07551
1.07568
1.07584
1.076
1.07616
1.07632
1.07648
1.07663
1.0768
1.07697
1.07714
1.07733
1.07752
1.07773
1.07796
1.0782
1.07847
1.07876
1.07909
1.07945
1.07985
1.08029
1.08079
1.08134
1.08197
1.08266
1.08345
1.08433
1.08532
1.08643
1.0877
1.08913
1.09077
1.09266
1.09486
1.09747
1.10063
1.10459
1.10963
1.11609
1.12534
1.14227
1.17046
0.981732
0.984498
0.989825
0.99407
0.99698
0.999042
1.00051
1.00156
1.00234
1.00293
1.00338
1.00374
1.00402
1.00425
1.00444
1.0046
1.00474
1.00486
1.00497
1.00507
1.00516
1.00525
1.00533
1.00541
1.00549
1.00557
1.00564
1.00571
1.00579
1.00585
1.00592
1.00598
1.00604
1.0061
1.00615
1.0062
1.00625
1.00629
1.00632
1.00635
1.00638
1.0064
1.00642
1.00644
1.00645
1.00647
1.00648
1.0065
1.00651
1.00653
1.00655
1.00657
1.0066
1.00664
1.00668
1.00672
1.00677
1.00683
1.0069
1.00698
1.00706
1.00714
1.00724
1.00734
1.00744
1.00756
1.00767
1.00779
1.00792
1.00805
1.00818
1.00831
1.00845
1.00859
1.00873
1.00888
1.00903
1.00918
1.00934
1.00951
1.00968
1.00986
1.01005
1.01024
1.01045
1.01067
1.0109
1.01114
1.0114
1.01167
1.01195
1.01225
1.01256
1.01289
1.01324
1.01359
1.01396
1.01435
1.01475
1.01516
1.01558
1.01601
1.01645
1.0169
1.01736
1.01783
1.0183
1.01877
1.01925
1.01974
1.02022
1.02071
1.02119
1.02168
1.02216
1.02264
1.02312
1.0236
1.02407
1.02454
1.025
1.02546
1.02591
1.02636
1.02681
1.02725
1.02769
1.02812
1.02855
1.02897
1.02939
1.02981
1.03023
1.03064
1.03105
1.03146
1.03186
1.03226
1.03266
1.03307
1.03346
1.03386
1.03426
1.03465
1.03505
1.03544
1.03583
1.03622
1.03661
1.037
1.03738
1.03776
1.03814
1.03851
1.03887
1.03923
1.03958
1.03993
1.04026
1.04059
1.04091
1.04121
1.0415
1.04178
1.04205
1.04231
1.04255
1.04278
1.04299
1.04319
1.04338
1.04355
1.04371
1.04386
1.044
1.04412
1.04424
1.04434
1.04444
1.04453
1.04461
1.04469
1.04476
1.04483
1.0449
1.04496
1.04503
1.04509
1.04515
1.04521
1.04527
1.04533
1.04539
1.04545
1.04551
1.04557
1.04563
1.04569
1.04575
1.0458
1.04586
1.04591
1.04595
1.046
1.04604
1.04608
1.04611
1.04614
1.04617
1.04619
1.04621
1.04623
1.04624
1.04626
1.04627
1.04628
1.04629
1.0463
1.04631
1.04632
1.04633
1.04635
1.04637
1.04639
1.04641
1.04644
1.04648
1.04652
1.04656
1.04661
1.04667
1.04673
1.04679
1.04687
1.04694
1.04703
1.04712
1.04722
1.04732
1.04743
1.04754
1.04766
1.04779
1.04792
1.04806
1.0482
1.04834
1.0485
1.04865
1.04881
1.04897
1.04914
1.0493
1.04947
1.04965
1.04982
1.04999
1.05016
1.05033
1.0505
1.05067
1.05084
1.051
1.05116
1.05131
1.05146
1.05161
1.05175
1.05189
1.05203
1.05216
1.05229
1.05241
1.05253
1.05265
1.05277
1.05289
1.053
1.05312
1.05324
1.05336
1.05349
1.05362
1.05375
1.0539
1.05404
1.0542
1.05437
1.05454
1.05473
1.05493
1.05514
1.05536
1.05559
1.05584
1.0561
1.05637
1.05666
1.05696
1.05727
1.05759
1.05792
1.05827
1.05863
1.05899
1.05936
1.05974
1.06013
1.06053
1.06093
1.06133
1.06173
1.06214
1.06255
1.06295
1.06336
1.06376
1.06416
1.06456
1.06495
1.06534
1.06572
1.0661
1.06647
1.06684
1.06719
1.06755
1.06789
1.06823
1.06856
1.06889
1.06921
1.06952
1.06982
1.07013
1.07042
1.07071
1.071
1.07128
1.07155
1.07182
1.07208
1.07234
1.07259
1.07284
1.07308
1.07332
1.07355
1.07378
1.07399
1.07421
1.07441
1.07461
1.0748
1.07499
1.07517
1.07535
1.07552
1.07569
1.07585
1.07601
1.07617
1.07633
1.07649
1.07665
1.07682
1.07699
1.07716
1.07735
1.07755
1.07776
1.07799
1.07824
1.07851
1.0788
1.07913
1.0795
1.0799
1.08036
1.08086
1.08142
1.08206
1.08277
1.08356
1.08445
1.08546
1.08659
1.08787
1.08932
1.09098
1.09289
1.09511
1.09772
1.10084
1.10465
1.10947
1.11577
1.12361
1.13213
1.14145
0.990395
0.989995
0.992062
0.99457
0.996833
0.998604
0.999949
1.00098
1.00178
1.00241
1.0029
1.00329
1.00361
1.00387
1.00409
1.00428
1.00444
1.00458
1.00471
1.00483
1.00493
1.00504
1.00513
1.00522
1.00531
1.0054
1.00548
1.00557
1.00564
1.00572
1.00579
1.00586
1.00593
1.00599
1.00605
1.0061
1.00615
1.0062
1.00624
1.00627
1.0063
1.00633
1.00636
1.00638
1.0064
1.00642
1.00643
1.00645
1.00647
1.00649
1.00652
1.00655
1.00658
1.00662
1.00666
1.00671
1.00676
1.00683
1.00689
1.00697
1.00705
1.00714
1.00724
1.00734
1.00744
1.00755
1.00767
1.00779
1.00791
1.00804
1.00817
1.00831
1.00844
1.00858
1.00873
1.00887
1.00903
1.00918
1.00934
1.00951
1.00968
1.00986
1.01005
1.01025
1.01046
1.01068
1.01092
1.01116
1.01142
1.0117
1.01198
1.01228
1.0126
1.01293
1.01327
1.01363
1.01401
1.01439
1.01479
1.0152
1.01562
1.01605
1.01649
1.01694
1.0174
1.01786
1.01833
1.01881
1.01928
1.01977
1.02025
1.02073
1.02121
1.0217
1.02218
1.02265
1.02313
1.0236
1.02407
1.02454
1.025
1.02546
1.02591
1.02636
1.0268
1.02724
1.02768
1.02811
1.02854
1.02896
1.02938
1.0298
1.03021
1.03062
1.03103
1.03144
1.03184
1.03225
1.03265
1.03304
1.03344
1.03384
1.03423
1.03463
1.03502
1.03541
1.0358
1.03618
1.03657
1.03695
1.03733
1.0377
1.03808
1.03844
1.0388
1.03916
1.0395
1.03984
1.04018
1.0405
1.04081
1.04111
1.0414
1.04168
1.04194
1.04219
1.04243
1.04266
1.04287
1.04307
1.04325
1.04342
1.04358
1.04373
1.04386
1.04399
1.0441
1.04421
1.04431
1.0444
1.04448
1.04456
1.04463
1.0447
1.04477
1.04483
1.04489
1.04496
1.04502
1.04508
1.04514
1.0452
1.04526
1.04532
1.04538
1.04544
1.0455
1.04556
1.04562
1.04567
1.04572
1.04577
1.04582
1.04586
1.04591
1.04594
1.04598
1.04601
1.04603
1.04606
1.04608
1.0461
1.04611
1.04613
1.04614
1.04615
1.04616
1.04618
1.04619
1.0462
1.04622
1.04624
1.04626
1.04628
1.04631
1.04634
1.04638
1.04642
1.04647
1.04652
1.04658
1.04665
1.04672
1.04679
1.04687
1.04696
1.04706
1.04716
1.04726
1.04737
1.04749
1.04761
1.04774
1.04788
1.04802
1.04816
1.04831
1.04846
1.04862
1.04878
1.04894
1.04911
1.04928
1.04945
1.04962
1.0498
1.04997
1.05014
1.05031
1.05048
1.05065
1.05082
1.05098
1.05114
1.05129
1.05144
1.05159
1.05173
1.05187
1.05201
1.05214
1.05226
1.05239
1.05251
1.05263
1.05275
1.05286
1.05298
1.0531
1.05322
1.05334
1.05347
1.0536
1.05374
1.05388
1.05403
1.05419
1.05436
1.05453
1.05472
1.05492
1.05513
1.05535
1.05559
1.05584
1.0561
1.05637
1.05666
1.05695
1.05726
1.05759
1.05792
1.05826
1.05862
1.05898
1.05936
1.05974
1.06012
1.06052
1.06091
1.06131
1.06172
1.06212
1.06253
1.06293
1.06334
1.06374
1.06414
1.06454
1.06493
1.06532
1.0657
1.06607
1.06645
1.06681
1.06717
1.06752
1.06787
1.06821
1.06854
1.06886
1.06918
1.0695
1.06981
1.07011
1.07041
1.0707
1.07098
1.07127
1.07154
1.07181
1.07208
1.07234
1.07259
1.07284
1.07308
1.07332
1.07355
1.07378
1.074
1.07421
1.07442
1.07462
1.07481
1.075
1.07518
1.07536
1.07553
1.07569
1.07586
1.07602
1.07618
1.07634
1.0765
1.07666
1.07683
1.077
1.07718
1.07736
1.07756
1.07777
1.078
1.07825
1.07852
1.07882
1.07915
1.07952
1.07992
1.08038
1.08088
1.08145
1.08208
1.08279
1.08359
1.08449
1.08549
1.08662
1.08789
1.08933
1.09097
1.09284
1.095
1.0975
1.10045
1.10393
1.10804
1.11284
1.11829
1.12271
1.12297
0.994127
0.993623
0.994418
0.995762
0.997248
0.998588
0.999722
1.00065
1.0014
1.00201
1.00251
1.00291
1.00325
1.00353
1.00377
1.00398
1.00415
1.00431
1.00445
1.00459
1.00471
1.00482
1.00493
1.00503
1.00513
1.00522
1.00531
1.0054
1.00549
1.00557
1.00565
1.00573
1.0058
1.00587
1.00593
1.00599
1.00604
1.00609
1.00614
1.00618
1.00622
1.00625
1.00628
1.00631
1.00633
1.00635
1.00638
1.0064
1.00643
1.00645
1.00648
1.00651
1.00655
1.00659
1.00664
1.00669
1.00675
1.00681
1.00688
1.00696
1.00704
1.00713
1.00723
1.00733
1.00743
1.00755
1.00766
1.00778
1.0079
1.00803
1.00816
1.0083
1.00843
1.00857
1.00872
1.00886
1.00901
1.00917
1.00933
1.0095
1.00968
1.00986
1.01005
1.01026
1.01047
1.01069
1.01093
1.01118
1.01144
1.01172
1.01201
1.01231
1.01263
1.01296
1.01331
1.01367
1.01405
1.01443
1.01483
1.01524
1.01566
1.0161
1.01654
1.01699
1.01744
1.01791
1.01837
1.01885
1.01932
1.0198
1.02028
1.02076
1.02124
1.02172
1.0222
1.02267
1.02314
1.02361
1.02408
1.02454
1.025
1.02546
1.02591
1.02635
1.02679
1.02723
1.02767
1.0281
1.02852
1.02895
1.02937
1.02978
1.0302
1.03061
1.03101
1.03142
1.03182
1.03222
1.03262
1.03302
1.03341
1.03381
1.0342
1.03459
1.03498
1.03536
1.03575
1.03613
1.03651
1.03689
1.03726
1.03763
1.038
1.03836
1.03871
1.03906
1.0394
1.03974
1.04006
1.04038
1.04069
1.04098
1.04127
1.04154
1.0418
1.04205
1.04228
1.0425
1.04271
1.04291
1.04309
1.04326
1.04341
1.04356
1.04369
1.04382
1.04393
1.04404
1.04413
1.04422
1.04431
1.04438
1.04446
1.04453
1.04459
1.04466
1.04472
1.04478
1.04484
1.04491
1.04497
1.04503
1.04509
1.04515
1.04521
1.04527
1.04533
1.04539
1.04544
1.0455
1.04555
1.0456
1.04565
1.04569
1.04573
1.04577
1.0458
1.04583
1.04586
1.04589
1.04591
1.04593
1.04594
1.04596
1.04597
1.04599
1.046
1.04602
1.04603
1.04605
1.04607
1.04609
1.04611
1.04614
1.04618
1.04621
1.04625
1.0463
1.04635
1.04641
1.04647
1.04654
1.04661
1.04669
1.04678
1.04687
1.04697
1.04707
1.04718
1.0473
1.04742
1.04755
1.04768
1.04782
1.04796
1.04811
1.04826
1.04841
1.04857
1.04874
1.0489
1.04907
1.04924
1.04941
1.04959
1.04976
1.04993
1.05011
1.05028
1.05045
1.05062
1.05078
1.05094
1.0511
1.05126
1.05141
1.05155
1.0517
1.05183
1.05197
1.0521
1.05223
1.05235
1.05247
1.05259
1.05271
1.05283
1.05295
1.05307
1.05319
1.05332
1.05344
1.05358
1.05371
1.05386
1.05401
1.05417
1.05434
1.05452
1.05471
1.05491
1.05512
1.05534
1.05558
1.05583
1.05609
1.05636
1.05665
1.05695
1.05726
1.05758
1.05791
1.05826
1.05861
1.05897
1.05934
1.05972
1.06011
1.0605
1.0609
1.0613
1.0617
1.0621
1.06251
1.06291
1.06332
1.06372
1.06412
1.06451
1.0649
1.06529
1.06567
1.06605
1.06642
1.06678
1.06714
1.0675
1.06784
1.06818
1.06852
1.06884
1.06917
1.06948
1.06979
1.0701
1.07039
1.07069
1.07098
1.07126
1.07154
1.07181
1.07208
1.07234
1.07259
1.07284
1.07309
1.07333
1.07356
1.07378
1.074
1.07422
1.07442
1.07462
1.07482
1.075
1.07519
1.07536
1.07553
1.0757
1.07587
1.07603
1.07619
1.07635
1.0765
1.07667
1.07683
1.077
1.07718
1.07736
1.07756
1.07777
1.07799
1.07824
1.07851
1.0788
1.07913
1.07949
1.0799
1.08035
1.08085
1.08141
1.08204
1.08275
1.08354
1.08442
1.08541
1.08652
1.08777
1.08917
1.09075
1.09254
1.09457
1.09689
1.09952
1.10252
1.10585
1.10928
1.1124
1.11459
1.11392
0.996302
0.995951
0.996217
0.996933
0.99787
0.998833
0.999724
1.0005
1.00117
1.00173
1.0022
1.0026
1.00294
1.00322
1.00347
1.00369
1.00388
1.00405
1.0042
1.00434
1.00447
1.0046
1.00471
1.00483
1.00493
1.00504
1.00514
1.00523
1.00533
1.00542
1.0055
1.00558
1.00566
1.00573
1.0058
1.00587
1.00593
1.00598
1.00603
1.00608
1.00612
1.00616
1.0062
1.00623
1.00626
1.00629
1.00632
1.00635
1.00638
1.00641
1.00644
1.00648
1.00652
1.00657
1.00662
1.00667
1.00673
1.0068
1.00687
1.00695
1.00703
1.00712
1.00722
1.00732
1.00743
1.00754
1.00765
1.00777
1.00789
1.00802
1.00815
1.00828
1.00842
1.00856
1.0087
1.00885
1.009
1.00916
1.00932
1.00949
1.00967
1.00985
1.01005
1.01025
1.01047
1.01069
1.01093
1.01119
1.01145
1.01173
1.01203
1.01233
1.01266
1.01299
1.01334
1.01371
1.01408
1.01447
1.01487
1.01529
1.01571
1.01614
1.01658
1.01703
1.01749
1.01795
1.01841
1.01889
1.01936
1.01984
1.02031
1.02079
1.02127
1.02174
1.02222
1.02269
1.02316
1.02363
1.02409
1.02455
1.025
1.02546
1.0259
1.02635
1.02679
1.02722
1.02766
1.02809
1.02851
1.02893
1.02935
1.02977
1.03018
1.03059
1.03099
1.0314
1.0318
1.0322
1.03259
1.03299
1.03338
1.03377
1.03416
1.03454
1.03493
1.03531
1.03569
1.03607
1.03644
1.03681
1.03718
1.03754
1.0379
1.03826
1.03861
1.03895
1.03928
1.03961
1.03993
1.04024
1.04054
1.04083
1.04111
1.04137
1.04163
1.04187
1.0421
1.04232
1.04252
1.04271
1.04289
1.04306
1.04321
1.04336
1.04349
1.04361
1.04372
1.04383
1.04392
1.04401
1.0441
1.04417
1.04425
1.04432
1.04438
1.04445
1.04451
1.04457
1.04464
1.0447
1.04476
1.04482
1.04488
1.04494
1.045
1.04506
1.04512
1.04518
1.04523
1.04529
1.04534
1.04539
1.04544
1.04548
1.04552
1.04556
1.04559
1.04562
1.04565
1.04568
1.0457
1.04572
1.04574
1.04576
1.04578
1.04579
1.04581
1.04583
1.04585
1.04587
1.04589
1.04591
1.04594
1.04597
1.04601
1.04605
1.0461
1.04615
1.0462
1.04627
1.04633
1.04641
1.04648
1.04657
1.04666
1.04676
1.04686
1.04697
1.04708
1.0472
1.04733
1.04746
1.0476
1.04774
1.04788
1.04803
1.04819
1.04835
1.04851
1.04868
1.04885
1.04902
1.04919
1.04936
1.04954
1.04971
1.04989
1.05006
1.05023
1.0504
1.05057
1.05074
1.0509
1.05106
1.05121
1.05136
1.05151
1.05165
1.05179
1.05192
1.05205
1.05218
1.05231
1.05243
1.05255
1.05267
1.05279
1.05291
1.05303
1.05315
1.05328
1.05341
1.05354
1.05368
1.05383
1.05399
1.05415
1.05432
1.0545
1.05469
1.05489
1.0551
1.05533
1.05557
1.05582
1.05608
1.05635
1.05664
1.05694
1.05725
1.05757
1.0579
1.05824
1.0586
1.05896
1.05933
1.05971
1.06009
1.06048
1.06088
1.06128
1.06168
1.06208
1.06248
1.06289
1.06329
1.06369
1.06409
1.06449
1.06488
1.06526
1.06565
1.06602
1.06639
1.06676
1.06712
1.06747
1.06782
1.06816
1.0685
1.06883
1.06915
1.06947
1.06978
1.07009
1.07039
1.07068
1.07097
1.07126
1.07154
1.07181
1.07208
1.07234
1.0726
1.07285
1.0731
1.07334
1.07357
1.07379
1.07401
1.07423
1.07443
1.07464
1.07483
1.07502
1.0752
1.07537
1.07555
1.07571
1.07588
1.07604
1.07619
1.07635
1.07651
1.07667
1.07683
1.077
1.07717
1.07735
1.07755
1.07775
1.07797
1.07821
1.07848
1.07877
1.07909
1.07945
1.07984
1.08029
1.08078
1.08133
1.08195
1.08265
1.08342
1.08428
1.08525
1.08633
1.08753
1.08887
1.09037
1.09204
1.09391
1.09598
1.09826
1.10072
1.10326
1.10568
1.10753
1.10848
1.10818
0.997794
0.997473
0.997537
0.997933
0.998522
0.999194
0.999866
1.00049
1.00106
1.00155
1.00198
1.00236
1.00268
1.00296
1.00321
1.00343
1.00362
1.0038
1.00396
1.00411
1.00425
1.00438
1.00451
1.00462
1.00474
1.00485
1.00496
1.00506
1.00516
1.00525
1.00535
1.00543
1.00552
1.0056
1.00567
1.00574
1.00581
1.00587
1.00593
1.00598
1.00603
1.00607
1.00611
1.00615
1.00619
1.00622
1.00626
1.00629
1.00633
1.00637
1.0064
1.00645
1.00649
1.00654
1.00659
1.00665
1.00671
1.00678
1.00686
1.00694
1.00702
1.00711
1.00721
1.00731
1.00741
1.00752
1.00764
1.00776
1.00788
1.008
1.00813
1.00826
1.0084
1.00854
1.00868
1.00883
1.00898
1.00914
1.0093
1.00947
1.00965
1.00984
1.01003
1.01024
1.01046
1.01069
1.01093
1.01119
1.01146
1.01174
1.01204
1.01235
1.01268
1.01302
1.01337
1.01374
1.01412
1.01451
1.01491
1.01532
1.01575
1.01618
1.01662
1.01707
1.01753
1.01799
1.01846
1.01893
1.0194
1.01987
1.02035
1.02082
1.0213
1.02177
1.02224
1.02271
1.02318
1.02364
1.0241
1.02456
1.02501
1.02546
1.02591
1.02635
1.02678
1.02722
1.02765
1.02808
1.0285
1.02892
1.02934
1.02975
1.03016
1.03057
1.03097
1.03137
1.03177
1.03217
1.03256
1.03295
1.03334
1.03373
1.03411
1.03449
1.03487
1.03525
1.03562
1.03599
1.03636
1.03673
1.03709
1.03744
1.0378
1.03814
1.03848
1.03882
1.03915
1.03947
1.03978
1.04008
1.04037
1.04065
1.04093
1.04119
1.04143
1.04167
1.0419
1.04211
1.04231
1.0425
1.04267
1.04283
1.04298
1.04312
1.04325
1.04337
1.04348
1.04359
1.04368
1.04377
1.04385
1.04393
1.044
1.04407
1.04414
1.04421
1.04427
1.04433
1.04439
1.04445
1.04452
1.04458
1.04464
1.0447
1.04476
1.04482
1.04488
1.04493
1.04499
1.04504
1.0451
1.04515
1.04519
1.04524
1.04528
1.04532
1.04535
1.04538
1.04541
1.04544
1.04547
1.04549
1.04551
1.04553
1.04555
1.04557
1.04559
1.04561
1.04563
1.04566
1.04568
1.04571
1.04574
1.04578
1.04582
1.04587
1.04592
1.04597
1.04603
1.0461
1.04617
1.04625
1.04634
1.04643
1.04652
1.04662
1.04673
1.04684
1.04696
1.04709
1.04722
1.04736
1.0475
1.04764
1.04779
1.04795
1.04811
1.04827
1.04844
1.04861
1.04878
1.04895
1.04913
1.0493
1.04948
1.04965
1.04983
1.05
1.05018
1.05035
1.05051
1.05068
1.05084
1.051
1.05115
1.0513
1.05145
1.05159
1.05173
1.05186
1.052
1.05212
1.05225
1.05237
1.05249
1.05262
1.05274
1.05286
1.05298
1.05311
1.05324
1.05337
1.05351
1.05365
1.0538
1.05395
1.05412
1.05429
1.05447
1.05467
1.05487
1.05508
1.05531
1.05555
1.0558
1.05606
1.05633
1.05662
1.05692
1.05723
1.05755
1.05788
1.05823
1.05858
1.05894
1.05931
1.05969
1.06007
1.06046
1.06085
1.06125
1.06165
1.06206
1.06246
1.06286
1.06327
1.06367
1.06406
1.06446
1.06485
1.06524
1.06562
1.066
1.06637
1.06674
1.0671
1.06745
1.0678
1.06814
1.06848
1.06881
1.06914
1.06946
1.06977
1.07008
1.07038
1.07068
1.07097
1.07126
1.07154
1.07182
1.07209
1.07235
1.07261
1.07286
1.07311
1.07335
1.07358
1.07381
1.07403
1.07424
1.07445
1.07465
1.07484
1.07503
1.07521
1.07539
1.07556
1.07573
1.07589
1.07605
1.0762
1.07636
1.07651
1.07667
1.07683
1.07699
1.07716
1.07734
1.07752
1.07772
1.07794
1.07817
1.07843
1.07871
1.07902
1.07937
1.07975
1.08018
1.08067
1.0812
1.08181
1.08248
1.08323
1.08406
1.08499
1.08603
1.08717
1.08844
1.08983
1.09137
1.09305
1.09487
1.0968
1.09879
1.10069
1.10236
1.10354
1.10397
1.10371
0.998827
0.998526
0.998504
0.998717
0.99909
0.999557
1.00006
1.00055
1.00102
1.00144
1.00182
1.00216
1.00247
1.00274
1.00298
1.00319
1.00339
1.00357
1.00373
1.00389
1.00403
1.00417
1.0043
1.00442
1.00455
1.00466
1.00477
1.00488
1.00499
1.00509
1.00519
1.00528
1.00537
1.00546
1.00554
1.00562
1.00569
1.00576
1.00582
1.00588
1.00593
1.00598
1.00603
1.00608
1.00612
1.00616
1.0062
1.00624
1.00628
1.00633
1.00637
1.00642
1.00647
1.00652
1.00658
1.00664
1.0067
1.00677
1.00685
1.00693
1.00702
1.00711
1.0072
1.0073
1.00741
1.00752
1.00763
1.00775
1.00787
1.00799
1.00812
1.00825
1.00838
1.00852
1.00866
1.00881
1.00896
1.00912
1.00928
1.00945
1.00963
1.00982
1.01002
1.01023
1.01045
1.01068
1.01093
1.01119
1.01146
1.01175
1.01205
1.01236
1.01269
1.01304
1.01339
1.01376
1.01415
1.01454
1.01494
1.01536
1.01579
1.01622
1.01666
1.01711
1.01757
1.01803
1.0185
1.01897
1.01944
1.01991
1.02038
1.02086
1.02133
1.0218
1.02227
1.02273
1.0232
1.02366
1.02411
1.02457
1.02502
1.02546
1.02591
1.02634
1.02678
1.02721
1.02764
1.02807
1.02849
1.02891
1.02932
1.02973
1.03014
1.03055
1.03095
1.03135
1.03175
1.03214
1.03253
1.03292
1.0333
1.03369
1.03406
1.03444
1.03481
1.03519
1.03555
1.03592
1.03628
1.03664
1.03699
1.03734
1.03768
1.03802
1.03835
1.03868
1.039
1.03931
1.03961
1.0399
1.04019
1.04046
1.04073
1.04098
1.04122
1.04145
1.04167
1.04188
1.04207
1.04225
1.04242
1.04258
1.04273
1.04287
1.043
1.04311
1.04322
1.04332
1.04342
1.0435
1.04358
1.04366
1.04373
1.0438
1.04387
1.04394
1.044
1.04406
1.04412
1.04419
1.04425
1.04431
1.04437
1.04443
1.04449
1.04455
1.04461
1.04467
1.04472
1.04478
1.04483
1.04488
1.04493
1.04497
1.04501
1.04505
1.04509
1.04512
1.04515
1.04518
1.04521
1.04523
1.04526
1.04528
1.0453
1.04532
1.04535
1.04537
1.0454
1.04542
1.04546
1.04549
1.04553
1.04557
1.04561
1.04567
1.04572
1.04578
1.04585
1.04592
1.046
1.04608
1.04617
1.04627
1.04637
1.04648
1.04659
1.04671
1.04684
1.04697
1.0471
1.04724
1.04739
1.04754
1.0477
1.04786
1.04802
1.04819
1.04836
1.04853
1.0487
1.04888
1.04906
1.04923
1.04941
1.04959
1.04977
1.04994
1.05012
1.05029
1.05045
1.05062
1.05078
1.05094
1.05109
1.05124
1.05139
1.05153
1.05167
1.0518
1.05193
1.05206
1.05219
1.05231
1.05244
1.05256
1.05268
1.05281
1.05293
1.05306
1.05319
1.05332
1.05346
1.05361
1.05376
1.05392
1.05409
1.05426
1.05445
1.05464
1.05484
1.05506
1.05529
1.05553
1.05578
1.05604
1.05631
1.0566
1.0569
1.05721
1.05753
1.05786
1.0582
1.05856
1.05892
1.05929
1.05966
1.06005
1.06043
1.06083
1.06123
1.06163
1.06203
1.06243
1.06284
1.06324
1.06364
1.06404
1.06443
1.06483
1.06521
1.0656
1.06598
1.06635
1.06672
1.06708
1.06743
1.06779
1.06813
1.06847
1.0688
1.06913
1.06945
1.06977
1.07008
1.07039
1.07069
1.07098
1.07127
1.07155
1.07183
1.0721
1.07237
1.07263
1.07288
1.07313
1.07337
1.07361
1.07383
1.07405
1.07427
1.07447
1.07467
1.07487
1.07505
1.07524
1.07541
1.07558
1.07574
1.0759
1.07606
1.07622
1.07637
1.07652
1.07667
1.07683
1.07698
1.07715
1.07732
1.0775
1.07769
1.0779
1.07812
1.07837
1.07864
1.07894
1.07927
1.07965
1.08006
1.08053
1.08105
1.08163
1.08227
1.08299
1.08379
1.08468
1.08566
1.08674
1.08792
1.08921
1.0906
1.0921
1.09367
1.09529
1.09687
1.09832
1.09948
1.10024
1.10044
1.10009
0.999547
0.999289
0.999227
0.999336
0.999575
0.999901
1.00027
1.00066
1.00103
1.00139
1.00172
1.00203
1.00231
1.00256
1.00279
1.00299
1.00319
1.00336
1.00353
1.00369
1.00383
1.00397
1.00411
1.00424
1.00436
1.00449
1.0046
1.00472
1.00483
1.00494
1.00504
1.00514
1.00523
1.00532
1.00541
1.00549
1.00557
1.00564
1.00571
1.00578
1.00584
1.0059
1.00595
1.00601
1.00606
1.0061
1.00615
1.0062
1.00624
1.00629
1.00634
1.00639
1.00645
1.0065
1.00656
1.00663
1.0067
1.00677
1.00685
1.00693
1.00701
1.0071
1.0072
1.0073
1.0074
1.00751
1.00762
1.00774
1.00786
1.00798
1.0081
1.00823
1.00836
1.0085
1.00864
1.00879
1.00894
1.00909
1.00926
1.00943
1.00961
1.0098
1.01
1.01021
1.01043
1.01067
1.01092
1.01118
1.01146
1.01175
1.01205
1.01237
1.0127
1.01305
1.01341
1.01378
1.01417
1.01456
1.01497
1.01539
1.01582
1.01625
1.0167
1.01715
1.01761
1.01807
1.01853
1.019
1.01947
1.01994
1.02042
1.02089
1.02136
1.02183
1.02229
1.02276
1.02322
1.02368
1.02413
1.02458
1.02503
1.02547
1.02591
1.02635
1.02678
1.02721
1.02763
1.02806
1.02848
1.02889
1.02931
1.02972
1.03012
1.03053
1.03093
1.03133
1.03172
1.03211
1.0325
1.03288
1.03326
1.03364
1.03401
1.03439
1.03475
1.03512
1.03548
1.03584
1.03619
1.03654
1.03688
1.03722
1.03756
1.03789
1.03821
1.03853
1.03884
1.03914
1.03943
1.03972
1.03999
1.04026
1.04051
1.04076
1.04099
1.04122
1.04143
1.04163
1.04182
1.04199
1.04216
1.04231
1.04246
1.04259
1.04272
1.04283
1.04294
1.04304
1.04313
1.04321
1.04329
1.04337
1.04344
1.04351
1.04358
1.04364
1.04371
1.04377
1.04383
1.0439
1.04396
1.04402
1.04408
1.04414
1.0442
1.04426
1.04432
1.04438
1.04443
1.04449
1.04454
1.04459
1.04464
1.04468
1.04472
1.04476
1.0448
1.04484
1.04487
1.0449
1.04493
1.04495
1.04498
1.04501
1.04503
1.04506
1.04508
1.04511
1.04514
1.04518
1.04521
1.04525
1.04529
1.04534
1.04539
1.04545
1.04551
1.04557
1.04565
1.04573
1.04581
1.0459
1.046
1.0461
1.04621
1.04632
1.04644
1.04657
1.0467
1.04683
1.04698
1.04712
1.04727
1.04743
1.04759
1.04776
1.04792
1.0481
1.04827
1.04844
1.04862
1.0488
1.04898
1.04916
1.04934
1.04952
1.0497
1.04987
1.05005
1.05022
1.05039
1.05055
1.05071
1.05087
1.05103
1.05117
1.05132
1.05146
1.0516
1.05174
1.05187
1.052
1.05212
1.05225
1.05237
1.0525
1.05262
1.05275
1.05287
1.053
1.05314
1.05327
1.05342
1.05356
1.05372
1.05388
1.05405
1.05422
1.05441
1.05461
1.05481
1.05503
1.05526
1.0555
1.05575
1.05601
1.05629
1.05658
1.05687
1.05718
1.0575
1.05784
1.05818
1.05853
1.05889
1.05926
1.05963
1.06002
1.0604
1.0608
1.0612
1.0616
1.062
1.0624
1.06281
1.06321
1.06361
1.06401
1.06441
1.0648
1.06519
1.06557
1.06595
1.06633
1.0667
1.06706
1.06742
1.06777
1.06812
1.06846
1.0688
1.06913
1.06945
1.06977
1.07008
1.07039
1.0707
1.07099
1.07128
1.07157
1.07185
1.07212
1.07239
1.07265
1.07291
1.07316
1.0734
1.07363
1.07386
1.07408
1.0743
1.0745
1.0747
1.0749
1.07508
1.07526
1.07544
1.0756
1.07577
1.07592
1.07608
1.07623
1.07638
1.07653
1.07668
1.07683
1.07698
1.07713
1.0773
1.07747
1.07765
1.07785
1.07806
1.0783
1.07856
1.07884
1.07916
1.07951
1.07991
1.08036
1.08085
1.08141
1.08202
1.08271
1.08347
1.08431
1.08523
1.08624
1.08733
1.08851
1.08977
1.09109
1.09245
1.09379
1.09506
1.09617
1.09701
1.09749
1.09757
1.09718
1.00006
0.999842
0.999761
0.999808
0.999961
1.00019
1.00047
1.00076
1.00107
1.00137
1.00165
1.00192
1.00217
1.0024
1.00262
1.00282
1.003
1.00318
1.00334
1.0035
1.00365
1.00379
1.00393
1.00406
1.00419
1.00432
1.00444
1.00456
1.00467
1.00479
1.00489
1.005
1.0051
1.0052
1.00529
1.00538
1.00546
1.00554
1.00562
1.00569
1.00576
1.00582
1.00589
1.00594
1.006
1.00606
1.00611
1.00616
1.00622
1.00627
1.00632
1.00638
1.00644
1.0065
1.00656
1.00663
1.0067
1.00678
1.00685
1.00694
1.00702
1.00711
1.00721
1.00731
1.00741
1.00752
1.00763
1.00774
1.00786
1.00798
1.0081
1.00822
1.00835
1.00849
1.00863
1.00877
1.00892
1.00908
1.00924
1.00941
1.00959
1.00978
1.00998
1.0102
1.01042
1.01066
1.01091
1.01117
1.01145
1.01175
1.01205
1.01237
1.01271
1.01306
1.01342
1.0138
1.01419
1.01458
1.01499
1.01541
1.01584
1.01628
1.01673
1.01718
1.01764
1.0181
1.01856
1.01903
1.0195
1.01997
1.02044
1.02091
1.02138
1.02185
1.02231
1.02278
1.02323
1.02369
1.02414
1.02459
1.02503
1.02547
1.02591
1.02635
1.02678
1.0272
1.02763
1.02805
1.02847
1.02888
1.0293
1.0297
1.03011
1.03051
1.03091
1.03131
1.0317
1.03208
1.03247
1.03285
1.03323
1.0336
1.03397
1.03433
1.03469
1.03505
1.0354
1.03575
1.0361
1.03644
1.03678
1.03711
1.03743
1.03775
1.03806
1.03837
1.03867
1.03896
1.03925
1.03952
1.03979
1.04005
1.04029
1.04053
1.04076
1.04097
1.04118
1.04137
1.04155
1.04172
1.04188
1.04203
1.04217
1.0423