# vtk DataFile Version 2.0
LBE mesh
ASCII
DATASET STRUCTURED_POINTS
DIMENSIONS 400 100 1
ASPECT_RATIO 1 1 1
ORIGIN 0 0 0
POINT_DATA 40000
SCALARS rho double 1
LOOKUP_TABLE default
1.1092
1.18375
1.20542
1.2098
1.21193
1.2138
1.21516
1.21606
1.21667
1.21713
1.21748
1.21777
1.218
1.21819
1.21834
1.21847
1.21859
1.21868
1.21876
1.21883
1.21889
1.21894
1.21898
1.21902
1.21905
1.21907
1.21909
1.21911
1.21912
1.21912
1.21912
1.21912
1.21912
1.21911
1.2191
1.21909
1.21908
1.21906
1.21905
1.21903
1.21901
1.21899
1.21897
1.21895
1.21893
1.21891
1.2189
1.21888
1.21886
1.21885
1.21884
1.21883
1.21883
1.21883
1.21883
1.21884
1.21885
1.21886
1.21888
1.21891
1.21894
1.21898
1.21903
1.21908
1.21914
1.21921
1.21928
1.21937
1.21946
1.21956
1.21966
1.21978
1.2199
1.22003
1.22017
1.22031
1.22047
1.22063
1.2208
1.22098
1.22117
1.22136
1.22156
1.22177
1.22199
1.22221
1.22244
1.22267
1.22292
1.22316
1.22341
1.22367
1.22393
1.22419
1.22446
1.22473
1.225
1.22527
1.22554
1.22582
1.22609
1.22636
1.22663
1.22689
1.22716
1.22742
1.22767
1.22792
1.22816
1.2284
1.22863
1.22886
1.22908
1.22928
1.22949
1.22968
1.22986
1.23003
1.2302
1.23035
1.2305
1.23063
1.23076
1.23088
1.23098
1.23108
1.23118
1.23126
1.23133
1.2314
1.23146
1.23152
1.23157
1.23161
1.23165
1.23168
1.23171
1.23173
1.23175
1.23177
1.23178
1.23179
1.2318
1.2318
1.23181
1.23181
1.23181
1.2318
1.2318
1.2318
1.23179
1.23178
1.23177
1.23177
1.23176
1.23175
1.23174
1.23173
1.23171
1.2317
1.23169
1.23168
1.23166
1.23165
1.23164
1.23162
1.23161
1.2316
1.23158
1.23157
1.23156
1.23154
1.23153
1.23151
1.2315
1.23148
1.23147
1.23146
1.23144
1.23143
1.23141
1.2314
1.23139
1.23137
1.23136
1.23135
1.23134
1.23133
1.23131
1.2313
1.23129
1.23129
1.23128
1.23127
1.23126
1.23126
1.23125
1.23125
1.23124
1.23124
1.23124
1.23124
1.23124
1.23125
1.23125
1.23126
1.23127
1.23128
1.23129
1.2313
1.23132
1.23133
1.23135
1.23138
1.2314
1.23143
1.23145
1.23149
1.23152
1.23156
1.2316
1.23164
1.23169
1.23174
1.23179
1.23185
1.23191
1.23197
1.23204
1.23212
1.2322
1.23228
1.23237
1.23246
1.23256
1.23267
1.23278
1.2329
1.23302
1.23315
1.23329
1.23343
1.23358
1.23374
1.2339
1.23407
1.23425
1.23444
1.23463
1.23484
1.23505
1.23527
1.2355
1.23573
1.23597
1.23623
1.23648
1.23675
1.23703
1.23731
1.23759
1.23789
1.23819
1.2385
1.23881
1.23913
1.23945
1.23977
1.2401
1.24043
1.24076
1.2411
1.24143
1.24176
1.24209
1.24242
1.24275
1.24307
1.24338
1.24369
1.244
1.2443
1.24459
1.24487
1.24514
1.24541
1.24566
1.2459
1.24614
1.24636
1.24658
1.24678
1.24698
1.24716
1.24734
1.2475
1.24766
1.24781
1.24794
1.24808
1.2482
1.24832
1.24842
1.24853
1.24862
1.24872
1.2488
1.24888
1.24896
1.24903
1.2491
1.24916
1.24922
1.24927
1.24933
1.24938
1.24942
1.24947
1.24951
1.24954
1.24958
1.24961
1.24964
1.24967
1.2497
1.24972
1.24974
1.24977
1.24979
1.24981
1.24982
1.24984
1.24986
1.24988
1.2499
1.24992
1.24995
1.24997
1.25
1.25004
1.25008
1.25012
1.25017
1.25023
1.25029
1.25037
1.25045
1.25054
1.25065
1.25076
1.25089
1.25104
1.2512
1.25138
1.25157
1.25178
1.25201
1.25226
1.25253
1.25283
1.25315
1.25349
1.25386
1.25425
1.25467
1.25512
1.2556
1.25611
1.25665
1.25723
1.25784
1.25848
1.25917
1.25989
1.26065
1.26146
1.26231
1.26321
1.26416
1.26517
1.26624
1.26737
1.26858
1.26987
1.27125
1.27273
1.27434
1.27609
1.27801
1.28013
1.28251
1.28521
1.28834
1.29202
1.29651
1.3023
1.31039
1.32178
1.3382
1.371
1.17284
1.18258
1.19446
1.20427
1.20935
1.21194
1.21356
1.21473
1.2156
1.21625
1.21675
1.21714
1.21745
1.21771
1.21792
1.2181
1.21825
1.21838
1.21849
1.21858
1.21866
1.21873
1.21879
1.21884
1.21888
1.21891
1.21894
1.21897
1.21898
1.219
1.21901
1.21901
1.21901
1.21901
1.21901
1.219
1.21899
1.21898
1.21897
1.21895
1.21894
1.21892
1.2189
1.21889
1.21887
1.21886
1.21884
1.21883
1.21881
1.2188
1.2188
1.21879
1.21879
1.21879
1.21879
1.2188
1.21882
1.21884
1.21886
1.21889
1.21892
1.21897
1.21901
1.21907
1.21913
1.2192
1.21928
1.21936
1.21945
1.21955
1.21966
1.21978
1.2199
1.22003
1.22017
1.22032
1.22048
1.22064
1.22081
1.22099
1.22118
1.22138
1.22158
1.22179
1.222
1.22223
1.22246
1.22269
1.22293
1.22318
1.22343
1.22369
1.22395
1.22421
1.22448
1.22475
1.22502
1.22529
1.22556
1.22583
1.2261
1.22637
1.22664
1.22691
1.22717
1.22742
1.22768
1.22793
1.22817
1.22841
1.22863
1.22886
1.22907
1.22928
1.22948
1.22967
1.22985
1.23002
1.23018
1.23034
1.23048
1.23061
1.23074
1.23086
1.23096
1.23106
1.23115
1.23123
1.23131
1.23138
1.23144
1.23149
1.23154
1.23158
1.23162
1.23165
1.23168
1.2317
1.23172
1.23174
1.23175
1.23176
1.23177
1.23178
1.23178
1.23178
1.23178
1.23178
1.23178
1.23177
1.23177
1.23176
1.23175
1.23175
1.23174
1.23173
1.23172
1.23171
1.23169
1.23168
1.23167
1.23166
1.23165
1.23163
1.23162
1.23161
1.2316
1.23158
1.23157
1.23155
1.23154
1.23153
1.23151
1.2315
1.23149
1.23147
1.23146
1.23144
1.23143
1.23142
1.2314
1.23139
1.23138
1.23136
1.23135
1.23134
1.23133
1.23132
1.23131
1.2313
1.23129
1.23128
1.23127
1.23126
1.23125
1.23125
1.23124
1.23124
1.23124
1.23124
1.23124
1.23124
1.23124
1.23124
1.23125
1.23125
1.23126
1.23127
1.23128
1.2313
1.23131
1.23133
1.23135
1.23137
1.2314
1.23142
1.23145
1.23148
1.23152
1.23156
1.2316
1.23164
1.23169
1.23174
1.23179
1.23185
1.23191
1.23198
1.23205
1.23212
1.2322
1.23229
1.23238
1.23247
1.23257
1.23268
1.23279
1.23291
1.23303
1.23316
1.2333
1.23344
1.23359
1.23375
1.23392
1.23409
1.23427
1.23446
1.23465
1.23486
1.23507
1.23529
1.23552
1.23576
1.236
1.23625
1.23651
1.23678
1.23705
1.23733
1.23762
1.23792
1.23822
1.23853
1.23884
1.23916
1.23948
1.2398
1.24013
1.24046
1.24079
1.24112
1.24145
1.24179
1.24212
1.24244
1.24277
1.24309
1.2434
1.24371
1.24401
1.24431
1.2446
1.24488
1.24515
1.24541
1.24566
1.24591
1.24614
1.24636
1.24658
1.24678
1.24697
1.24716
1.24733
1.24749
1.24765
1.2478
1.24794
1.24807
1.24819
1.24831
1.24841
1.24852
1.24861
1.2487
1.24879
1.24887
1.24895
1.24902
1.24909
1.24915
1.24921
1.24926
1.24932
1.24937
1.24941
1.24946
1.2495
1.24953
1.24957
1.2496
1.24963
1.24966
1.24969
1.24971
1.24974
1.24976
1.24978
1.2498
1.24982
1.24983
1.24985
1.24987
1.24989
1.24992
1.24994
1.24997
1.25
1.25003
1.25007
1.25012
1.25017
1.25023
1.2503
1.25037
1.25046
1.25055
1.25066
1.25078
1.25091
1.25106
1.25122
1.2514
1.2516
1.25181
1.25205
1.2523
1.25258
1.25287
1.2532
1.25354
1.25391
1.25431
1.25474
1.25519
1.25567
1.25619
1.25674
1.25732
1.25793
1.25858
1.25927
1.26
1.26077
1.26158
1.26244
1.26335
1.26431
1.26533
1.26641
1.26756
1.26878
1.27009
1.27149
1.27301
1.27465
1.27644
1.27841
1.28061
1.28308
1.2859
1.28919
1.29312
1.29797
1.30409
1.31203
1.32362
1.34398
1.37631
1.19252
1.19064
1.19785
1.20387
1.20765
1.21036
1.21232
1.21371
1.21472
1.21549
1.21609
1.21657
1.21695
1.21727
1.21753
1.21775
1.21793
1.21809
1.21822
1.21834
1.21844
1.21852
1.2186
1.21866
1.21871
1.21876
1.2188
1.21883
1.21885
1.21887
1.21889
1.2189
1.21891
1.21891
1.21891
1.21891
1.2189
1.2189
1.21889
1.21888
1.21886
1.21885
1.21884
1.21882
1.21881
1.2188
1.21878
1.21877
1.21876
1.21875
1.21875
1.21874
1.21874
1.21875
1.21875
1.21876
1.21878
1.2188
1.21883
1.21886
1.21889
1.21894
1.21899
1.21905
1.21911
1.21918
1.21926
1.21934
1.21944
1.21954
1.21965
1.21977
1.21989
1.22003
1.22017
1.22032
1.22047
1.22064
1.22081
1.221
1.22118
1.22138
1.22158
1.22179
1.22201
1.22224
1.22247
1.2227
1.22295
1.22319
1.22345
1.2237
1.22396
1.22423
1.22449
1.22476
1.22503
1.2253
1.22558
1.22585
1.22612
1.22639
1.22665
1.22692
1.22718
1.22744
1.22769
1.22794
1.22818
1.22841
1.22864
1.22886
1.22908
1.22928
1.22948
1.22967
1.22985
1.23002
1.23018
1.23033
1.23047
1.2306
1.23073
1.23084
1.23095
1.23104
1.23113
1.23121
1.23129
1.23135
1.23141
1.23147
1.23151
1.23156
1.23159
1.23162
1.23165
1.23168
1.23169
1.23171
1.23172
1.23174
1.23174
1.23175
1.23175
1.23175
1.23175
1.23175
1.23175
1.23175
1.23174
1.23173
1.23173
1.23172
1.23171
1.2317
1.23169
1.23168
1.23167
1.23166
1.23165
1.23164
1.23162
1.23161
1.2316
1.23159
1.23157
1.23156
1.23155
1.23154
1.23152
1.23151
1.23149
1.23148
1.23147
1.23145
1.23144
1.23143
1.23141
1.2314
1.23139
1.23137
1.23136
1.23135
1.23134
1.23132
1.23131
1.2313
1.23129
1.23128
1.23127
1.23126
1.23126
1.23125
1.23124
1.23124
1.23123
1.23123
1.23123
1.23122
1.23122
1.23123
1.23123
1.23123
1.23124
1.23124
1.23125
1.23126
1.23127
1.23129
1.2313
1.23132
1.23134
1.23136
1.23139
1.23141
1.23144
1.23147
1.23151
1.23155
1.23159
1.23163
1.23168
1.23173
1.23178
1.23184
1.2319
1.23197
1.23204
1.23212
1.2322
1.23228
1.23237
1.23247
1.23257
1.23267
1.23279
1.2329
1.23303
1.23316
1.2333
1.23344
1.23359
1.23375
1.23392
1.23409
1.23428
1.23446
1.23466
1.23487
1.23508
1.2353
1.23553
1.23577
1.23601
1.23627
1.23653
1.23679
1.23707
1.23735
1.23764
1.23794
1.23824
1.23855
1.23886
1.23918
1.2395
1.23982
1.24015
1.24048
1.24081
1.24115
1.24148
1.24181
1.24214
1.24247
1.24279
1.24311
1.24342
1.24373
1.24403
1.24433
1.24462
1.24489
1.24516
1.24543
1.24568
1.24592
1.24615
1.24637
1.24658
1.24678
1.24698
1.24716
1.24733
1.24749
1.24765
1.24779
1.24793
1.24806
1.24818
1.2483
1.24841
1.24851
1.24861
1.2487
1.24878
1.24886
1.24894
1.24901
1.24908
1.24914
1.2492
1.24926
1.24931
1.24936
1.2494
1.24945
1.24949
1.24953
1.24956
1.24959
1.24962
1.24965
1.24968
1.2497
1.24973
1.24975
1.24977
1.24979
1.24981
1.24982
1.24984
1.24986
1.24988
1.24991
1.24993
1.24996
1.24999
1.25003
1.25007
1.25011
1.25017
1.25022
1.25029
1.25037
1.25045
1.25055
1.25066
1.25078
1.25092
1.25106
1.25123
1.25141
1.25161
1.25182
1.25206
1.25232
1.2526
1.2529
1.25322
1.25357
1.25394
1.25435
1.25477
1.25523
1.25572
1.25624
1.25679
1.25737
1.25799
1.25865
1.25934
1.26007
1.26084
1.26166
1.26253
1.26344
1.26441
1.26543
1.26652
1.26767
1.2689
1.27022
1.27163
1.27315
1.27481
1.27661
1.2786
1.28081
1.28329
1.28613
1.28942
1.2933
1.29799
1.30387
1.31147
1.32101
1.33138
1.34129
1.20054
1.19958
1.20184
1.20456
1.20754
1.20995
1.21171
1.21305
1.21409
1.21492
1.21557
1.21609
1.21652
1.21688
1.21718
1.21743
1.21764
1.21782
1.21798
1.21811
1.21823
1.21833
1.21842
1.21849
1.21855
1.21861
1.21866
1.2187
1.21873
1.21876
1.21878
1.21879
1.2188
1.21881
1.21882
1.21882
1.21882
1.21881
1.21881
1.2188
1.21879
1.21878
1.21877
1.21876
1.21874
1.21873
1.21872
1.21871
1.2187
1.2187
1.21869
1.21869
1.21869
1.2187
1.21871
1.21872
1.21874
1.21876
1.21879
1.21882
1.21886
1.2189
1.21896
1.21901
1.21908
1.21915
1.21923
1.21932
1.21942
1.21952
1.21963
1.21975
1.21988
1.22001
1.22015
1.22031
1.22046
1.22063
1.22081
1.22099
1.22118
1.22138
1.22158
1.2218
1.22201
1.22224
1.22247
1.22271
1.22295
1.2232
1.22346
1.22371
1.22397
1.22424
1.22451
1.22478
1.22505
1.22532
1.22559
1.22586
1.22613
1.2264
1.22667
1.22693
1.22719
1.22745
1.2277
1.22795
1.22819
1.22842
1.22865
1.22887
1.22908
1.22929
1.22948
1.22967
1.22985
1.23002
1.23018
1.23033
1.23047
1.2306
1.23072
1.23083
1.23093
1.23103
1.23112
1.2312
1.23127
1.23133
1.23139
1.23144
1.23149
1.23153
1.23157
1.2316
1.23162
1.23165
1.23167
1.23168
1.23169
1.23171
1.23171
1.23172
1.23172
1.23172
1.23172
1.23172
1.23172
1.23172
1.23171
1.2317
1.2317
1.23169
1.23168
1.23167
1.23166
1.23165
1.23164
1.23163
1.23162
1.23161
1.2316
1.23159
1.23157
1.23156
1.23155
1.23154
1.23152
1.23151
1.2315
1.23148
1.23147
1.23146
1.23144
1.23143
1.23142
1.2314
1.23139
1.23138
1.23137
1.23135
1.23134
1.23133
1.23132
1.23131
1.23129
1.23128
1.23127
1.23126
1.23125
1.23125
1.23124
1.23123
1.23122
1.23122
1.23122
1.23121
1.23121
1.23121
1.23121
1.23121
1.23121
1.23122
1.23122
1.23123
1.23124
1.23125
1.23126
1.23127
1.23129
1.23131
1.23132
1.23135
1.23137
1.2314
1.23143
1.23146
1.23149
1.23153
1.23157
1.23162
1.23166
1.23171
1.23177
1.23183
1.23189
1.23196
1.23203
1.2321
1.23218
1.23227
1.23236
1.23245
1.23255
1.23266
1.23277
1.23289
1.23302
1.23315
1.23329
1.23343
1.23359
1.23375
1.23391
1.23409
1.23427
1.23446
1.23466
1.23486
1.23508
1.2353
1.23553
1.23577
1.23601
1.23627
1.23653
1.2368
1.23708
1.23736
1.23765
1.23795
1.23825
1.23856
1.23887
1.23919
1.23951
1.23984
1.24017
1.2405
1.24083
1.24117
1.2415
1.24183
1.24216
1.24249
1.24281
1.24313
1.24345
1.24375
1.24406
1.24435
1.24464
1.24492
1.24518
1.24544
1.24569
1.24593
1.24616
1.24639
1.2466
1.2468
1.24699
1.24717
1.24734
1.2475
1.24765
1.2478
1.24793
1.24806
1.24818
1.2483
1.24841
1.24851
1.2486
1.24869
1.24878
1.24886
1.24893
1.249
1.24907
1.24913
1.24919
1.24925
1.2493
1.24935
1.2494
1.24944
1.24948
1.24952
1.24955
1.24958
1.24962
1.24964
1.24967
1.24969
1.24972
1.24974
1.24976
1.24978
1.2498
1.24981
1.24983
1.24985
1.24987
1.24989
1.24992
1.24995
1.24998
1.25001
1.25005
1.2501
1.25015
1.25021
1.25028
1.25036
1.25044
1.25054
1.25065
1.25077
1.25091
1.25106
1.25122
1.2514
1.2516
1.25182
1.25206
1.25232
1.2526
1.2529
1.25322
1.25357
1.25395
1.25435
1.25478
1.25524
1.25573
1.25625
1.25681
1.25739
1.25801
1.25867
1.25937
1.2601
1.26088
1.2617
1.26256
1.26348
1.26445
1.26547
1.26656
1.26771
1.26894
1.27025
1.27166
1.27317
1.27482
1.27661
1.27857
1.28075
1.28318
1.28593
1.28908
1.29274
1.29703
1.30205
1.30788
1.31435
1.31962
1.31977
1.20489
1.20443
1.20502
1.20653
1.20841
1.21009
1.21155
1.21276
1.21374
1.21454
1.21519
1.21573
1.21618
1.21656
1.21688
1.21715
1.21738
1.21758
1.21776
1.21791
1.21803
1.21815
1.21825
1.21833
1.2184
1.21847
1.21852
1.21857
1.21861
1.21864
1.21867
1.21869
1.2187
1.21872
1.21873
1.21873
1.21873
1.21873
1.21873
1.21872
1.21872
1.21871
1.2187
1.21869
1.21868
1.21867
1.21866
1.21865
1.21865
1.21864
1.21864
1.21864
1.21864
1.21865
1.21866
1.21867
1.21869
1.21871
1.21874
1.21878
1.21882
1.21886
1.21892
1.21898
1.21904
1.21912
1.2192
1.21929
1.21938
1.21949
1.2196
1.21972
1.21985
1.21999
1.22013
1.22029
1.22045
1.22062
1.22079
1.22098
1.22117
1.22137
1.22157
1.22179
1.22201
1.22224
1.22247
1.22271
1.22295
1.2232
1.22346
1.22372
1.22398
1.22425
1.22451
1.22479
1.22506
1.22533
1.2256
1.22588
1.22615
1.22642
1.22668
1.22695
1.22721
1.22747
1.22772
1.22796
1.2282
1.22844
1.22867
1.22889
1.2291
1.2293
1.2295
1.22968
1.22986
1.23002
1.23018
1.23033
1.23047
1.2306
1.23072
1.23083
1.23093
1.23102
1.23111
1.23118
1.23125
1.23132
1.23137
1.23142
1.23147
1.23151
1.23154
1.23157
1.2316
1.23162
1.23164
1.23165
1.23166
1.23167
1.23168
1.23169
1.23169
1.23169
1.23169
1.23169
1.23168
1.23168
1.23168
1.23167
1.23166
1.23166
1.23165
1.23164
1.23163
1.23162
1.23161
1.2316
1.23159
1.23158
1.23157
1.23155
1.23154
1.23153
1.23152
1.23151
1.23149
1.23148
1.23147
1.23146
1.23144
1.23143
1.23142
1.2314
1.23139
1.23138
1.23137
1.23135
1.23134
1.23133
1.23132
1.2313
1.23129
1.23128
1.23127
1.23126
1.23125
1.23124
1.23123
1.23122
1.23122
1.23121
1.2312
1.2312
1.23119
1.23119
1.23119
1.23119
1.23119
1.23119
1.23119
1.23119
1.2312
1.23121
1.23122
1.23123
1.23124
1.23125
1.23127
1.23128
1.2313
1.23133
1.23135
1.23138
1.23141
1.23144
1.23147
1.23151
1.23155
1.23159
1.23164
1.23169
1.23175
1.2318
1.23187
1.23193
1.232
1.23208
1.23216
1.23224
1.23233
1.23243
1.23253
1.23264
1.23275
1.23287
1.233
1.23313
1.23327
1.23341
1.23357
1.23373
1.23389
1.23407
1.23425
1.23444
1.23464
1.23485
1.23506
1.23529
1.23552
1.23576
1.236
1.23626
1.23652
1.23679
1.23707
1.23736
1.23765
1.23795
1.23825
1.23856
1.23888
1.2392
1.23952
1.23985
1.24018
1.24051
1.24085
1.24118
1.24152
1.24185
1.24218
1.24251
1.24284
1.24316
1.24347
1.24378
1.24408
1.24438
1.24466
1.24494
1.24521
1.24547
1.24572
1.24596
1.24619
1.24641
1.24661
1.24681
1.247
1.24718
1.24735
1.24751
1.24766
1.24781
1.24794
1.24807
1.24819
1.2483
1.24841
1.24851
1.2486
1.24869
1.24878
1.24885
1.24893
1.249
1.24907
1.24913
1.24919
1.24924
1.24929
1.24934
1.24939
1.24943
1.24947
1.24951
1.24955
1.24958
1.24961
1.24964
1.24966
1.24968
1.24971
1.24973
1.24975
1.24977
1.24978
1.2498
1.24982
1.24984
1.24986
1.24988
1.2499
1.24993
1.24996
1.25
1.25004
1.25008
1.25013
1.25019
1.25026
1.25033
1.25042
1.25052
1.25063
1.25075
1.25088
1.25103
1.2512
1.25138
1.25158
1.2518
1.25204
1.25229
1.25257
1.25288
1.2532
1.25356
1.25393
1.25434
1.25477
1.25523
1.25572
1.25624
1.25679
1.25738
1.258
1.25866
1.25936
1.26009
1.26087
1.26168
1.26255
1.26346
1.26443
1.26545
1.26653
1.26767
1.26889
1.27019
1.27158
1.27307
1.27468
1.27643
1.27834
1.28043
1.28276
1.28535
1.28825
1.29153
1.29521
1.29927
1.30343
1.30716
1.30973
1.30904
1.20794
1.20741
1.20755
1.20837
1.20946
1.21063
1.21176
1.21275
1.21361
1.21434
1.21496
1.21548
1.21593
1.21631
1.21664
1.21692
1.21716
1.21737
1.21756
1.21772
1.21786
1.21798
1.21809
1.21818
1.21826
1.21833
1.21839
1.21845
1.21849
1.21853
1.21856
1.21859
1.21861
1.21862
1.21863
1.21864
1.21865
1.21865
1.21865
1.21865
1.21864
1.21863
1.21863
1.21862
1.21861
1.2186
1.2186
1.21859
1.21858
1.21858
1.21858
1.21858
1.21858
1.21859
1.2186
1.21862
1.21864
1.21866
1.21869
1.21873
1.21877
1.21882
1.21887
1.21893
1.219
1.21908
1.21916
1.21925
1.21935
1.21945
1.21957
1.21969
1.21982
1.21996
1.22011
1.22026
1.22042
1.22059
1.22077
1.22096
1.22115
1.22135
1.22156
1.22177
1.222
1.22222
1.22246
1.2227
1.22295
1.2232
1.22346
1.22372
1.22398
1.22425
1.22452
1.22479
1.22507
1.22534
1.22561
1.22589
1.22616
1.22643
1.2267
1.22697
1.22723
1.22748
1.22774
1.22798
1.22822
1.22846
1.22869
1.22891
1.22912
1.22932
1.22951
1.2297
1.22987
1.23004
1.23019
1.23034
1.23047
1.2306
1.23072
1.23083
1.23092
1.23102
1.2311
1.23117
1.23124
1.2313
1.23136
1.2314
1.23145
1.23148
1.23152
1.23154
1.23157
1.23159
1.23161
1.23162
1.23163
1.23164
1.23165
1.23165
1.23165
1.23165
1.23165
1.23165
1.23165
1.23164
1.23164
1.23163
1.23162
1.23162
1.23161
1.2316
1.23159
1.23158
1.23157
1.23156
1.23155
1.23154
1.23153
1.23152
1.23151
1.2315
1.23148
1.23147
1.23146
1.23145
1.23143
1.23142
1.23141
1.2314
1.23138
1.23137
1.23136
1.23135
1.23133
1.23132
1.23131
1.2313
1.23129
1.23128
1.23126
1.23125
1.23124
1.23123
1.23122
1.23121
1.2312
1.2312
1.23119
1.23118
1.23118
1.23117
1.23117
1.23117
1.23116
1.23116
1.23116
1.23116
1.23117
1.23117
1.23117
1.23118
1.23119
1.2312
1.23121
1.23122
1.23124
1.23126
1.23128
1.2313
1.23132
1.23135
1.23138
1.23141
1.23144
1.23148
1.23152
1.23156
1.23161
1.23166
1.23172
1.23177
1.23184
1.2319
1.23197
1.23205
1.23213
1.23221
1.2323
1.2324
1.2325
1.23261
1.23272
1.23284
1.23296
1.2331
1.23324
1.23338
1.23353
1.2337
1.23386
1.23404
1.23422
1.23441
1.23461
1.23482
1.23504
1.23526
1.23549
1.23573
1.23598
1.23624
1.2365
1.23678
1.23705
1.23734
1.23764
1.23794
1.23824
1.23856
1.23887
1.2392
1.23952
1.23985
1.24019
1.24052
1.24086
1.2412
1.24153
1.24187
1.2422
1.24253
1.24286
1.24318
1.2435
1.24381
1.24411
1.24441
1.24469
1.24497
1.24524
1.2455
1.24575
1.24599
1.24621
1.24643
1.24664
1.24684
1.24702
1.2472
1.24737
1.24753
1.24768
1.24782
1.24795
1.24808
1.2482
1.24831
1.24841
1.24851
1.2486
1.24869
1.24878
1.24885
1.24893
1.249
1.24906
1.24913
1.24918
1.24924
1.24929
1.24934
1.24938
1.24943
1.24947
1.2495
1.24954
1.24957
1.2496
1.24963
1.24965
1.24968
1.2497
1.24972
1.24974
1.24975
1.24977
1.24979
1.24981
1.24982
1.24984
1.24986
1.24989
1.24991
1.24994
1.24997
1.25001
1.25006
1.25011
1.25016
1.25023
1.2503
1.25039
1.25049
1.25059
1.25071
1.25085
1.251
1.25116
1.25134
1.25154
1.25176
1.252
1.25226
1.25253
1.25284
1.25316
1.25351
1.25389
1.2543
1.25473
1.25519
1.25568
1.2562
1.25675
1.25734
1.25796
1.25861
1.25931
1.26004
1.26081
1.26163
1.26249
1.26339
1.26435
1.26536
1.26643
1.26756
1.26876
1.27003
1.27139
1.27285
1.27441
1.27609
1.27792
1.2799
1.28207
1.28445
1.28705
1.28988
1.2929
1.29599
1.29891
1.30116
1.3023
1.30204
1.21002
1.20947
1.20945
1.20986
1.21052
1.21132
1.21215
1.21293
1.21365
1.21429
1.21485
1.21534
1.21576
1.21613
1.21645
1.21674
1.21698
1.2172
1.21739
1.21755
1.2177
1.21783
1.21794
1.21804
1.21813
1.21821
1.21827
1.21833
1.21838
1.21842
1.21846
1.21849
1.21851
1.21853
1.21854
1.21856
1.21856
1.21857
1.21857
1.21857
1.21857
1.21856
1.21856
1.21855
1.21854
1.21854
1.21853
1.21852
1.21852
1.21852
1.21852
1.21852
1.21852
1.21853
1.21854
1.21856
1.21858
1.21861
1.21864
1.21867
1.21871
1.21876
1.21882
1.21888
1.21895
1.21903
1.21911
1.2192
1.2193
1.21941
1.21953
1.21965
1.21978
1.21992
1.22007
1.22023
1.22039
1.22056
1.22074
1.22093
1.22112
1.22133
1.22153
1.22175
1.22198
1.22221
1.22244
1.22269
1.22294
1.22319
1.22345
1.22371
1.22398
1.22425
1.22452
1.2248
1.22507
1.22535
1.22562
1.2259
1.22617
1.22645
1.22672
1.22698
1.22724
1.2275
1.22776
1.228
1.22824
1.22848
1.22871
1.22893
1.22914
1.22934
1.22953
1.22972
1.22989
1.23005
1.23021
1.23035
1.23049
1.23061
1.23072
1.23083
1.23093
1.23101
1.23109
1.23117
1.23123
1.23129
1.23134
1.23139
1.23143
1.23146
1.23149
1.23152
1.23154
1.23156
1.23157
1.23159
1.2316
1.2316
1.23161
1.23161
1.23161
1.23161
1.23161
1.23161
1.23161
1.2316
1.2316
1.23159
1.23158
1.23158
1.23157
1.23156
1.23155
1.23154
1.23153
1.23152
1.23151
1.2315
1.23149
1.23148
1.23147
1.23145
1.23144
1.23143
1.23142
1.23141
1.2314
1.23138
1.23137
1.23136
1.23135
1.23134
1.23132
1.23131
1.2313
1.23129
1.23128
1.23126
1.23125
1.23124
1.23123
1.23122
1.23121
1.2312
1.23119
1.23118
1.23117
1.23117
1.23116
1.23115
1.23115
1.23114
1.23114
1.23113
1.23113
1.23113
1.23113
1.23113
1.23113
1.23114
1.23114
1.23115
1.23116
1.23117
1.23118
1.23119
1.23121
1.23122
1.23124
1.23127
1.23129
1.23131
1.23134
1.23137
1.23141
1.23145
1.23149
1.23153
1.23157
1.23162
1.23168
1.23174
1.2318
1.23186
1.23193
1.23201
1.23209
1.23217
1.23226
1.23236
1.23246
1.23256
1.23268
1.2328
1.23292
1.23305
1.23319
1.23334
1.23349
1.23365
1.23382
1.234
1.23418
1.23437
1.23457
1.23478
1.235
1.23522
1.23546
1.2357
1.23595
1.23621
1.23647
1.23675
1.23703
1.23732
1.23761
1.23792
1.23822
1.23854
1.23886
1.23919
1.23951
1.23985
1.24018
1.24052
1.24086
1.2412
1.24154
1.24188
1.24222
1.24255
1.24288
1.24321
1.24352
1.24384
1.24414
1.24444
1.24473
1.245
1.24527
1.24553
1.24578
1.24602
1.24625
1.24646
1.24667
1.24687
1.24705
1.24723
1.24739
1.24755
1.2477
1.24784
1.24797
1.24809
1.24821
1.24832
1.24842
1.24852
1.24861
1.2487
1.24878
1.24886
1.24893
1.249
1.24906
1.24912
1.24918
1.24924
1.24929
1.24934
1.24938
1.24942
1.24946
1.2495
1.24953
1.24956
1.24959
1.24962
1.24965
1.24967
1.24969
1.24971
1.24973
1.24974
1.24976
1.24977
1.24979
1.24981
1.24982
1.24984
1.24986
1.24989
1.24992
1.24995
1.24998
1.25003
1.25007
1.25013
1.25019
1.25027
1.25035
1.25044
1.25055
1.25067
1.2508
1.25095
1.25111
1.25129
1.25149
1.25171
1.25194
1.2522
1.25248
1.25278
1.2531
1.25345
1.25383
1.25423
1.25466
1.25512
1.25561
1.25612
1.25668
1.25726
1.25788
1.25853
1.25922
1.25995
1.26071
1.26152
1.26237
1.26327
1.26421
1.26521
1.26626
1.26737
1.26854
1.26979
1.27111
1.27251
1.27401
1.27561
1.27733
1.27918
1.28117
1.28331
1.28558
1.28797
1.29039
1.29271
1.29472
1.29615
1.29671
1.29648
1.21147
1.21099
1.21088
1.21107
1.21148
1.21202
1.21262
1.21322
1.2138
1.21434
1.21483
1.21527
1.21567
1.21601
1.21632
1.2166
1.21684
1.21705
1.21724
1.21741
1.21756
1.2177
1.21781
1.21792
1.21801
1.21809
1.21816
1.21822
1.21827
1.21832
1.21836
1.21839
1.21842
1.21844
1.21846
1.21847
1.21848
1.21849
1.21849
1.21849
1.21849
1.21849
1.21848
1.21848
1.21847
1.21847
1.21846
1.21846
1.21845
1.21845
1.21845
1.21845
1.21846
1.21847
1.21848
1.2185
1.21852
1.21854
1.21858
1.21861
1.21866
1.21871
1.21876
1.21883
1.2189
1.21897
1.21906
1.21915
1.21925
1.21936
1.21948
1.2196
1.21974
1.21988
1.22003
1.22019
1.22035
1.22053
1.22071
1.2209
1.22109
1.2213
1.22151
1.22173
1.22195
1.22218
1.22242
1.22267
1.22292
1.22318
1.22344
1.2237
1.22397
1.22425
1.22452
1.2248
1.22508
1.22535
1.22563
1.22591
1.22619
1.22646
1.22673
1.227
1.22726
1.22752
1.22778
1.22803
1.22827
1.2285
1.22873
1.22895
1.22916
1.22937
1.22956
1.22974
1.22991
1.23008
1.23023
1.23037
1.2305
1.23062
1.23073
1.23084
1.23093
1.23102
1.23109
1.23116
1.23122
1.23128
1.23133
1.23137
1.23141
1.23144
1.23147
1.23149
1.23151
1.23153
1.23154
1.23155
1.23156
1.23157
1.23157
1.23157
1.23157
1.23157
1.23157
1.23157
1.23156
1.23156
1.23155
1.23154
1.23154
1.23153
1.23152
1.23151
1.2315
1.23149
1.23148
1.23147
1.23146
1.23145
1.23144
1.23143
1.23142
1.23141
1.2314
1.23139
1.23138
1.23136
1.23135
1.23134
1.23133
1.23132
1.23131
1.23129
1.23128
1.23127
1.23126
1.23125
1.23124
1.23123
1.23121
1.2312
1.23119
1.23118
1.23117
1.23116
1.23115
1.23115
1.23114
1.23113
1.23112
1.23112
1.23111
1.23111
1.2311
1.2311
1.2311
1.2311
1.2311
1.2311
1.2311
1.2311
1.23111
1.23111
1.23112
1.23113
1.23114
1.23116
1.23117
1.23119
1.23121
1.23123
1.23125
1.23128
1.2313
1.23133
1.23137
1.2314
1.23144
1.23149
1.23153
1.23158
1.23163
1.23169
1.23175
1.23182
1.23189
1.23196
1.23204
1.23212
1.23221
1.23231
1.23241
1.23251
1.23263
1.23275
1.23287
1.233
1.23314
1.23329
1.23344
1.2336
1.23377
1.23395
1.23413
1.23432
1.23452
1.23473
1.23495
1.23518
1.23541
1.23565
1.2359
1.23616
1.23643
1.23671
1.23699
1.23728
1.23758
1.23788
1.2382
1.23851
1.23884
1.23917
1.2395
1.23984
1.24018
1.24052
1.24086
1.24121
1.24155
1.24189
1.24223
1.24257
1.2429
1.24323
1.24355
1.24387
1.24417
1.24447
1.24476
1.24504
1.24531
1.24557
1.24582
1.24606
1.24628
1.2465
1.24671
1.2469
1.24708
1.24726
1.24742
1.24758
1.24772
1.24786
1.24799
1.24811
1.24822
1.24833
1.24843
1.24853
1.24862
1.2487
1.24878
1.24886
1.24893
1.249
1.24906
1.24912
1.24918
1.24923
1.24929
1.24933
1.24938
1.24942
1.24946
1.2495
1.24953
1.24956
1.24959
1.24961
1.24964
1.24966
1.24968
1.2497
1.24972
1.24973
1.24975
1.24976
1.24977
1.24979
1.2498
1.24982
1.24984
1.24986
1.24989
1.24992
1.24995
1.24999
1.25004
1.25009
1.25015
1.25022
1.2503
1.2504
1.2505
1.25062
1.25075
1.25089
1.25105
1.25123
1.25142
1.25164
1.25187
1.25212
1.2524
1.2527
1.25302
1.25337
1.25374
1.25414
1.25457
1.25502
1.25551
1.25602
1.25657
1.25715
1.25776
1.25841
1.2591
1.25982
1.26057
1.26137
1.26221
1.2631
1.26403
1.265
1.26603
1.26712
1.26826
1.26946
1.27073
1.27208
1.2735
1.27501
1.27661
1.27832
1.28011
1.282
1.28396
1.28594
1.28786
1.2896
1.29101
1.29194
1.29225
1.29192
1.21253
1.21213
1.21198
1.21205
1.2123
1.21266
1.21309
1.21356
1.21402
1.21447
1.21489
1.21528
1.21563
1.21595
1.21624
1.2165
1.21673
1.21694
1.21713
1.2173
1.21745
1.21758
1.2177
1.2178
1.2179
1.21798
1.21805
1.21812
1.21817
1.21822
1.21826
1.2183
1.21833
1.21835
1.21837
1.21839
1.2184
1.21841
1.21841
1.21841
1.21841
1.21841
1.21841
1.21841
1.2184
1.2184
1.21839
1.21839
1.21839
1.21839
1.21839
1.21839
1.21839
1.2184
1.21842
1.21843
1.21845
1.21848
1.21851
1.21855
1.21859
1.21864
1.2187
1.21877
1.21884
1.21892
1.219
1.2191
1.2192
1.21931
1.21943
1.21955
1.21969
1.21983
1.21998
1.22014
1.22031
1.22048
1.22066
1.22086
1.22105
1.22126
1.22147
1.22169
1.22192
1.22215
1.2224
1.22264
1.2229
1.22316
1.22342
1.22369
1.22396
1.22424
1.22452
1.2248
1.22508
1.22536
1.22564
1.22592
1.2262
1.22647
1.22675
1.22702
1.22728
1.22754
1.2278
1.22805
1.22829
1.22853
1.22876
1.22898
1.22919
1.22939
1.22959
1.22977
1.22994
1.2301
1.23025
1.23039
1.23052
1.23064
1.23075
1.23085
1.23094
1.23102
1.23109
1.23116
1.23122
1.23127
1.23131
1.23135
1.23139
1.23142
1.23144
1.23146
1.23148
1.2315
1.23151
1.23152
1.23152
1.23153
1.23153
1.23153
1.23153
1.23153
1.23152
1.23152
1.23152
1.23151
1.2315
1.2315
1.23149
1.23148
1.23147
1.23146
1.23145
1.23144
1.23143
1.23142
1.23141
1.2314
1.23139
1.23138
1.23137
1.23136
1.23135
1.23134
1.23133
1.23132
1.23131
1.23129
1.23128
1.23127
1.23126
1.23125
1.23124
1.23123
1.23122
1.23121
1.23119
1.23118
1.23117
1.23116
1.23115
1.23114
1.23113
1.23112
1.23111
1.23111
1.2311
1.23109
1.23108
1.23108
1.23107
1.23107
1.23106
1.23106
1.23106
1.23106
1.23106
1.23106
1.23106
1.23106
1.23107
1.23107
1.23108
1.23109
1.2311
1.23111
1.23113
1.23114
1.23116
1.23118
1.23121
1.23123
1.23126
1.23129
1.23132
1.23136
1.23139
1.23144
1.23148
1.23153
1.23158
1.23164
1.2317
1.23176
1.23183
1.2319
1.23198
1.23207
1.23215
1.23225
1.23235
1.23245
1.23257
1.23268
1.23281
1.23294
1.23308
1.23322
1.23338
1.23354
1.23371
1.23388
1.23407
1.23426
1.23446
1.23467
1.23489
1.23511
1.23535
1.23559
1.23585
1.23611
1.23638
1.23665
1.23694
1.23723
1.23753
1.23784
1.23816
1.23848
1.2388
1.23914
1.23947
1.23981
1.24016
1.2405
1.24085
1.2412
1.24155
1.2419
1.24224
1.24258
1.24292
1.24325
1.24358
1.2439
1.24421
1.24451
1.2448
1.24508
1.24535
1.24561
1.24586
1.2461
1.24633
1.24654
1.24675
1.24694
1.24712
1.24729
1.24745
1.24761
1.24775
1.24788
1.24801
1.24813
1.24824
1.24835
1.24845
1.24854
1.24863
1.24871
1.24879
1.24887
1.24894
1.249
1.24907
1.24913
1.24918
1.24924
1.24929
1.24933
1.24938
1.24942
1.24946
1.24949
1.24953
1.24956
1.24958
1.24961
1.24963
1.24965
1.24967
1.24969
1.2497
1.24972
1.24973
1.24974
1.24976
1.24977
1.24978
1.2498
1.24981
1.24983
1.24986
1.24988
1.24992
1.24995
1.25
1.25005
1.2501
1.25017
1.25025
1.25034
1.25044
1.25055
1.25068
1.25082
1.25098
1.25115
1.25134
1.25155
1.25178
1.25204
1.25231
1.2526
1.25292
1.25327
1.25363
1.25403
1.25445
1.2549
1.25539
1.2559
1.25644
1.25701
1.25762
1.25826
1.25893
1.25965
1.26039
1.26118
1.26201
1.26288
1.26379
1.26474
1.26574
1.26679
1.2679
1.26906
1.27027
1.27155
1.27289
1.27431
1.27579
1.27734
1.27895
1.2806
1.28227
1.2839
1.28542
1.28673
1.28774
1.28835
1.28851
1.28816
1.21333
1.213
1.21284
1.21284
1.21299
1.21323
1.21355
1.2139
1.21427
1.21464
1.21499
1.21533
1.21564
1.21593
1.2162
1.21644
1.21666
1.21686
1.21704
1.2172
1.21735
1.21748
1.2176
1.2177
1.2178
1.21788
1.21795
1.21802
1.21808
1.21813
1.21817
1.21821
1.21824
1.21827
1.21829
1.2183
1.21832
1.21833
1.21833
1.21834
1.21834
1.21834
1.21834
1.21833
1.21833
1.21833
1.21832
1.21832
1.21832
1.21832
1.21832
1.21832
1.21833
1.21834
1.21835
1.21837
1.21839
1.21841
1.21845
1.21848
1.21853
1.21858
1.21864
1.2187
1.21877
1.21885
1.21894
1.21904
1.21914
1.21925
1.21937
1.2195
1.21963
1.21978
1.21993
1.22009
1.22026
1.22044
1.22062
1.22081
1.22101
1.22122
1.22143
1.22166
1.22188
1.22212
1.22237
1.22262
1.22287
1.22313
1.2234
1.22367
1.22395
1.22423
1.22451
1.22479
1.22507
1.22536
1.22564
1.22592
1.2262
1.22648
1.22676
1.22703
1.2273
1.22756
1.22782
1.22807
1.22832
1.22856
1.22879
1.22901
1.22922
1.22943
1.22962
1.2298
1.22997
1.23013
1.23028
1.23042
1.23054
1.23066
1.23076
1.23086
1.23094
1.23102
1.23109
1.23115
1.23121
1.23126
1.2313
1.23134
1.23137
1.23139
1.23142
1.23143
1.23145
1.23146
1.23147
1.23148
1.23148
1.23148
1.23149
1.23149
1.23148
1.23148
1.23148
1.23147
1.23146
1.23146
1.23145
1.23144
1.23143
1.23143
1.23142
1.23141
1.2314
1.23139
1.23138
1.23137
1.23136
1.23135
1.23134
1.23133
1.23132
1.23131
1.2313
1.23129
1.23128
1.23127
1.23125
1.23124
1.23123
1.23122
1.23121
1.2312
1.23119
1.23118
1.23117
1.23116
1.23115