# vtk DataFile Version 2.0
LBE mesh
ASCII
DATASET STRUCTURED_POINTS
DIMENSIONS 400 100 1
ASPECT_RATIO 1 1 1
ORIGIN 0 0 0
POINT_DATA 40000
SCALARS rho double 1
LOOKUP_TABLE default
1.03104
1.08446
1.10052
1.10471
1.10695
1.10867
1.10986
1.11065
1.11119
1.11159
1.11189
1.11212
1.1123
1.11243
1.11254
1.11262
1.11269
1.11274
1.11277
1.1128
1.11281
1.11282
1.11282
1.11281
1.1128
1.11278
1.11276
1.11274
1.11272
1.11269
1.11266
1.11263
1.1126
1.11257
1.11254
1.11251
1.11247
1.11244
1.11241
1.11238
1.11234
1.11232
1.11229
1.11226
1.11224
1.11222
1.1122
1.11218
1.11217
1.11216
1.11215
1.11215
1.11215
1.11216
1.11217
1.11219
1.11221
1.11224
1.11227
1.11232
1.11237
1.11242
1.11249
1.11256
1.11264
1.11274
1.11283
1.11294
1.11306
1.11319
1.11333
1.11347
1.11363
1.1138
1.11397
1.11416
1.11436
1.11456
1.11478
1.11501
1.11524
1.11549
1.11574
1.11601
1.11628
1.11656
1.11685
1.11715
1.11745
1.11776
1.11808
1.1184
1.11872
1.11905
1.11939
1.11972
1.12006
1.1204
1.12074
1.12108
1.12142
1.12175
1.12209
1.12242
1.12274
1.12306
1.12338
1.12369
1.12399
1.12429
1.12458
1.12486
1.12513
1.12539
1.12565
1.12589
1.12612
1.12635
1.12656
1.12677
1.12696
1.12715
1.12733
1.1275
1.12765
1.12781
1.12795
1.12808
1.12821
1.12833
1.12845
1.12856
1.12866
1.12876
1.12886
1.12895
1.12904
1.12912
1.1292
1.12928
1.12936
1.12943
1.12951
1.12958
1.12965
1.12972
1.12979
1.12986
1.12992
1.12999
1.13006
1.13013
1.1302
1.13027
1.13034
1.13041
1.13048
1.13055
1.13062
1.1307
1.13078
1.13086
1.13094
1.13102
1.1311
1.13119
1.13128
1.13137
1.13147
1.13157
1.13167
1.13177
1.13188
1.13199
1.1321
1.13222
1.13233
1.13246
1.13258
1.13271
1.13284
1.13297
1.13311
1.13325
1.13339
1.13353
1.13368
1.13383
1.13397
1.13413
1.13428
1.13443
1.13459
1.13474
1.1349
1.13505
1.13521
1.13536
1.13552
1.13567
1.13583
1.13598
1.13613
1.13628
1.13643
1.13658
1.13673
1.13687
1.13702
1.13716
1.13729
1.13743
1.13757
1.1377
1.13783
1.13796
1.13809
1.13822
1.13834
1.13847
1.13859
1.13872
1.13884
1.13896
1.13908
1.13921
1.13933
1.13946
1.13958
1.13971
1.13984
1.13997
1.1401
1.14024
1.14038
1.14053
1.14067
1.14083
1.14098
1.14114
1.14131
1.14148
1.14166
1.14185
1.14204
1.14224
1.14244
1.14265
1.14287
1.1431
1.14333
1.14358
1.14383
1.14409
1.14436
1.14463
1.14492
1.14521
1.14551
1.14582
1.14614
1.14647
1.1468
1.14715
1.1475
1.14786
1.14822
1.1486
1.14898
1.14936
1.14975
1.15014
1.15054
1.15094
1.15134
1.15175
1.15215
1.15256
1.15296
1.15337
1.15377
1.15416
1.15456
1.15495
1.15533
1.1557
1.15607
1.15644
1.15679
1.15714
1.15748
1.15781
1.15813
1.15845
1.15875
1.15905
1.15934
1.15962
1.15989
1.16015
1.1604
1.16065
1.16089
1.16111
1.16134
1.16155
1.16175
1.16195
1.16214
1.16232
1.1625
1.16267
1.16283
1.16298
1.16312
1.16326
1.16339
1.16351
1.16363
1.16373
1.16383
1.16393
1.16401
1.16409
1.16416
1.16422
1.16428
1.16433
1.16437
1.16441
1.16445
1.16448
1.1645
1.16452
1.16454
1.16455
1.16456
1.16457
1.16458
1.16459
1.1646
1.16461
1.16462
1.16463
1.16465
1.16467
1.1647
1.16473
1.16477
1.16482
1.16488
1.16495
1.16503
1.16512
1.16523
1.16535
1.16549
1.16565
1.16583
1.16602
1.16624
1.16648
1.16674
1.16703
1.16735
1.16769
1.16807
1.16847
1.16891
1.16938
1.16988
1.17042
1.171
1.17162
1.17228
1.17298
1.17372
1.17452
1.17536
1.17626
1.17722
1.17824
1.17933
1.1805
1.18175
1.1831
1.18456
1.18616
1.18791
1.18985
1.19203
1.19451
1.19738
1.20077
1.2049
1.21022
1.21776
1.22846
1.24264
1.26833
1.07021
1.08197
1.09272
1.10056
1.10473
1.107
1.10845
1.10949
1.11025
1.11081
1.11123
1.11156
1.11181
1.11201
1.11216
1.11229
1.11239
1.11247
1.11253
1.11257
1.1126
1.11263
1.11264
1.11265
1.11265
1.11264
1.11263
1.11262
1.1126
1.11258
1.11256
1.11254
1.11251
1.11249
1.11246
1.11243
1.1124
1.11237
1.11234
1.11231
1.11229
1.11226
1.11223
1.11221
1.11219
1.11217
1.11215
1.11214
1.11213
1.11212
1.11211
1.11212
1.11212
1.11213
1.11214
1.11216
1.11219
1.11222
1.11226
1.1123
1.11235
1.11241
1.11248
1.11256
1.11264
1.11273
1.11283
1.11294
1.11306
1.11319
1.11333
1.11348
1.11364
1.1138
1.11398
1.11417
1.11437
1.11458
1.11479
1.11502
1.11526
1.11551
1.11576
1.11603
1.1163
1.11658
1.11687
1.11717
1.11747
1.11778
1.1181
1.11842
1.11875
1.11908
1.11941
1.11974
1.12008
1.12042
1.12076
1.1211
1.12143
1.12177
1.1221
1.12243
1.12275
1.12307
1.12338
1.12369
1.12399
1.12429
1.12457
1.12485
1.12512
1.12538
1.12564
1.12588
1.12611
1.12634
1.12655
1.12675
1.12695
1.12713
1.12731
1.12747
1.12763
1.12778
1.12793
1.12806
1.12819
1.12831
1.12843
1.12854
1.12864
1.12874
1.12884
1.12893
1.12902
1.1291
1.12918
1.12926
1.12934
1.12942
1.12949
1.12956
1.12963
1.1297
1.12977
1.12984
1.12991
1.12998
1.13005
1.13012
1.13019
1.13026
1.13033
1.1304
1.13047
1.13054
1.13062
1.13069
1.13077
1.13085
1.13093
1.13102
1.1311
1.13119
1.13128
1.13137
1.13147
1.13157
1.13167
1.13177
1.13188
1.13199
1.1321
1.13222
1.13233
1.13246
1.13258
1.13271
1.13284
1.13297
1.13311
1.13325
1.13339
1.13353
1.13368
1.13383
1.13397
1.13413
1.13428
1.13443
1.13458
1.13474
1.1349
1.13505
1.13521
1.13536
1.13552
1.13567
1.13583
1.13598
1.13613
1.13628
1.13643
1.13658
1.13672
1.13687
1.13701
1.13715
1.13729
1.13743
1.13756
1.1377
1.13783
1.13796
1.13809
1.13822
1.13834
1.13847
1.13859
1.13872
1.13884
1.13896
1.13908
1.13921
1.13933
1.13946
1.13958
1.13971
1.13984
1.13997
1.14011
1.14025
1.14039
1.14053
1.14068
1.14084
1.14099
1.14116
1.14132
1.1415
1.14168
1.14186
1.14205
1.14225
1.14246
1.14267
1.14289
1.14312
1.14335
1.1436
1.14385
1.14411
1.14438
1.14466
1.14494
1.14524
1.14554
1.14585
1.14617
1.1465
1.14683
1.14718
1.14753
1.14789
1.14825
1.14863
1.14901
1.14939
1.14978
1.15017
1.15057
1.15097
1.15137
1.15177
1.15218
1.15258
1.15299
1.15339
1.15379
1.15418
1.15457
1.15496
1.15534
1.15571
1.15608
1.15644
1.1568
1.15714
1.15748
1.15781
1.15813
1.15845
1.15875
1.15904
1.15933
1.15961
1.15988
1.16014
1.16039
1.16064
1.16087
1.1611
1.16132
1.16154
1.16174
1.16194
1.16213
1.16231
1.16248
1.16265
1.16281
1.16296
1.16311
1.16324
1.16337
1.1635
1.16361
1.16372
1.16382
1.16391
1.16399
1.16407
1.16414
1.1642
1.16426
1.16431
1.16435
1.16439
1.16443
1.16446
1.16448
1.1645
1.16452
1.16453
1.16455
1.16456
1.16456
1.16457
1.16458
1.16459
1.16461
1.16462
1.16464
1.16467
1.1647
1.16473
1.16477
1.16483
1.16489
1.16496
1.16504
1.16514
1.16525
1.16537
1.16552
1.16568
1.16586
1.16606
1.16628
1.16652
1.16679
1.16708
1.1674
1.16775
1.16813
1.16854
1.16898
1.16946
1.16997
1.17051
1.1711
1.17172
1.17239
1.1731
1.17385
1.17465
1.17551
1.17642
1.17739
1.17842
1.17952
1.18071
1.18198
1.18336
1.18485
1.18648
1.18828
1.19029
1.19255
1.19514
1.19816
1.20178
1.20625
1.2119
1.21916
1.22962
1.24837
1.27888
1.08821
1.08862
1.09487
1.09998
1.10331
1.10569
1.10739
1.1086
1.10948
1.11014
1.11065
1.11105
1.11136
1.11161
1.11181
1.11197
1.1121
1.11221
1.11229
1.11235
1.1124
1.11244
1.11247
1.11249
1.1125
1.11251
1.11251
1.1125
1.11249
1.11248
1.11246
1.11244
1.11242
1.1124
1.11238
1.11235
1.11233
1.1123
1.11227
1.11225
1.11222
1.1122
1.11218
1.11216
1.11214
1.11212
1.11211
1.11209
1.11208
1.11208
1.11208
1.11208
1.11208
1.1121
1.11211
1.11213
1.11216
1.11219
1.11223
1.11228
1.11233
1.11239
1.11246
1.11254
1.11262
1.11272
1.11282
1.11293
1.11305
1.11318
1.11332
1.11347
1.11363
1.1138
1.11398
1.11417
1.11437
1.11458
1.1148
1.11503
1.11527
1.11552
1.11577
1.11604
1.11631
1.1166
1.11689
1.11718
1.11749
1.1178
1.11812
1.11844
1.11876
1.11909
1.11943
1.11976
1.1201
1.12044
1.12077
1.12111
1.12145
1.12178
1.12211
1.12244
1.12276
1.12308
1.12339
1.1237
1.124
1.12429
1.12458
1.12485
1.12512
1.12538
1.12563
1.12587
1.12611
1.12633
1.12654
1.12674
1.12693
1.12712
1.12729
1.12746
1.12762
1.12776
1.12791
1.12804
1.12817
1.12829
1.1284
1.12851
1.12862
1.12872
1.12881
1.12891
1.12899
1.12908
1.12916
1.12924
1.12932
1.1294
1.12947
1.12954
1.12961
1.12969
1.12976
1.12982
1.12989
1.12996
1.13003
1.1301
1.13017
1.13024
1.13031
1.13038
1.13046
1.13053
1.13061
1.13068
1.13076
1.13084
1.13092
1.13101
1.13109
1.13118
1.13127
1.13136
1.13146
1.13156
1.13166
1.13176
1.13187
1.13198
1.1321
1.13221
1.13233
1.13245
1.13258
1.13271
1.13284
1.13297
1.13311
1.13325
1.13339
1.13353
1.13368
1.13382
1.13397
1.13412
1.13427
1.13443
1.13458
1.13474
1.13489
1.13505
1.1352
1.13536
1.13551
1.13567
1.13582
1.13598
1.13613
1.13628
1.13643
1.13657
1.13672
1.13686
1.13701
1.13715
1.13729
1.13742
1.13756
1.13769
1.13782
1.13796
1.13808
1.13821
1.13834
1.13846
1.13859
1.13871
1.13884
1.13896
1.13908
1.13921
1.13933
1.13946
1.13958
1.13971
1.13984
1.13998
1.14011
1.14025
1.14039
1.14054
1.14069
1.14084
1.141
1.14116
1.14133
1.1415
1.14168
1.14187
1.14206
1.14226
1.14247
1.14268
1.1429
1.14313
1.14337
1.14361
1.14386
1.14412
1.14439
1.14467
1.14496
1.14525
1.14555
1.14587
1.14619
1.14652
1.14685
1.1472
1.14755
1.14791
1.14828
1.14865
1.14903
1.14941
1.1498
1.15019
1.15059
1.15099
1.15139
1.1518
1.1522
1.1526
1.15301
1.15341
1.1538
1.1542
1.15459
1.15497
1.15535
1.15573
1.15609
1.15645
1.15681
1.15715
1.15749
1.15781
1.15813
1.15845
1.15875
1.15904
1.15933
1.1596
1.15987
1.16013
1.16039
1.16063
1.16086
1.16109
1.16131
1.16152
1.16173
1.16193
1.16212
1.1623
1.16247
1.16264
1.1628
1.16295
1.16309
1.16323
1.16336
1.16348
1.16359
1.1637
1.1638
1.16389
1.16397
1.16405
1.16412
1.16418
1.16424
1.16429
1.16434
1.16437
1.16441
1.16444
1.16446
1.16448
1.1645
1.16451
1.16453
1.16454
1.16455
1.16456
1.16457
1.16458
1.16459
1.16461
1.16463
1.16465
1.16468
1.16472
1.16476
1.16482
1.16488
1.16495
1.16504
1.16513
1.16525
1.16537
1.16552
1.16568
1.16586
1.16607
1.16629
1.16654
1.16681
1.1671
1.16743
1.16778
1.16816
1.16858
1.16902
1.1695
1.17002
1.17057
1.17116
1.17178
1.17245
1.17317
1.17393
1.17474
1.1756
1.17651
1.17749
1.17853
1.17964
1.18083
1.18211
1.18349
1.185
1.18664
1.18846
1.19048
1.19275
1.19536
1.19838
1.20195
1.20626
1.21167
1.2187
1.22745
1.23695
1.24673
1.09655
1.09587
1.09802
1.10061
1.10322
1.10529
1.10683
1.10801
1.10891
1.10962
1.11018
1.11062
1.11097
1.11126
1.11149
1.11168
1.11184
1.11196
1.11206
1.11215
1.11221
1.11227
1.11231
1.11234
1.11236
1.11237
1.11238
1.11238
1.11238
1.11237
1.11236
1.11235
1.11233
1.11231
1.11229
1.11227
1.11225
1.11223
1.11221
1.11218
1.11216
1.11214
1.11212
1.1121
1.11208
1.11207
1.11206
1.11205
1.11204
1.11203
1.11203
1.11204
1.11204
1.11206
1.11207
1.1121
1.11213
1.11216
1.1122
1.11225
1.1123
1.11237
1.11244
1.11252
1.1126
1.1127
1.1128
1.11292
1.11304
1.11317
1.11331
1.11346
1.11362
1.1138
1.11398
1.11417
1.11437
1.11458
1.1148
1.11503
1.11527
1.11552
1.11578
1.11604
1.11632
1.1166
1.11689
1.11719
1.1175
1.11781
1.11813
1.11845
1.11878
1.11911
1.11944
1.11978
1.12011
1.12045
1.12079
1.12113
1.12146
1.1218
1.12213
1.12245
1.12277
1.12309
1.1234
1.12371
1.12401
1.1243
1.12459
1.12486
1.12513
1.12539
1.12564
1.12588
1.1261
1.12632
1.12653
1.12674
1.12693
1.12711
1.12728
1.12745
1.1276
1.12775
1.12789
1.12802
1.12815
1.12827
1.12838
1.12849
1.1286
1.1287
1.12879
1.12888
1.12897
1.12906
1.12914
1.12922
1.1293
1.12937
1.12945
1.12952
1.12959
1.12966
1.12973
1.1298
1.12987
1.12994
1.13001
1.13008
1.13015
1.13022
1.13029
1.13037
1.13044
1.13051
1.13059
1.13067
1.13075
1.13083
1.13091
1.13099
1.13108
1.13117
1.13126
1.13135
1.13145
1.13155
1.13165
1.13176
1.13186
1.13197
1.13209
1.1322
1.13232
1.13245
1.13257
1.1327
1.13283
1.13297
1.1331
1.13324
1.13338
1.13353
1.13367
1.13382
1.13397
1.13412
1.13427
1.13442
1.13458
1.13473
1.13489
1.13504
1.1352
1.13535
1.13551
1.13566
1.13582
1.13597
1.13612
1.13627
1.13642
1.13657
1.13671
1.13686
1.137
1.13714
1.13728
1.13742
1.13755
1.13769
1.13782
1.13795
1.13808
1.13821
1.13833
1.13846
1.13858
1.13871
1.13883
1.13895
1.13908
1.1392
1.13933
1.13945
1.13958
1.13971
1.13984
1.13997
1.14011
1.14025
1.14039
1.14053
1.14068
1.14084
1.141
1.14116
1.14133
1.1415
1.14168
1.14187
1.14206
1.14226
1.14247
1.14268
1.1429
1.14313
1.14337
1.14361
1.14387
1.14413
1.1444
1.14468
1.14496
1.14526
1.14556
1.14587
1.14619
1.14652
1.14686
1.14721
1.14756
1.14792
1.14829
1.14866
1.14904
1.14943
1.14982
1.15021
1.15061
1.15101
1.15141
1.15182
1.15222
1.15262
1.15303
1.15343
1.15382
1.15422
1.15461
1.15499
1.15537
1.15574
1.15611
1.15647
1.15682
1.15716
1.15749
1.15782
1.15814
1.15845
1.15875
1.15904
1.15933
1.1596
1.15987
1.16013
1.16038
1.16062
1.16086
1.16108
1.1613
1.16151
1.16172
1.16192
1.1621
1.16229
1.16246
1.16263
1.16279
1.16294
1.16308
1.16322
1.16335
1.16347
1.16358
1.16369
1.16379
1.16388
1.16396
1.16404
1.16411
1.16417
1.16423
1.16427
1.16432
1.16436
1.16439
1.16442
1.16444
1.16446
1.16448
1.16449
1.1645
1.16451
1.16452
1.16453
1.16454
1.16455
1.16457
1.16458
1.1646
1.16463
1.16466
1.16469
1.16474
1.16479
1.16486
1.16493
1.16501
1.16511
1.16523
1.16536
1.1655
1.16567
1.16585
1.16605
1.16628
1.16653
1.1668
1.1671
1.16743
1.16778
1.16817
1.16858
1.16903
1.16951
1.17003
1.17058
1.17117
1.17181
1.17248
1.1732
1.17396
1.17477
1.17563
1.17655
1.17752
1.17856
1.17967
1.18086
1.18214
1.18352
1.18501
1.18664
1.18844
1.19043
1.19265
1.19518
1.19807
1.20143
1.20538
1.21
1.21538
1.22141
1.22631
1.22656
1.10064
1.10015
1.10083
1.10224
1.1039
1.1054
1.10668
1.10774
1.10859
1.10928
1.10983
1.11029
1.11066
1.11097
1.11122
1.11143
1.1116
1.11174
1.11186
1.11196
1.11203
1.1121
1.11215
1.11219
1.11222
1.11224
1.11226
1.11226
1.11227
1.11227
1.11226
1.11225
1.11224
1.11223
1.11221
1.11219
1.11217
1.11216
1.11214
1.11212
1.1121
1.11208
1.11206
1.11204
1.11203
1.11202
1.112
1.112
1.11199
1.11199
1.11199
1.11199
1.112
1.11202
1.11203
1.11206
1.11209
1.11212
1.11216
1.11221
1.11227
1.11233
1.11241
1.11249
1.11257
1.11267
1.11277
1.11289
1.11301
1.11315
1.11329
1.11344
1.1136
1.11378
1.11396
1.11415
1.11435
1.11457
1.11479
1.11502
1.11526
1.11551
1.11577
1.11604
1.11631
1.1166
1.11689
1.11719
1.1175
1.11781
1.11813
1.11846
1.11878
1.11912
1.11945
1.11979
1.12012
1.12046
1.1208
1.12114
1.12148
1.12181
1.12214
1.12247
1.12279
1.12311
1.12342
1.12372
1.12402
1.12431
1.1246
1.12487
1.12514
1.1254
1.12564
1.12588
1.12611
1.12633
1.12654
1.12673
1.12692
1.1271
1.12727
1.12744
1.12759
1.12774
1.12788
1.12801
1.12813
1.12825
1.12836
1.12847
1.12857
1.12867
1.12877
1.12886
1.12895
1.12903
1.12911
1.12919
1.12927
1.12935
1.12942
1.12949
1.12957
1.12964
1.12971
1.12978
1.12985
1.12992
1.12999
1.13006
1.13013
1.1302
1.13027
1.13034
1.13042
1.13049
1.13057
1.13065
1.13073
1.13081
1.13089
1.13098
1.13106
1.13115
1.13124
1.13134
1.13144
1.13154
1.13164
1.13174
1.13185
1.13196
1.13208
1.13219
1.13231
1.13244
1.13256
1.13269
1.13282
1.13296
1.13309
1.13323
1.13337
1.13352
1.13366
1.13381
1.13396
1.13411
1.13426
1.13442
1.13457
1.13473
1.13488
1.13504
1.13519
1.13535
1.1355
1.13566
1.13581
1.13596
1.13611
1.13626
1.13641
1.13656
1.13671
1.13685
1.13699
1.13713
1.13727
1.13741
1.13754
1.13768
1.13781
1.13794
1.13807
1.1382
1.13832
1.13845
1.13857
1.1387
1.13882
1.13895
1.13907
1.13919
1.13932
1.13944
1.13957
1.1397
1.13983
1.13996
1.1401
1.14024
1.14038
1.14053
1.14068
1.14083
1.14099
1.14115
1.14132
1.1415
1.14168
1.14186
1.14205
1.14225
1.14246
1.14267
1.1429
1.14312
1.14336
1.14361
1.14386
1.14412
1.14439
1.14467
1.14496
1.14525
1.14556
1.14587
1.14619
1.14652
1.14686
1.14721
1.14756
1.14792
1.14829
1.14867
1.14905
1.14943
1.14982
1.15022
1.15062
1.15102
1.15142
1.15183
1.15223
1.15264
1.15304
1.15344
1.15384
1.15423
1.15462
1.15501
1.15538
1.15576
1.15612
1.15648
1.15683
1.15717
1.1575
1.15783
1.15815
1.15845
1.15875
1.15904
1.15933
1.1596
1.15987
1.16012
1.16037
1.16062
1.16085
1.16108
1.1613
1.16151
1.16171
1.16191
1.16209
1.16228
1.16245
1.16262
1.16277
1.16293
1.16307
1.16321
1.16334
1.16346
1.16357
1.16368
1.16377
1.16386
1.16395
1.16402
1.16409
1.16416
1.16421
1.16426
1.1643
1.16434
1.16437
1.1644
1.16442
1.16444
1.16446
1.16447
1.16448
1.16449
1.1645
1.16451
1.16452
1.16453
1.16454
1.16455
1.16457
1.1646
1.16463
1.16466
1.16471
1.16476
1.16482
1.16489
1.16498
1.16508
1.16519
1.16532
1.16546
1.16563
1.16581
1.16602
1.16624
1.16649
1.16677
1.16707
1.16739
1.16775
1.16814
1.16855
1.169
1.16949
1.17
1.17056
1.17115
1.17178
1.17246
1.17318
1.17394
1.17475
1.17561
1.17652
1.17749
1.17853
1.17963
1.18081
1.18207
1.18343
1.18489
1.18649
1.18823
1.19014
1.19227
1.19464
1.19731
1.20032
1.20371
1.20746
1.2113
1.21477
1.2172
1.21655
1.1033
1.10285
1.10304
1.1038
1.10479
1.10585
1.10684
1.10771
1.10846
1.10908
1.10961
1.11005
1.11042
1.11073
1.11099
1.11121
1.11139
1.11155
1.11168
1.11178
1.11187
1.11194
1.112
1.11205
1.11209
1.11212
1.11214
1.11215
1.11216
1.11216
1.11216
1.11216
1.11215
1.11214
1.11213
1.11211
1.1121
1.11208
1.11206
1.11205
1.11203
1.11201
1.112
1.11198
1.11197
1.11196
1.11195
1.11194
1.11194
1.11194
1.11194
1.11194
1.11195
1.11197
1.11199
1.11201
1.11204
1.11208
1.11212
1.11217
1.11223
1.1123
1.11237
1.11245
1.11254
1.11264
1.11274
1.11286
1.11298
1.11312
1.11326
1.11342
1.11358
1.11375
1.11394
1.11413
1.11433
1.11455
1.11477
1.115
1.11524
1.1155
1.11576
1.11603
1.1163
1.11659
1.11689
1.11719
1.1175
1.11781
1.11813
1.11846
1.11879
1.11912
1.11946
1.1198
1.12013
1.12047
1.12081
1.12115
1.12149
1.12182
1.12215
1.12248
1.1228
1.12312
1.12343
1.12374
1.12404
1.12433
1.12461
1.12489
1.12515
1.12541
1.12565
1.12589
1.12612
1.12633
1.12654
1.12674
1.12692
1.1271
1.12727
1.12743
1.12758
1.12773
1.12786
1.12799
1.12812
1.12823
1.12834
1.12845
1.12855
1.12865
1.12874
1.12883
1.12892
1.129
1.12908
1.12916
1.12924
1.12932
1.12939
1.12946
1.12954
1.12961
1.12968
1.12975
1.12982
1.12989
1.12996
1.13003
1.1301
1.13017
1.13025
1.13032
1.13039
1.13047
1.13055
1.13062
1.1307
1.13079
1.13087
1.13096
1.13104
1.13113
1.13123
1.13132
1.13142
1.13152
1.13162
1.13173
1.13184
1.13195
1.13206
1.13218
1.1323
1.13242
1.13255
1.13268
1.13281
1.13295
1.13308
1.13322
1.13336
1.13351
1.13365
1.1338
1.13395
1.1341
1.13425
1.13441
1.13456
1.13472
1.13487
1.13503
1.13518
1.13534
1.13549
1.13565
1.1358
1.13595
1.1361
1.13625
1.1364
1.13655
1.1367
1.13684
1.13698
1.13712
1.13726
1.1374
1.13753
1.13767
1.1378
1.13793
1.13806
1.13819
1.13831
1.13844
1.13856
1.13869
1.13881
1.13894
1.13906
1.13918
1.13931
1.13943
1.13956
1.13969
1.13982
1.13995
1.14009
1.14023
1.14037
1.14051
1.14066
1.14082
1.14098
1.14114
1.14131
1.14148
1.14166
1.14185
1.14204
1.14224
1.14245
1.14266
1.14288
1.14311
1.14335
1.14359
1.14384
1.14411
1.14438
1.14465
1.14494
1.14524
1.14554
1.14586
1.14618
1.14651
1.14685
1.1472
1.14755
1.14792
1.14829
1.14866
1.14905
1.14943
1.14983
1.15022
1.15062
1.15103
1.15143
1.15184
1.15225
1.15265
1.15306
1.15346
1.15386
1.15425
1.15464
1.15502
1.1554
1.15577
1.15614
1.15649
1.15684
1.15718
1.15752
1.15784
1.15815
1.15846
1.15876
1.15905
1.15933
1.1596
1.15987
1.16012
1.16037
1.16061
1.16084
1.16107
1.16129
1.1615
1.1617
1.1619
1.16209
1.16227
1.16244
1.16261
1.16277
1.16292
1.16306
1.1632
1.16333
1.16345
1.16356
1.16367
1.16376
1.16385
1.16394
1.16401
1.16408
1.16414
1.1642
1.16425
1.16429
1.16432
1.16436
1.16438
1.1644
1.16442
1.16444
1.16445
1.16446
1.16446
1.16447
1.16448
1.16449
1.16449
1.1645
1.16452
1.16454
1.16456
1.16458
1.16462
1.16466
1.16471
1.16477
1.16484
1.16493
1.16503
1.16514
1.16526
1.16541
1.16557
1.16575
1.16596
1.16618
1.16643
1.16671
1.16701
1.16733
1.16769
1.16808
1.16849
1.16894
1.16943
1.16994
1.1705
1.17109
1.17172
1.1724
1.17311
1.17387
1.17467
1.17553
1.17644
1.1774
1.17842
1.17951
1.18066
1.1819
1.18322
1.18465
1.18618
1.18785
1.18966
1.19165
1.19382
1.19621
1.19882
1.2016
1.20445
1.20715
1.20924
1.21032
1.21007
1.10515
1.1047
1.10471
1.1051
1.10571
1.10643
1.10716
1.10785
1.10848
1.10903
1.1095
1.10991
1.11026
1.11057
1.11082
1.11104
1.11123
1.11138
1.11152
1.11163
1.11172
1.1118
1.11187
1.11192
1.11196
1.112
1.11202
1.11204
1.11206
1.11206
1.11207
1.11207
1.11206
1.11206
1.11205
1.11204
1.11202
1.11201
1.112
1.11198
1.11197
1.11195
1.11194
1.11192
1.11191
1.1119
1.11189
1.11189
1.11188
1.11188
1.11189
1.11189
1.1119
1.11192
1.11194
1.11197
1.112
1.11204
1.11208
1.11213
1.11219
1.11225
1.11233
1.11241
1.1125
1.1126
1.1127
1.11282
1.11295
1.11308
1.11323
1.11338
1.11355
1.11372
1.1139
1.1141
1.1143
1.11452
1.11474
1.11498
1.11522
1.11547
1.11573
1.11601
1.11629
1.11657
1.11687
1.11718
1.11749
1.1178
1.11812
1.11845
1.11878
1.11912
1.11946
1.1198
1.12014
1.12048
1.12082
1.12116
1.1215
1.12184
1.12217
1.1225
1.12282
1.12314
1.12345
1.12376
1.12405
1.12435
1.12463
1.1249
1.12517
1.12542
1.12567
1.1259
1.12613
1.12634
1.12655
1.12674
1.12693
1.12711
1.12727
1.12743
1.12758
1.12772
1.12785
1.12798
1.1281
1.12822
1.12833
1.12843
1.12853
1.12863
1.12872
1.12881
1.12889
1.12898
1.12906
1.12913
1.12921
1.12929
1.12936
1.12943
1.12951
1.12958
1.12965
1.12972
1.12979
1.12986
1.12993
1.13
1.13007
1.13014
1.13022
1.13029
1.13036
1.13044
1.13052
1.1306
1.13068
1.13076
1.13084
1.13093
1.13102
1.13111
1.1312
1.1313
1.1314
1.1315
1.1316
1.13171
1.13182
1.13193
1.13205
1.13216
1.13229
1.13241
1.13254
1.13267
1.1328
1.13293
1.13307
1.13321
1.13335
1.1335
1.13364
1.13379
1.13394
1.13409
1.13424
1.1344
1.13455
1.13471
1.13486
1.13502
1.13517
1.13533
1.13548
1.13564
1.13579
1.13594
1.13609
1.13624
1.13639
1.13654
1.13669
1.13683
1.13697
1.13711
1.13725
1.13739
1.13752
1.13766
1.13779
1.13792
1.13805
1.13817
1.1383
1.13843
1.13855
1.13868
1.1388
1.13892
1.13905
1.13917
1.13929
1.13942
1.13955
1.13968
1.13981
1.13994
1.14007
1.14021
1.14035
1.1405
1.14065
1.1408
1.14096
1.14112
1.14129
1.14146
1.14164
1.14183
1.14202
1.14222
1.14242
1.14264
1.14286
1.14309
1.14332
1.14357
1.14382
1.14408
1.14435
1.14463
1.14492
1.14521
1.14552
1.14583
1.14616
1.14649
1.14683
1.14718
1.14754
1.1479
1.14827
1.14865
1.14903
1.14942
1.14982
1.15022
1.15062
1.15103
1.15144
1.15184
1.15225
1.15266
1.15307
1.15347
1.15387
1.15426
1.15466
1.15504
1.15542
1.15579
1.15615
1.15651
1.15686
1.1572
1.15753
1.15785
1.15816
1.15847
1.15877
1.15905
1.15933
1.1596
1.15987
1.16012
1.16037
1.16061
1.16084
1.16107
1.16128
1.16149
1.16169
1.16189
1.16208
1.16226
1.16243
1.1626
1.16276
1.16291
1.16305
1.16319
1.16332
1.16344
1.16355
1.16366
1.16376
1.16385
1.16393
1.164
1.16407
1.16413
1.16419
1.16423
1.16427
1.16431
1.16434
1.16436
1.16439
1.1644
1.16441
1.16442
1.16443
1.16444
1.16444
1.16445
1.16445
1.16446
1.16447
1.16448
1.16449
1.16451
1.16454
1.16457
1.16461
1.16466
1.16471
1.16478
1.16487
1.16496
1.16507
1.16519
1.16534
1.1655
1.16568
1.16588
1.1661
1.16635
1.16662
1.16692
1.16725
1.1676
1.16799
1.1684
1.16885
1.16933
1.16985
1.1704
1.17099
1.17162
1.17229
1.173
1.17375
1.17455
1.17539
1.17629
1.17724
1.17824
1.17931
1.18044
1.18164
1.18292
1.18428
1.18574
1.18732
1.18901
1.19083
1.19278
1.19487
1.19706
1.19929
1.20143
1.20329
1.20463
1.20515
1.20494
1.10644
1.10605
1.10597
1.10616
1.10654
1.10702
1.10756
1.10809
1.1086
1.10906
1.10948
1.10985
1.11017
1.11045
1.11069
1.11091
1.11109
1.11125
1.11138
1.1115
1.11159
1.11168
1.11174
1.1118
1.11185
1.11189
1.11192
1.11194
1.11196
1.11197
1.11197
1.11198
1.11198
1.11197
1.11197
1.11196
1.11195
1.11194
1.11192
1.11191
1.1119
1.11189
1.11187
1.11186
1.11185
1.11184
1.11183
1.11183
1.11183
1.11183
1.11183
1.11184
1.11185
1.11187
1.11189
1.11192
1.11195
1.11199
1.11203
1.11208
1.11214
1.11221
1.11228
1.11236
1.11245
1.11255
1.11266
1.11278
1.1129
1.11304
1.11319
1.11334
1.11351
1.11368
1.11387
1.11406
1.11427
1.11449
1.11471
1.11495
1.11519
1.11544
1.11571
1.11598
1.11626
1.11655
1.11685
1.11716
1.11747
1.11779
1.11811
1.11844
1.11878
1.11912
1.11946
1.1198
1.12014
1.12049
1.12083
1.12117
1.12151
1.12185
1.12218
1.12251
1.12284
1.12315
1.12347
1.12377
1.12407
1.12437
1.12465
1.12492
1.12519
1.12544
1.12569
1.12592
1.12614
1.12636
1.12656
1.12675
1.12694
1.12711
1.12727
1.12743
1.12757
1.12771
1.12784
1.12797
1.12809
1.1282
1.12831
1.12841
1.12851
1.1286
1.12869
1.12878
1.12886
1.12895
1.12902
1.1291
1.12918
1.12925
1.12933
1.1294
1.12947
1.12954
1.12961
1.12968
1.12975
1.12982
1.1299
1.12997
1.13004
1.13011
1.13018
1.13026
1.13033
1.13041
1.13049
1.13057
1.13065
1.13073
1.13082
1.1309
1.13099
1.13108
1.13118
1.13128
1.13137
1.13148
1.13158
1.13169
1.1318
1.13191
1.13203
1.13215
1.13227
1.13239
1.13252
1.13265
1.13278
1.13292
1.13306
1.1332
1.13334
1.13348
1.13363
1.13378
1.13393
1.13408
1.13423
1.13439
1.13454
1.13469
1.13485
1.13501
1.13516
1.13532
1.13547
1.13562
1.13578
1.13593
1.13608
1.13623
1.13638
1.13653
1.13667
1.13682
1.13696
1.1371
1.13724
1.13738
1.13751
1.13764
1.13778
1.13791
1.13803
1.13816
1.13829
1.13841
1.13854
1.13866
1.13878
1.13891
1.13903
1.13915
1.13928
1.1394
1.13953
1.13966
1.13979
1.13992
1.14006
1.14019
1.14033
1.14048
1.14063
1.14078
1.14094
1.1411
1.14126
1.14144
1.14162
1.1418
1.14199
1.14219
1.14239
1.14261
1.14283
1.14305
1.14329
1.14353
1.14379
1.14405
1.14432
1.1446
1.14489
1.14518
1.14549
1.1458
1.14613
1.14646
1.1468
1.14715
1.14751
1.14788
1.14825
1.14863
1.14902
1.14941
1.14981
1.15021
1.15061
1.15102
1.15143
1.15184
1.15226
1.15267
1.15307
1.15348
1.15388
1.15428
1.15467
1.15506
1.15544
1.15581
1.15617
1.15653
1.15687
1.15721
1.15754
1.15786
1.15818
1.15848
1.15877
1.15906
1.15934
1.15961
1.15987
1.16012
1.16037
1.16061
1.16084
1.16106
1.16128
1.16149
1.16169
1.16188
1.16207
1.16225
1.16242
1.16259
1.16275
1.1629
1.16305
1.16318
1.16331
1.16343
1.16355
1.16365
1.16375
1.16384
1.16392
1.164
1.16406
1.16412
1.16418
1.16422
1.16426
1.1643
1.16432
1.16435
1.16437
1.16438
1.16439
1.1644
1.1644
1.16441
1.16441
1.16441
1.16441
1.16442
1.16442
1.16443
1.16444
1.16446
1.16448
1.16451
1.16455
1.16459
1.16465
1.16471
1.16479
1.16488
1.16499
1.16511
1.16525
1.16541
1.16559
1.16578
1.166
1.16625
1.16652
1.16681
1.16714
1.16749
1.16787
1.16828
1.16873
1.16921
1.16972
1.17027
1.17085
1.17148
1.17214
1.17284
1.17359
1.17437
1.17521
1.17609
1.17702
1.178
1.17904
1.18013
1.18129
1.18252
1.18382
1.1852
1.18666
1.18822
1.18986
1.19159
1.19339
1.19521
1.19697
1.19858
1.19988
1.20074
1.20103
1.20073
1.10739
1.10706
1.10694
1.10702
1.10725
1.10758
1.10797
1.10837
1.10878
1.10916
1.10952
1.10984
1.11013
1.11039
1.11061
1.11081
1.11099
1.11114
1.11127
1.11139
1.11148
1.11157
1.11164
1.1117
1.11175
1.11179
1.11182
1.11184
1.11186
1.11188
1.11189
1.11189
1.11189
1.11189
1.11189
1.11188
1.11187
1.11187
1.11186
1.11184
1.11183
1.11182
1.11181
1.1118
1.11179
1.11178
1.11178
1.11177
1.11177
1.11177
1.11178
1.11179
1.1118
1.11182
1.11184
1.11186
1.1119
1.11194
1.11198
1.11203
1.11209
1.11216
1.11223
1.11231
1.1124
1.1125
1.11261
1.11273
1.11286
1.11299
1.11314
1.1133
1.11346
1.11364
1.11383
1.11402
1.11423
1.11444
1.11467
1.11491
1.11515
1.11541
1.11567
1.11595
1.11623
1.11652
1.11682
1.11713
1.11745
1.11777
1.1181
1.11843
1.11876
1.11911
1.11945
1.11979
1.12014
1.12049
1.12083
1.12117
1.12152
1.12186
1.12219
1.12252
1.12285
1.12317
1.12348
1.12379
1.12409
1.12438
1.12467
1.12494
1.12521
1.12546
1.12571
1.12594
1.12616
1.12637
1.12658
1.12677
1.12695
1.12712
1.12728
1.12743
1.12757
1.12771
1.12784
1.12796
1.12807
1.12818
1.12829
1.12839
1.12848
1.12858
1.12867
1.12875
1.12883
1.12891
1.12899
1.12907
1.12915
1.12922
1.12929
1.12936
1.12944
1.12951
1.12958
1.12965
1.12972
1.12979
1.12986
1.12993
1.13
1.13007
1.13015
1.13022
1.1303
1.13038
1.13045
1.13053
1.13062
1.1307
1.13079
1.13087
1.13096
1.13106
1.13115
1.13125
1.13135
1.13145
1.13156
1.13166
1.13178
1.13189
1.13201
1.13213
1.13225
1.13237
1.1325
1.13263
1.13277
1.1329
1.13304
1.13318
1.13332
1.13347
1.13362
1.13376
1.13391
1.13407
1.13422
1.13437
1.13453
1.13468
1.13484
1.13499
1.13515
1.1353
1.13546
1.13561
1.13577
1.13592
1.13607
1.13622
1.13637
1.13651
1.13666
1.1368
1.13695
1.13709
1.13722
1.13736
1.1375
1.13763
1.13776
1.13789
1.13802
1.13815
1.13827
1.1384
1.13852
1.13865
1.13877
1.13889
1.13901
1.13914
1.13926
1.13939
1.13951
1.13964
1.13977
1.1399
1.14003
1.14017
1.14031
1.14045
1.1406
1.14075
1.14091
1.14107
1.14124
1.14141
1.14158
1.14177
1.14196
1.14216
1.14236
1.14257
1.14279
1.14302
1.14325
1.14349
1.14375
1.14401
1.14428
1.14456
1.14484
1.14514
1.14545
1.14576
1.14609
1.14642
1.14676
1.14711
1.14747
1.14784
1.14822
1.1486
1.14899
1.14938
1.14979
1.15019
1.1506
1.15101
1.15142
1.15184
1.15225
1.15267
1.15308
1.15349
1.15389
1.15429
1.15468
1.15507
1.15545
1.15582
1.15619
1.15654
1.15689
1.15723
1.15756
1.15788
1.15819
1.15849
1.15878
1.15907
1.15934
1.15961
1.15987
1.16012
1.16037
1.1606
1.16083
1.16106
1.16127
1.16148
1.16168
1.16188
1.16206
1.16224
1.16242
1.16258
1.16274
1.16289
1.16304
1.16318
1.16331
1.16343
1.16354
1.16365
1.16374
1.16383
1.16392
1.16399
1.16406
1.16411
1.16417
1.16421
1.16425
1.16428
1.16431
1.16433
1.16435
1.16436
1.16437
1.16437
1.16437
1.16438
1.16438
1.16437
1.16437
1.16437
1.16438
1.16438
1.16439
1.1644
1.16442
1.16445
1.16448
1.16452
1.16457
1.16463
1.16471
1.16479
1.1649
1.16501
1.16515
1.1653
1.16548
1.16567
1.16589
1.16613
1.16639
1.16668
1.167
1.16735
1.16773
1.16813
1.16857
1.16905
1.16956
1.1701
1.17068
1.17129
1.17195
1.17264
1.17338
1.17415
1.17497
1.17583
1.17674
1.17769
1.1787
1.17975
1.18086
1.18203
1.18326
1.18455
1.1859
1.18732
1.18879
1.19031
1.19184
1.19334
1.19473
1.19595
1.19688
1.19744
1.19759
1.19726
1.10812
1.10783
1.1077
1.10772
1.10786
1.10808
1.10836
1.10866
1.10898
1.1093
1.10959
1.10987
1.11013
1.11036
1.11056
1.11075
1.11091
1.11106
1.11118
1.11129
1.11139
1.11147
1.11154
1.1116
1.11165
1.11169
1.11173
1.11175
1.11177
1.11179
1.1118
1.11181
1.11181
1.11181
1.11181
1.11181
1.1118
1.11179
1.11179
1.11178
1.11177
1.11176
1.11175
1.11174
1.11173
1.11172
1.11172
1.11172
1.11172
1.11172
1.11172
1.11173
1.11174
1.11176
1.11178
1.11181
1.11184
1.11188
1.11193
1.11198
1.11204
1.1121
1.11218
1.11226
1.11235
1.11245
1.11256
1.11268
1.11281
1.11295
1.11309
1.11325
1.11342
1.11359
1.11378
1.11398
1.11418
1.1144
1.11463
1.11487
1.11511
1.11537
1.11564
1.11591
1.1162
1.11649
1.11679
1.1171
1.11742
1.11774
1.11807
1.11841
1.11875
1.11909
1.11944
1.11979
1.12013
1.12048
1.12083
1.12118
1.12152
1.12186
1.1222
1.12253
1.12286
1.12319
1.1235
1.12381
1.12411
1.12441
1.12469
1.12496
1.12523
1.12548
1.12573
1.12596
1.12618
1.12639
1.12659
1.12678
1.12696
1.12712
1.12728
1.12743
1.12757
1.1277
1.12783
1.12795
1.12806
1.12817
1.12827
1.12837
1.12846
1.12855
1.12864
1.12872
1.1288
1.12888
1.12896
1.12903
1.12911
1.12918
1.12925
1.12933
1.1294
1.12947
1.12954
1.12961
1.12968
1.12975
1.12982
1.12989
1.12996
1.13004
1.13011
1.13019
1.13026
1.13034
1.13042
1.1305
1.13058
1.13067
1.13075
1.13084
1.13093
1.13103
1.13112
1.13122
1.13132
1.13142
1.13153
1.13164
1.13175