# vtk DataFile Version 2.0
LBE mesh
ASCII
DATASET STRUCTURED_POINTS
DIMENSIONS 400 100 1
ASPECT_RATIO 1 1 1
ORIGIN 0 0 0
POINT_DATA 40000
SCALARS rho double 1
LOOKUP_TABLE default
1.08638
1.1547
1.17475
1.17909
1.18125
1.18308
1.18439
1.18526
1.18585
1.18628
1.18661
1.18687
1.18707
1.18723
1.18736
1.18746
1.18754
1.1876
1.18765
1.18768
1.18771
1.18772
1.18772
1.18772
1.18771
1.1877
1.18767
1.18765
1.18761
1.18757
1.18753
1.18748
1.18743
1.18738
1.18732
1.18725
1.18719
1.18712
1.18704
1.18697
1.18689
1.18681
1.18673
1.18664
1.18656
1.18647
1.18638
1.1863
1.18621
1.18612
1.18603
1.18595
1.18586
1.18578
1.1857
1.18562
1.18555
1.18548
1.18541
1.18535
1.18529
1.18524
1.1852
1.18516
1.18512
1.1851
1.18508
1.18507
1.18507
1.18507
1.18509
1.18511
1.18514
1.18518
1.18523
1.18529
1.18535
1.18543
1.18551
1.18561
1.18571
1.18582
1.18594
1.18607
1.1862
1.18635
1.1865
1.18666
1.18682
1.18699
1.18717
1.18736
1.18755
1.18774
1.18793
1.18814
1.18834
1.18854
1.18875
1.18896
1.18916
1.18937
1.18957
1.18978
1.18998
1.19018
1.19037
1.19056
1.19075
1.19093
1.1911
1.19127
1.19143
1.19158
1.19172
1.19186
1.19198
1.1921
1.19221
1.19231
1.1924
1.19248
1.19255
1.19261
1.19267
1.19271
1.19275
1.19278
1.1928
1.19282
1.19283
1.19284
1.19284
1.19283
1.19282
1.19281
1.1928
1.19278
1.19276
1.19273
1.19271
1.19268
1.19265
1.19262
1.19259
1.19255
1.19252
1.19249
1.19245
1.19241
1.19238
1.19234
1.1923
1.19226
1.19222
1.19218
1.19214
1.1921
1.19206
1.19202
1.19198
1.19193
1.19189
1.19184
1.1918
1.19175
1.19171
1.19166
1.19161
1.19156
1.19151
1.19147
1.19142
1.19136
1.19131
1.19126
1.19121
1.19116
1.1911
1.19105
1.191
1.19094
1.19089
1.19084
1.19078
1.19073
1.19067
1.19062
1.19057
1.19051
1.19046
1.19041
1.19035
1.1903
1.19025
1.1902
1.19015
1.1901
1.19005
1.19001
1.18996
1.18991
1.18987
1.18982
1.18978
1.18974
1.1897
1.18966
1.18962
1.18959
1.18955
1.18951
1.18948
1.18945
1.18942
1.18939
1.18936
1.18934
1.18931
1.18929
1.18927
1.18925
1.18923
1.18921
1.1892
1.18919
1.18918
1.18917
1.18917
1.18916
1.18916
1.18917
1.18917
1.18918
1.1892
1.18921
1.18923
1.18926
1.18928
1.18932
1.18935
1.1894
1.18944
1.1895
1.18955
1.18962
1.18969
1.18976
1.18985
1.18994
1.19003
1.19014
1.19025
1.19036
1.19049
1.19062
1.19076
1.19091
1.19106
1.19122
1.19139
1.19157
1.19175
1.19194
1.19214
1.19234
1.19255
1.19276
1.19297
1.19319
1.19342
1.19364
1.19387
1.1941
1.19433
1.19456
1.19479
1.19502
1.19524
1.19546
1.19568
1.19589
1.1961
1.19631
1.1965
1.1967
1.19688
1.19706
1.19723
1.1974
1.19756
1.19771
1.19786
1.198
1.19813
1.19826
1.19838
1.1985
1.19861
1.19872
1.19882
1.19892
1.19902
1.19911
1.1992
1.19929
1.19938
1.19946
1.19954
1.19962
1.1997
1.19977
1.19985
1.19992
1.19999
1.20006
1.20012
1.20018
1.20024
1.2003
1.20036
1.20041
1.20046
1.20051
1.20055
1.2006
1.20064
1.20067
1.20071
1.20074
1.20077
1.2008
1.20083
1.20086
1.20089
1.20091
1.20094
1.20098
1.20101
1.20105
1.20109
1.20113
1.20119
1.20124
1.20131
1.20138
1.20147
1.20156
1.20166
1.20178
1.20191
1.20205
1.20221
1.20238
1.20258
1.20278
1.20301
1.20326
1.20353
1.20382
1.20413
1.20447
1.20483
1.20522
1.20563
1.20607
1.20654
1.20704
1.20757
1.20814
1.20873
1.20936
1.21003
1.21073
1.21147
1.21226
1.21308
1.21396
1.21488
1.21586
1.21689
1.21799
1.21916
1.22041
1.22174
1.22318
1.22473
1.22642
1.22828
1.23033
1.23263
1.23524
1.23826
1.24182
1.24616
1.25177
1.25953
1.27044
1.287
1.32164
1.14285
1.15317
1.16472
1.17395
1.17877
1.18127
1.18284
1.18398
1.18481
1.18543
1.18589
1.18626
1.18654
1.18677
1.18695
1.18709
1.18721
1.1873
1.18738
1.18744
1.18748
1.18751
1.18753
1.18755
1.18755
1.18754
1.18753
1.18751
1.18748
1.18745
1.18742
1.18738
1.18733
1.18728
1.18722
1.18717
1.1871
1.18704
1.18697
1.1869
1.18682
1.18675
1.18667
1.18658
1.1865
1.18642
1.18633
1.18625
1.18616
1.18608
1.18599
1.18591
1.18583
1.18575
1.18567
1.18559
1.18552
1.18545
1.18539
1.18533
1.18528
1.18523
1.18518
1.18515
1.18512
1.18509
1.18508
1.18507
1.18507
1.18508
1.18509
1.18512
1.18515
1.18519
1.18524
1.1853
1.18537
1.18545
1.18553
1.18563
1.18573
1.18584
1.18596
1.18609
1.18623
1.18637
1.18653
1.18669
1.18685
1.18702
1.1872
1.18739
1.18757
1.18777
1.18796
1.18816
1.18836
1.18857
1.18877
1.18898
1.18918
1.18939
1.18959
1.1898
1.19
1.19019
1.19038
1.19057
1.19076
1.19093
1.1911
1.19127
1.19143
1.19158
1.19172
1.19185
1.19197
1.19209
1.1922
1.19229
1.19238
1.19246
1.19253
1.19259
1.19264
1.19269
1.19272
1.19275
1.19278
1.19279
1.1928
1.19281
1.19281
1.1928
1.1928
1.19278
1.19277
1.19275
1.19273
1.19271
1.19268
1.19265
1.19263
1.1926
1.19256
1.19253
1.1925
1.19246
1.19243
1.19239
1.19236
1.19232
1.19228
1.19225
1.19221
1.19217
1.19213
1.19209
1.19205
1.192
1.19196
1.19192
1.19188
1.19183
1.19179
1.19174
1.1917
1.19165
1.1916
1.19155
1.1915
1.19146
1.19141
1.19136
1.1913
1.19125
1.1912
1.19115
1.1911
1.19104
1.19099
1.19094
1.19088
1.19083
1.19078
1.19072
1.19067
1.19062
1.19056
1.19051
1.19046
1.1904
1.19035
1.1903
1.19025
1.1902
1.19015
1.1901
1.19005
1.19
1.18996
1.18991
1.18987
1.18982
1.18978
1.18974
1.1897
1.18966
1.18962
1.18958
1.18955
1.18951
1.18948
1.18945
1.18942
1.18939
1.18936
1.18934
1.18931
1.18929
1.18927
1.18925
1.18923
1.18922
1.1892
1.18919
1.18918
1.18918
1.18917
1.18917
1.18917
1.18917
1.18918
1.18919
1.1892
1.18922
1.18924
1.18927
1.18929
1.18933
1.18937
1.18941
1.18946
1.18951
1.18957
1.18963
1.18971
1.18978
1.18987
1.18996
1.19005
1.19016
1.19027
1.19039
1.19052
1.19065
1.19079
1.19094
1.19109
1.19126
1.19143
1.1916
1.19179
1.19198
1.19217
1.19237
1.19258
1.19279
1.19301
1.19323
1.19345
1.19368
1.1939
1.19413
1.19436
1.19459
1.19482
1.19504
1.19527
1.19549
1.1957
1.19591
1.19612
1.19632
1.19652
1.19671
1.19689
1.19707
1.19724
1.19741
1.19756
1.19772
1.19786
1.198
1.19813
1.19826
1.19838
1.1985
1.19861
1.19872
1.19882
1.19892
1.19902
1.19911
1.1992
1.19929
1.19937
1.19946
1.19954
1.19962
1.19969
1.19977
1.19984
1.19991
1.19998
1.20005
1.20011
1.20018
1.20024
1.20029
1.20035
1.2004
1.20045
1.2005
1.20054
1.20058
1.20062
1.20066
1.2007
1.20073
1.20076
1.20079
1.20082
1.20085
1.20087
1.2009
1.20093
1.20097
1.201
1.20104
1.20108
1.20113
1.20118
1.20124
1.20131
1.20138
1.20147
1.20156
1.20167
1.20179
1.20192
1.20207
1.20223
1.20241
1.2026
1.20281
1.20304
1.2033
1.20357
1.20386
1.20418
1.20452
1.20489
1.20528
1.2057
1.20614
1.20662
1.20712
1.20765
1.20822
1.20882
1.20946
1.21013
1.21084
1.21159
1.21238
1.21321
1.21409
1.21503
1.21601
1.21706
1.21817
1.21935
1.22062
1.22198
1.22344
1.22503
1.22676
1.22867
1.23079
1.23317
1.2359
1.23908
1.24287
1.24756
1.25347
1.26119
1.27255
1.29225
1.32303
1.16203
1.16082
1.16774
1.1735
1.17715
1.17977
1.18166
1.183
1.18396
1.18469
1.18526
1.1857
1.18605
1.18634
1.18656
1.18675
1.1869
1.18702
1.18712
1.1872
1.18727
1.18731
1.18735
1.18737
1.18739
1.18739
1.18739
1.18738
1.18736
1.18734
1.18731
1.18727
1.18723
1.18719
1.18714
1.18708
1.18702
1.18696
1.18689
1.18683
1.18675
1.18668
1.1866
1.18653
1.18645
1.18636
1.18628
1.1862
1.18612
1.18603
1.18595
1.18587
1.18579
1.18571
1.18563
1.18556
1.18549
1.18543
1.18536
1.18531
1.18526
1.18521
1.18517
1.18513
1.1851
1.18508
1.18507
1.18506
1.18506
1.18507
1.18509
1.18512
1.18515
1.1852
1.18525
1.18531
1.18538
1.18546
1.18555
1.18564
1.18575
1.18586
1.18598
1.18611
1.18625
1.1864
1.18655
1.18671
1.18688
1.18705
1.18723
1.18741
1.1876
1.1878
1.18799
1.18819
1.18839
1.1886
1.1888
1.18901
1.18921
1.18942
1.18962
1.18982
1.19002
1.19021
1.1904
1.19059
1.19077
1.19095
1.19112
1.19128
1.19144
1.19158
1.19172
1.19185
1.19198
1.19209
1.19219
1.19229
1.19237
1.19245
1.19252
1.19258
1.19263
1.19267
1.19271
1.19273
1.19276
1.19277
1.19278
1.19279
1.19279
1.19278
1.19277
1.19276
1.19274
1.19273
1.1927
1.19268
1.19266
1.19263
1.1926
1.19257
1.19254
1.19251
1.19248
1.19244
1.19241
1.19237
1.19234
1.1923
1.19226
1.19223
1.19219
1.19215
1.19211
1.19207
1.19203
1.19199
1.19195
1.1919
1.19186
1.19182
1.19177
1.19173
1.19168
1.19164
1.19159
1.19154
1.19149
1.19145
1.1914
1.19135
1.1913
1.19124
1.19119
1.19114
1.19109
1.19104
1.19098
1.19093
1.19088
1.19082
1.19077
1.19072
1.19066
1.19061
1.19056
1.1905
1.19045
1.1904
1.19035
1.1903
1.19024
1.19019
1.19015
1.1901
1.19005
1.19
1.18995
1.18991
1.18986
1.18982
1.18978
1.18974
1.1897
1.18966
1.18962
1.18958
1.18955
1.18951
1.18948
1.18945
1.18942
1.18939
1.18936
1.18934
1.18931
1.18929
1.18927
1.18925
1.18923
1.18922
1.1892
1.18919
1.18918
1.18918
1.18917
1.18917
1.18917
1.18917
1.18918
1.18919
1.18921
1.18922
1.18924
1.18927
1.1893
1.18933
1.18937
1.18942
1.18946
1.18952
1.18958
1.18964
1.18972
1.18979
1.18988
1.18997
1.19007
1.19017
1.19029
1.19041
1.19053
1.19067
1.19081
1.19096
1.19112
1.19128
1.19145
1.19163
1.19181
1.19201
1.1922
1.1924
1.19261
1.19282
1.19304
1.19326
1.19349
1.19371
1.19394
1.19417
1.1944
1.19462
1.19485
1.19508
1.1953
1.19552
1.19573
1.19594
1.19615
1.19635
1.19655
1.19673
1.19692
1.19709
1.19726
1.19743
1.19758
1.19773
1.19787
1.19801
1.19814
1.19827
1.19839
1.1985
1.19862
1.19872
1.19882
1.19892
1.19902
1.19911
1.1992
1.19929
1.19938
1.19946
1.19954
1.19962
1.19969
1.19977
1.19984
1.19991
1.19998
1.20005
1.20011
1.20018
1.20024
1.20029
1.20035
1.2004
1.20045
1.20049
1.20054
1.20058
1.20062
1.20065
1.20069
1.20072
1.20075
1.20078
1.20081
1.20084
1.20087
1.20089
1.20092
1.20096
1.20099
1.20103
1.20107
1.20112
1.20117
1.20124
1.2013
1.20138
1.20147
1.20156
1.20167
1.20179
1.20192
1.20207
1.20224
1.20241
1.20261
1.20283
1.20306
1.20331
1.20359
1.20388
1.2042
1.20455
1.20492
1.20531
1.20573
1.20618
1.20666
1.20717
1.2077
1.20827
1.20888
1.20952
1.21019
1.21091
1.21166
1.21245
1.21329
1.21418
1.21512
1.21611
1.21716
1.21828
1.21947
1.22074
1.22211
1.22358
1.22518
1.22692
1.22884
1.23098
1.23338
1.23612
1.2393
1.24305
1.24758
1.25326
1.2606
1.26985
1.27991
1.28908
1.17014
1.16926
1.17149
1.17418
1.17705
1.17936
1.18106
1.18235
1.18335
1.18413
1.18475
1.18524
1.18564
1.18596
1.18622
1.18644
1.18662
1.18677
1.18689
1.18698
1.18706
1.18713
1.18718
1.18721
1.18724
1.18725
1.18726
1.18725
1.18724
1.18723
1.1872
1.18717
1.18714
1.1871
1.18705
1.187
1.18694
1.18689
1.18682
1.18676
1.18669
1.18662
1.18654
1.18647
1.18639
1.18631
1.18623
1.18615
1.18607
1.18599
1.18591
1.18583
1.18575
1.18567
1.1856
1.18553
1.18546
1.1854
1.18534
1.18528
1.18523
1.18519
1.18515
1.18511
1.18509
1.18507
1.18506
1.18505
1.18505
1.18507
1.18509
1.18511
1.18515
1.1852
1.18525
1.18531
1.18538
1.18547
1.18555
1.18565
1.18576
1.18587
1.186
1.18613
1.18627
1.18642
1.18657
1.18673
1.1869
1.18708
1.18726
1.18744
1.18763
1.18783
1.18802
1.18822
1.18842
1.18863
1.18883
1.18904
1.18924
1.18945
1.18965
1.18985
1.19005
1.19024
1.19043
1.19062
1.1908
1.19097
1.19114
1.1913
1.19146
1.1916
1.19174
1.19187
1.19199
1.1921
1.1922
1.19229
1.19238
1.19245
1.19252
1.19257
1.19262
1.19266
1.1927
1.19272
1.19274
1.19276
1.19276
1.19277
1.19277
1.19276
1.19275
1.19274
1.19272
1.1927
1.19268
1.19266
1.19263
1.19261
1.19258
1.19255
1.19252
1.19249
1.19245
1.19242
1.19239
1.19235
1.19231
1.19228
1.19224
1.19221
1.19217
1.19213
1.19209
1.19205
1.19201
1.19197
1.19193
1.19189
1.19184
1.1918
1.19176
1.19171
1.19167
1.19162
1.19158
1.19153
1.19148
1.19143
1.19138
1.19133
1.19128
1.19123
1.19118
1.19113
1.19108
1.19103
1.19097
1.19092
1.19087
1.19082
1.19076
1.19071
1.19066
1.1906
1.19055
1.1905
1.19045
1.19039
1.19034
1.19029
1.19024
1.19019
1.19014
1.19009
1.19004
1.19
1.18995
1.18991
1.18986
1.18982
1.18978
1.18973
1.18969
1.18966
1.18962
1.18958
1.18954
1.18951
1.18948
1.18945
1.18942
1.18939
1.18936
1.18933
1.18931
1.18929
1.18927
1.18925
1.18923
1.18921
1.1892
1.18919
1.18918
1.18917
1.18917
1.18917
1.18917
1.18917
1.18918
1.18919
1.1892
1.18922
1.18924
1.18927
1.1893
1.18933
1.18937
1.18942
1.18947
1.18952
1.18958
1.18965
1.18972
1.1898
1.18988
1.18998
1.19008
1.19018
1.1903
1.19042
1.19055
1.19068
1.19083
1.19098
1.19113
1.1913
1.19147
1.19165
1.19184
1.19203
1.19223
1.19243
1.19264
1.19285
1.19307
1.19329
1.19352
1.19375
1.19397
1.1942
1.19443
1.19466
1.19489
1.19511
1.19534
1.19556
1.19577
1.19598
1.19619
1.19639
1.19658
1.19677
1.19695
1.19712
1.19729
1.19745
1.19761
1.19776
1.1979
1.19803
1.19816
1.19829
1.19841
1.19852
1.19863
1.19874
1.19884
1.19894
1.19903
1.19912
1.19921
1.1993
1.19938
1.19947
1.19955
1.19962
1.1997
1.19978
1.19985
1.19992
1.19999
1.20005
1.20012
1.20018
1.20024
1.2003
1.20035
1.2004
1.20045
1.2005
1.20054
1.20058
1.20062
1.20065
1.20069
1.20072
1.20075
1.20078
1.2008
1.20083
1.20086
1.20089
1.20092
1.20095
1.20098
1.20102
1.20106
1.20111
1.20117
1.20123
1.20129
1.20137
1.20146
1.20155
1.20166
1.20178
1.20192
1.20207
1.20223
1.20241
1.20261
1.20282
1.20306
1.20331
1.20359
1.20389
1.20421
1.20455
1.20492
1.20532
1.20574
1.20619
1.20667
1.20718
1.20772
1.2083
1.2089
1.20954
1.21022
1.21094
1.21169
1.21249
1.21333
1.21421
1.21515
1.21615
1.2172
1.21831
1.2195
1.22077
1.22213
1.2236
1.22519
1.22692
1.22881
1.23092
1.23327
1.23592
1.23897
1.2425
1.24664
1.25149
1.25712
1.26335
1.26841
1.26848
1.17442
1.17395
1.17456
1.17605
1.17787
1.1795
1.1809
1.18207
1.183
1.18376
1.18438
1.18489
1.1853
1.18565
1.18593
1.18617
1.18637
1.18653
1.18667
1.18678
1.18688
1.18695
1.18701
1.18706
1.18709
1.18712
1.18713
1.18713
1.18713
1.18712
1.1871
1.18707
1.18704
1.18701
1.18697
1.18692
1.18687
1.18681
1.18675
1.18669
1.18662
1.18656
1.18648
1.18641
1.18633
1.18626
1.18618
1.1861
1.18602
1.18594
1.18586
1.18578
1.18571
1.18563
1.18556
1.18549
1.18542
1.18536
1.1853
1.18525
1.1852
1.18516
1.18512
1.18509
1.18506
1.18505
1.18504
1.18503
1.18504
1.18505
1.18507
1.1851
1.18514
1.18519
1.18524
1.18531
1.18538
1.18547
1.18556
1.18566
1.18576
1.18588
1.18601
1.18614
1.18628
1.18643
1.18659
1.18675
1.18692
1.1871
1.18728
1.18747
1.18766
1.18785
1.18805
1.18825
1.18845
1.18866
1.18886
1.18907
1.18927
1.18948
1.18968
1.18988
1.19008
1.19027
1.19046
1.19065
1.19083
1.191
1.19117
1.19133
1.19148
1.19163
1.19176
1.19189
1.19201
1.19212
1.19222
1.19231
1.19239
1.19246
1.19252
1.19258
1.19262
1.19266
1.19269
1.19272
1.19273
1.19275
1.19275
1.19275
1.19275
1.19274
1.19273
1.19272
1.1927
1.19268
1.19266
1.19264
1.19261
1.19258
1.19255
1.19252
1.19249
1.19246
1.19243
1.1924
1.19236
1.19233
1.19229
1.19226
1.19222
1.19218
1.19215
1.19211
1.19207
1.19203
1.19199
1.19195
1.19191
1.19187
1.19183
1.19178
1.19174
1.1917
1.19165
1.19161
1.19156
1.19151
1.19147
1.19142
1.19137
1.19132
1.19127
1.19122
1.19117
1.19112
1.19107
1.19102
1.19096
1.19091
1.19086
1.19081
1.19075
1.1907
1.19065
1.1906
1.19054
1.19049
1.19044
1.19039
1.19034
1.19029
1.19023
1.19019
1.19014
1.19009
1.19004
1.18999
1.18995
1.1899
1.18986
1.18981
1.18977
1.18973
1.18969
1.18965
1.18961
1.18958
1.18954
1.18951
1.18947
1.18944
1.18941
1.18938
1.18935
1.18933
1.1893
1.18928
1.18926
1.18924
1.18922
1.18921
1.18919
1.18918
1.18917
1.18917
1.18916
1.18916
1.18916
1.18916
1.18917
1.18918
1.1892
1.18921
1.18923
1.18926
1.18929
1.18933
1.18936
1.18941
1.18946
1.18951
1.18958
1.18964
1.18972
1.1898
1.18988
1.18998
1.19008
1.19018
1.1903
1.19042
1.19055
1.19069
1.19083
1.19098
1.19114
1.19131
1.19148
1.19167
1.19185
1.19205
1.19225
1.19245
1.19266
1.19288
1.1931
1.19332
1.19355
1.19378
1.19401
1.19424
1.19447
1.1947
1.19493
1.19516
1.19538
1.1956
1.19581
1.19602
1.19623
1.19643
1.19662
1.19681
1.19699
1.19716
1.19733
1.19749
1.19764
1.19779
1.19793
1.19806
1.19819
1.19831
1.19843
1.19854
1.19865
1.19876
1.19886
1.19895
1.19905
1.19914
1.19923
1.19931
1.1994
1.19948
1.19956
1.19964
1.19971
1.19979
1.19986
1.19993
1.2
1.20007
1.20013
1.20019
1.20025
1.20031
1.20036
1.20041
1.20046
1.20051
1.20055
1.20059
1.20063
1.20066
1.20069
1.20072
1.20075
1.20078
1.2008
1.20083
1.20086
1.20088
1.20091
1.20094
1.20098
1.20101
1.20105
1.2011
1.20115
1.20121
1.20128
1.20136
1.20144
1.20154
1.20165
1.20177
1.2019
1.20205
1.20221
1.20239
1.20259
1.2028
1.20304
1.2033
1.20357
1.20387
1.20419
1.20454
1.20491
1.20531
1.20573
1.20618
1.20666
1.20717
1.20771
1.20829
1.20889
1.20953
1.21021
1.21093
1.21168
1.21247
1.21331
1.2142
1.21513
1.21612
1.21717
1.21828
1.21946
1.22071
1.22206
1.2235
1.22505
1.22674
1.22859
1.23061
1.23285
1.23535
1.23816
1.24132
1.24487
1.24878
1.2528
1.25639
1.25884
1.25818
1.17735
1.17685
1.177
1.17781
1.17887
1.18001
1.1811
1.18205
1.18287
1.18357
1.18415
1.18464
1.18506
1.1854
1.1857
1.18595
1.18615
1.18633
1.18648
1.1866
1.18671
1.18679
1.18686
1.18692
1.18696
1.18699
1.18701
1.18702
1.18702
1.18701
1.187
1.18698
1.18695
1.18692
1.18688
1.18684
1.18679
1.18674
1.18668
1.18662
1.18656
1.18649
1.18642
1.18635
1.18628
1.1862
1.18613
1.18605
1.18597
1.18589
1.18581
1.18574
1.18566
1.18559
1.18552
1.18545
1.18538
1.18532
1.18527
1.18521
1.18517
1.18512
1.18509
1.18506
1.18504
1.18502
1.18501
1.18501
1.18502
1.18503
1.18505
1.18509
1.18513
1.18518
1.18523
1.1853
1.18538
1.18546
1.18555
1.18566
1.18577
1.18589
1.18601
1.18615
1.18629
1.18644
1.1866
1.18677
1.18694
1.18712
1.1873
1.18749
1.18768
1.18788
1.18808
1.18828
1.18849
1.18869
1.1889
1.1891
1.18931
1.18952
1.18972
1.18992
1.19012
1.19031
1.1905
1.19069
1.19087
1.19104
1.19121
1.19137
1.19152
1.19166
1.1918
1.19192
1.19204
1.19214
1.19224
1.19233
1.19241
1.19248
1.19253
1.19259
1.19263
1.19267
1.19269
1.19271
1.19273
1.19274
1.19274
1.19274
1.19274
1.19273
1.19271
1.1927
1.19268
1.19266
1.19264
1.19261
1.19259
1.19256
1.19253
1.1925
1.19247
1.19244
1.1924
1.19237
1.19234
1.1923
1.19227
1.19223
1.1922
1.19216
1.19212
1.19208
1.19205
1.19201
1.19197
1.19193
1.19189
1.19185
1.19181
1.19176
1.19172
1.19168
1.19163
1.19159
1.19154
1.1915
1.19145
1.1914
1.19135
1.19131
1.19126
1.19121
1.19116
1.19111
1.19106
1.19101
1.19095
1.1909
1.19085
1.1908
1.19074
1.19069
1.19064
1.19059
1.19054
1.19048
1.19043
1.19038
1.19033
1.19028
1.19023
1.19018
1.19013
1.19008
1.19003
1.18999
1.18994
1.1899
1.18985
1.18981
1.18977
1.18973
1.18968
1.18965
1.18961
1.18957
1.18953
1.1895
1.18947
1.18943
1.1894
1.18937
1.18935
1.18932
1.1893
1.18927
1.18925
1.18923
1.18921
1.1892
1.18918
1.18917
1.18916
1.18915
1.18915
1.18915
1.18915
1.18915
1.18916
1.18917
1.18918
1.1892
1.18922
1.18925
1.18928
1.18931
1.18935
1.1894
1.18945
1.1895
1.18956
1.18963
1.18971
1.18979
1.18987
1.18997
1.19007
1.19018
1.19029
1.19042
1.19055
1.19069
1.19083
1.19099
1.19115
1.19132
1.19149
1.19168
1.19186
1.19206
1.19226
1.19247
1.19269
1.1929
1.19313
1.19335
1.19358
1.19381
1.19404
1.19428
1.19451
1.19474
1.19497
1.1952
1.19543
1.19565
1.19586
1.19607
1.19628
1.19648
1.19667
1.19686
1.19704
1.19721
1.19738
1.19753
1.19769
1.19783
1.19797
1.1981
1.19823
1.19835
1.19846
1.19858
1.19868
1.19878
1.19888
1.19898
1.19907
1.19916
1.19925
1.19933
1.19942
1.1995
1.19958
1.19966
1.19973
1.19981
1.19988
1.19995
1.20002
1.20008
1.20015
1.20021
1.20027
1.20032
1.20038
1.20043
1.20048
1.20052
1.20056
1.2006
1.20064
1.20067
1.2007
1.20073
1.20076
1.20078
1.20081
1.20083
1.20086
1.20088
1.20091
1.20094
1.20097
1.201
1.20104
1.20109
1.20114
1.2012
1.20126
1.20134
1.20142
1.20151
1.20162
1.20174
1.20187
1.20202
1.20218
1.20236
1.20256
1.20277
1.20301
1.20326
1.20354
1.20384
1.20416
1.2045
1.20487
1.20527
1.20569
1.20614
1.20662
1.20713
1.20767
1.20825
1.20885
1.20949
1.21017
1.21088
1.21163
1.21242
1.21325
1.21413
1.21506
1.21604
1.21707
1.21817
1.21933
1.22056
1.22188
1.22328
1.22479
1.22642
1.22818
1.23009
1.23219
1.23448
1.23699
1.23973
1.24264
1.24562
1.24843
1.25059
1.25168
1.25141
1.17937
1.17884
1.17884
1.17925
1.17989
1.18067
1.18147
1.18222
1.18291
1.18352
1.18404
1.1845
1.18489
1.18523
1.18552
1.18577
1.18598
1.18616
1.18632
1.18645
1.18656
1.18665
1.18673
1.18679
1.18683
1.18687
1.1869
1.18691
1.18692
1.18692
1.18691
1.18689
1.18687
1.18684
1.18681
1.18677
1.18672
1.18667
1.18662
1.18656
1.1865
1.18643
1.18637
1.1863
1.18622
1.18615
1.18608
1.186
1.18592
1.18585
1.18577
1.18569
1.18562
1.18555
1.18548
1.18541
1.18535
1.18529
1.18523
1.18518
1.18513
1.18509
1.18505
1.18503
1.185
1.18499
1.18498
1.18498
1.18499
1.18501
1.18503
1.18507
1.18511
1.18516
1.18522
1.18529
1.18536
1.18545
1.18555
1.18565
1.18576
1.18588
1.18601
1.18615
1.1863
1.18645
1.18661
1.18678
1.18695
1.18713
1.18732
1.18751
1.18771
1.1879
1.18811
1.18831
1.18852
1.18872
1.18893
1.18914
1.18935
1.18955
1.18976
1.18996
1.19016
1.19035
1.19054
1.19073
1.19091
1.19108
1.19125
1.19141
1.19156
1.1917
1.19183
1.19196
1.19207
1.19218
1.19227
1.19236
1.19243
1.1925
1.19256
1.1926
1.19264
1.19268
1.1927
1.19272
1.19273
1.19274
1.19274
1.19273
1.19273
1.19272
1.1927
1.19268
1.19266
1.19264
1.19262
1.19259
1.19256
1.19254
1.19251
1.19248
1.19244
1.19241
1.19238
1.19235
1.19231
1.19228
1.19224
1.19221
1.19217
1.19213
1.1921
1.19206
1.19202
1.19198
1.19195
1.19191
1.19187
1.19183
1.19178
1.19174
1.1917
1.19166
1.19161
1.19157
1.19152
1.19148
1.19143
1.19139
1.19134
1.19129
1.19124
1.19119
1.19114
1.19109
1.19104
1.19099
1.19094
1.19089
1.19084
1.19079
1.19073
1.19068
1.19063
1.19058
1.19053
1.19048
1.19042
1.19037
1.19032
1.19027
1.19022
1.19017
1.19012
1.19008
1.19003
1.18998
1.18994
1.18989
1.18985
1.1898
1.18976
1.18972
1.18968
1.18964
1.1896
1.18956
1.18953
1.18949
1.18946
1.18943
1.1894
1.18937
1.18934
1.18931
1.18929
1.18926
1.18924
1.18922
1.1892
1.18919
1.18917
1.18916
1.18915
1.18914
1.18914
1.18913
1.18913
1.18914
1.18914
1.18915
1.18917
1.18918
1.18921
1.18923
1.18926
1.1893
1.18933
1.18938
1.18943
1.18949
1.18955
1.18961
1.18969
1.18977
1.18986
1.18995
1.19005
1.19016
1.19028
1.1904
1.19054
1.19068
1.19082
1.19098
1.19114
1.19131
1.19149
1.19168
1.19187
1.19207
1.19227
1.19248
1.1927
1.19292
1.19315
1.19338
1.19361
1.19384
1.19408
1.19431
1.19455
1.19478
1.19502
1.19525
1.19547
1.1957
1.19592
1.19613
1.19633
1.19654
1.19673
1.19692
1.19709
1.19727
1.19743
1.19759
1.19774
1.19788
1.19802
1.19815
1.19827
1.19839
1.1985
1.19861
1.19872
1.19882
1.19892
1.19901
1.1991
1.19919
1.19928
1.19936
1.19944
1.19952
1.1996
1.19968
1.19975
1.19983
1.1999
1.19997
1.20004
1.20011
1.20017
1.20023
1.20029
1.20035
1.2004
1.20045
1.2005
1.20054
1.20058
1.20062
1.20066
1.20069
1.20072
1.20074
1.20077
1.20079
1.20082
1.20084
1.20086
1.20088
1.20091
1.20093
1.20096
1.20099
1.20103
1.20107
1.20112
1.20118
1.20124
1.20131
1.20139
1.20149
1.20159
1.20171
1.20184
1.20198
1.20214
1.20232
1.20251
1.20273
1.20296
1.20321
1.20349
1.20378
1.2041
1.20445
1.20482
1.20521
1.20563
1.20608
1.20656
1.20707
1.20761
1.20817
1.20878
1.20941
1.21008
1.21079
1.21154
1.21232
1.21315
1.21402
1.21493
1.2159
1.21691
1.21799
1.21912
1.22032
1.2216
1.22296
1.2244
1.22595
1.22761
1.2294
1.23132
1.23338
1.23558
1.23788
1.24021
1.24244
1.24438
1.24575
1.24629
1.24605
1.18077
1.18032
1.18022
1.18041
1.18081
1.18134
1.18192
1.1825
1.18306
1.18357
1.18403
1.18444
1.1848
1.18512
1.1854
1.18564
1.18585
1.18603
1.18618
1.18632
1.18643
1.18652
1.1866
1.18667
1.18672
1.18676
1.18679
1.18681
1.18682
1.18683
1.18682
1.18681
1.18679
1.18676
1.18673
1.1867
1.18665
1.18661
1.18655
1.1865
1.18644
1.18638
1.18631
1.18624
1.18617
1.1861
1.18602
1.18595
1.18587
1.1858
1.18572
1.18565
1.18557
1.1855
1.18543
1.18537
1.1853
1.18524
1.18519
1.18514
1.18509
1.18505
1.18502
1.18499
1.18497
1.18496
1.18495
1.18495
1.18496
1.18498
1.18501
1.18504
1.18509
1.18514
1.1852
1.18527
1.18535
1.18544
1.18553
1.18564
1.18576
1.18588
1.18601
1.18615
1.1863
1.18646
1.18662
1.18679
1.18697
1.18715
1.18734
1.18753
1.18773
1.18793
1.18813
1.18834
1.18855
1.18876
1.18897
1.18918
1.18939
1.18959
1.1898
1.19
1.1902
1.1904
1.19059
1.19078
1.19096
1.19113
1.1913
1.19146
1.19161
1.19175
1.19188
1.192
1.19212
1.19222
1.19231
1.19239
1.19246
1.19253
1.19258
1.19263
1.19266
1.19269
1.19271
1.19273
1.19273
1.19274
1.19274
1.19273
1.19272
1.19271
1.19269
1.19267
1.19265
1.19262
1.1926
1.19257
1.19254
1.19251
1.19248
1.19245
1.19242
1.19239
1.19235
1.19232
1.19229
1.19225
1.19222
1.19218
1.19214
1.19211
1.19207
1.19204
1.192
1.19196
1.19192
1.19188
1.19184
1.1918
1.19176
1.19172
1.19168
1.19164
1.19159
1.19155
1.19151
1.19146
1.19141
1.19137
1.19132
1.19127
1.19123
1.19118
1.19113
1.19108
1.19103
1.19098
1.19093
1.19088
1.19083
1.19077
1.19072
1.19067
1.19062
1.19057
1.19052
1.19047
1.19041
1.19036
1.19031
1.19026
1.19021
1.19016
1.19012
1.19007
1.19002
1.18997
1.18993
1.18988
1.18984
1.1898
1.18975
1.18971
1.18967
1.18963
1.18959
1.18956
1.18952
1.18948
1.18945
1.18942
1.18939
1.18936
1.18933
1.1893
1.18927
1.18925
1.18923
1.18921
1.18919
1.18917
1.18916
1.18914
1.18913
1.18912
1.18912
1.18912
1.18912
1.18912
1.18912
1.18913
1.18915
1.18916
1.18918
1.18921
1.18924
1.18927
1.18931
1.18936
1.18941
1.18946
1.18952
1.18959
1.18967
1.18975
1.18984
1.18993
1.19003
1.19014
1.19026
1.19039
1.19052
1.19066
1.19081
1.19097
1.19113
1.19131
1.19149
1.19167
1.19187
1.19207
1.19228
1.19249
1.19271
1.19294
1.19317
1.1934
1.19363
1.19387
1.19411
1.19435
1.19459
1.19483
1.19506
1.1953
1.19553
1.19575
1.19597
1.19619
1.1964
1.1966
1.19679
1.19698
1.19716
1.19733
1.19749
1.19765
1.1978
1.19794
1.19807
1.1982
1.19832
1.19844
1.19855
1.19866
1.19876
1.19886
1.19895
1.19905
1.19913
1.19922
1.19931
1.19939
1.19947
1.19955
1.19963
1.19971
1.19978
1.19986
1.19993
1.2
1.20007
1.20013
1.2002
1.20026
1.20032
1.20037
1.20043
1.20048
1.20052
1.20057
1.20061
1.20064
1.20068
1.20071
1.20074
1.20076
1.20078
1.20081
1.20083
1.20085
1.20087
1.20089
1.20091
1.20093
1.20096
1.20099
1.20102
1.20106
1.2011
1.20116
1.20122
1.20128
1.20136
1.20145
1.20155
1.20167
1.20179
1.20194
1.20209
1.20227
1.20246
1.20267
1.2029
1.20315
1.20342
1.20372
1.20403
1.20438
1.20474
1.20513
1.20555
1.206
1.20647
1.20698
1.20751
1.20808
1.20867
1.2093
1.20997
1.21067
1.21141
1.21218
1.213
1.21385
1.21475
1.2157
1.21669
1.21774
1.21884
1.22001
1.22124
1.22254
1.22391
1.22537
1.22692
1.22856
1.2303
1.23212
1.23401
1.23592
1.23777
1.23945
1.2408
1.24169
1.24199
1.24166
1.1818
1.18142
1.18129
1.18136
1.1816
1.18196
1.18238
1.18282
1.18327
1.18369
1.18408
1.18444
1.18477
1.18506
1.18532
1.18555
1.18575
1.18592
1.18608
1.18621
1.18632
1.18642
1.1865
1.18657
1.18662
1.18667
1.1867
1.18672
1.18674
1.18674
1.18674
1.18673
1.18672
1.18669
1.18666
1.18663
1.18659
1.18654
1.18649
1.18644
1.18638
1.18632
1.18626
1.18619
1.18612
1.18605
1.18598
1.1859
1.18583
1.18575
1.18568
1.18561
1.18553
1.18546
1.18539
1.18533
1.18526
1.18521
1.18515
1.1851
1.18505
1.18502
1.18498
1.18496
1.18494
1.18492
1.18492
1.18492
1.18493
1.18495
1.18498
1.18502
1.18506
1.18512
1.18518
1.18525
1.18533
1.18542
1.18552
1.18563
1.18574
1.18587
1.186
1.18615
1.1863
1.18646
1.18662
1.18679
1.18697
1.18716
1.18735
1.18755
1.18775
1.18795
1.18816
1.18837
1.18858
1.18879
1.189
1.18921
1.18942
1.18963
1.18984
1.19004
1.19025
1.19044
1.19064
1.19082
1.19101
1.19118
1.19135
1.19151
1.19166
1.1918
1.19193
1.19205
1.19216
1.19226
1.19235
1.19243
1.1925
1.19256
1.19261
1.19265
1.19268
1.19271
1.19273
1.19274
1.19274
1.19274
1.19274
1.19273
1.19271
1.1927
1.19268
1.19266
1.19263
1.19261
1.19258
1.19255
1.19252
1.19249
1.19246
1.19243
1.19239
1.19236
1.19233
1.19229
1.19226
1.19222
1.19219
1.19215
1.19212
1.19208
1.19205
1.19201
1.19197
1.19193
1.1919
1.19186
1.19182
1.19178
1.19174
1.1917
1.19166
1.19162
1.19157
1.19153
1.19148
1.19144
1.1914
1.19135
1.1913
1.19126
1.19121
1.19116
1.19111
1.19106
1.19101
1.19096
1.19091
1.19086
1.19081
1.19076
1.19071
1.19066
1.19061
1.19056
1.19051
1.19046
1.1904
1.19035
1.1903
1.19025
1.1902
1.19016
1.19011
1.19006
1.19001
1.18997
1.18992
1.18988
1.18983
1.18979
1.18975
1.1897
1.18966
1.18962
1.18958
1.18955
1.18951
1.18947
1.18944
1.18941
1.18938
1.18934
1.18932
1.18929
1.18926
1.18924
1.18921
1.18919
1.18917
1.18915
1.18914
1.18913
1.18911
1.1891
1.1891
1.18909
1.18909
1.18909
1.1891
1.18911
1.18912
1.18914
1.18916
1.18918
1.18921
1.18924
1.18928
1.18933
1.18938
1.18943
1.18949
1.18956
1.18964
1.18972
1.18981
1.1899
1.19
1.19011
1.19023
1.19036
1.19049
1.19064
1.19079
1.19095
1.19111
1.19129
1.19147
1.19166
1.19186
1.19206
1.19228
1.19249
1.19272
1.19295
1.19318
1.19342
1.19366
1.1939
1.19414
1.19439
1.19463
1.19487
1.19511
1.19535
1.19558
1.19581
1.19603
1.19625
1.19646
1.19666
1.19686
1.19704
1.19722
1.19739
1.19756
1.19771
1.19786
1.198
1.19813
1.19826
1.19838
1.19849
1.1986
1.19871
1.19881
1.1989
1.199
1.19909
1.19917
1.19926
1.19934
1.19942
1.19951
1.19958
1.19966
1.19974
1.19981
1.19989
1.19996
1.20003
1.2001
1.20016
1.20023
1.20029
1.20035
1.20041
1.20046
1.20051
1.20055
1.2006
1.20064
1.20067
1.20071
1.20073
1.20076
1.20078
1.2008
1.20082
1.20084
1.20086
1.20088
1.20089
1.20091
1.20093
1.20095
1.20098
1.20101
1.20104
1.20108
1.20113
1.20119
1.20125
1.20133
1.20141
1.20151
1.20162
1.20175
1.20188
1.20204
1.20221
1.2024
1.2026
1.20283
1.20308
1.20335
1.20364
1.20395
1.20429
1.20465
1.20504
1.20545
1.20589
1.20636
1.20686
1.20739
1.20795
1.20854
1.20916
1.20982
1.21051
1.21124
1.212
1.2128
1.21364
1.21452
1.21545
1.21642
1.21743
1.2185
1.21962
1.22079
1.22203
1.22333
1.22469
1.22612
1.22762
1.22917
1.23077
1.23238
1.23395
1.23542
1.23669
1.23766
1.23824
1.23839
1.23804
1.18259
1.18227
1.18213
1.18214
1.18228
1.18252
1.18282
1.18316
1.18351
1.18385
1.18418
1.1845
1.18478
1.18504
1.18528
1.18549
1.18568
1.18585
1.18599
1.18612
1.18623
1.18633
1.18641
1.18648
1.18654
1.18658
1.18662
1.18664
1.18666
1.18667
1.18667
1.18666
1.18664
1.18662
1.1866
1.18656
1.18653
1.18648
1.18644
1.18638
1.18633
1.18627
1.18621
1.18614
1.18607
1.186
1.18593
1.18586
1.18578
1.18571
1.18564
1.18556
1.18549
1.18542
1.18535
1.18529
1.18522
1.18517
1.18511
1.18506
1.18502
1.18498
1.18495
1.18492
1.1849
1.18489
1.18489
1.18489
1.1849
1.18492
1.18495
1.18499
1.18504
1.18509
1.18516
1.18523
1.18531
1.18541
1.18551
1.18562
1.18573
1.18586
1.186
1.18614
1.18629
1.18645
1.18662
1.1868
1.18698
1.18717
1.18736
1.18756
1.18777
1.18797
1.18818
1.18839
1.18861
1.18882
1.18903
1.18925
1.18946
1.18967
1.18988
1.19009
1.19029
1.19049
1.19068
1.19087
1.19106
1.19123
1.1914
1.19156
1.19171
1.19185
1.19198
1.1921
1.19221
1.19231
1.1924
1.19248
1.19254
1.1926
1.19264
1.19268
1.19271
1.19273
1.19274
1.19275
1.19275
1.19275
1.19274
1.19273
1.19271
1.19269
1.19267
1.19264
1.19262
1.19259
1.19256
1.19253
1.1925
1.19247
1.19243
1.1924
1.19237
1.19233
1.1923
1.19227
1.19223
1.1922
1.19216
1.19213
1.19209
1.19206
1.19202
1.19198
1.19195
1.19191
1.19187
1.19183
1.19179
1.19175
1.19171
1.19167
1.19163
1.19159
1.19155
1.19151
1.19146
1.19142
1.19138
1.19133
1.19128
1.19124
1.19119
1.19114
1.1911
1.19105
1.191