# vtk DataFile Version 2.0
LBE mesh
ASCII
DATASET STRUCTURED_POINTS
DIMENSIONS 400 100 1
ASPECT_RATIO 1 1 1
ORIGIN 0 0 0
POINT_DATA 40000
SCALARS rho double 1
LOOKUP_TABLE default
0.941752
0.971577
0.981026
0.984782
0.987021
0.988454
0.989326
0.989845
0.990146
0.990308
0.990373
0.990369
0.990314
0.990224
0.990108
0.989976
0.989833
0.989684
0.989533
0.989385
0.989241
0.989105
0.988978
0.988864
0.988762
0.988677
0.988608
0.988559
0.98853
0.988523
0.988537
0.988577
0.98864
0.98873
0.988845
0.988988
0.989156
0.989352
0.989573
0.989821
0.990093
0.99039
0.990709
0.991052
0.991414
0.991796
0.992195
0.99261
0.993039
0.993481
0.993932
0.994394
0.994861
0.995335
0.995811
0.996292
0.996772
0.997252
0.997731
0.998207
0.99868
0.999149
0.999612
1.00007
1.00052
1.00097
1.00141
1.00185
1.00228
1.00271
1.00313
1.00355
1.00396
1.00437
1.00478
1.00518
1.00559
1.00599
1.00639
1.0068
1.0072
1.0076
1.008
1.0084
1.00879
1.00919
1.00958
1.00997
1.01036
1.01074
1.01111
1.01148
1.01184
1.01219
1.01254
1.01287
1.01319
1.01351
1.01381
1.0141
1.01437
1.01463
1.01488
1.01511
1.01533
1.01554
1.01573
1.01591
1.01608
1.01623
1.01637
1.0165
1.01662
1.01673
1.01683
1.01692
1.01701
1.01708
1.01716
1.01723
1.01729
1.01735
1.01741
1.01747
1.01752
1.01758
1.01763
1.01769
1.01774
1.01779
1.01785
1.0179
1.01795
1.018
1.01805
1.01809
1.01814
1.01818
1.01823
1.01827
1.01831
1.01835
1.0184
1.01844
1.01849
1.01854
1.0186
1.01866
1.01873
1.0188
1.01888
1.01897
1.01907
1.01918
1.0193
1.01943
1.01958
1.01974
1.01991
1.02009
1.02028
1.02049
1.02072
1.02095
1.0212
1.02147
1.02174
1.02203
1.02233
1.02264
1.02296
1.02329
1.02362
1.02397
1.02432
1.02467
1.02503
1.0254
1.02576
1.02613
1.02649
1.02686
1.02722
1.02758
1.02793
1.02828
1.02862
1.02896
1.02928
1.0296
1.0299
1.0302
1.03048
1.03075
1.03101
1.03125
1.03148
1.0317
1.03189
1.03208
1.03224
1.0324
1.03253
1.03265
1.03276
1.03285
1.03293
1.03299
1.03304
1.03308
1.03311
1.03313
1.03315
1.03315
1.03315
1.03314
1.03312
1.03311
1.03309
1.03307
1.03305
1.03303
1.03302
1.033
1.033
1.033
1.03301
1.03303
1.03305
1.03309
1.03315
1.03321
1.03329
1.03339
1.0335
1.03363
1.03378
1.03395
1.03413
1.03434
1.03456
1.0348
1.03506
1.03534
1.03564
1.03596
1.03629
1.03664
1.037
1.03738
1.03777
1.03818
1.0386
1.03903
1.03947
1.03992
1.04038
1.04085
1.04132
1.04181
1.0423
1.04279
1.04329
1.04379
1.0443
1.04481
1.04532
1.04584
1.04635
1.04686
1.04737
1.04788
1.04839
1.0489
1.0494
1.0499
1.05039
1.05088
1.05136
1.05184
1.05231
1.05277
1.05322
1.05367
1.0541
1.05453
1.05495
1.05535
1.05575
1.05613
1.0565
1.05685
1.0572
1.05752
1.05784
1.05813
1.05842
1.05868
1.05893
1.05917
1.05939
1.0596
1.05979
1.05996
1.06013
1.06028
1.06042
1.06055
1.06067
1.06079
1.0609
1.06101
1.06111
1.06122
1.06133
1.06144
1.06155
1.06167
1.0618
1.06194
1.06208
1.06224
1.0624
1.06257
1.06275
1.06294
1.06314
1.06334
1.06355
1.06375
1.06396
1.06416
1.06436
1.06455
1.06473
1.0649
1.06505
1.06519
1.06531
1.06541
1.06549
1.06555
1.06559
1.0656
1.0656
1.06558
1.06555
1.0655
1.06543
1.06536
1.06529
1.06521
1.06512
1.06505
1.06497
1.0649
1.06484
1.0648
1.06476
1.06474
1.06473
1.06474
1.06477
1.06481
1.06487
1.06495
1.06506
1.06518
1.06533
1.0655
1.06571
1.06594
1.06621
1.06652
1.06686
1.06726
1.0677
1.0682
1.06875
1.06937
1.07007
1.07084
1.0717
1.07266
1.07372
1.0749
1.07621
1.07767
1.0793
1.08112
1.08318
1.08553
1.08824
1.09142
1.09524
1.10011
1.10704
1.11685
1.12861
1.14699
0.953112
0.967222
0.976658
0.982207
0.985209
0.986982
0.988115
0.98886
0.989337
0.989634
0.989802
0.989881
0.989894
0.989861
0.989793
0.989702
0.989593
0.989475
0.98935
0.989226
0.989102
0.988985
0.988873
0.988774
0.988686
0.988613
0.988555
0.988517
0.988496
0.988498
0.988521
0.988568
0.988638
0.988735
0.988856
0.989005
0.989178
0.989379
0.989604
0.989856
0.990131
0.990432
0.990754
0.991099
0.991462
0.991846
0.992246
0.992662
0.99309
0.993533
0.993983
0.994444
0.99491
0.995384
0.995859
0.996338
0.996816
0.997296
0.997773
0.998248
0.998719
0.999188
0.99965
1.00011
1.00056
1.00101
1.00145
1.00188
1.00231
1.00274
1.00316
1.00358
1.00399
1.0044
1.00481
1.00522
1.00562
1.00603
1.00643
1.00683
1.00723
1.00764
1.00803
1.00843
1.00883
1.00923
1.00962
1.01001
1.01039
1.01077
1.01115
1.01152
1.01188
1.01223
1.01257
1.01291
1.01323
1.01354
1.01384
1.01413
1.0144
1.01466
1.01491
1.01514
1.01536
1.01556
1.01576
1.01593
1.0161
1.01625
1.01639
1.01652
1.01664
1.01675
1.01685
1.01694
1.01702
1.0171
1.01717
1.01724
1.0173
1.01736
1.01742
1.01748
1.01753
1.01759
1.01764
1.0177
1.01775
1.01781
1.01786
1.01791
1.01796
1.01801
1.01806
1.01811
1.01816
1.0182
1.01825
1.01829
1.01834
1.01838
1.01843
1.01848
1.01852
1.01858
1.01864
1.0187
1.01877
1.01884
1.01893
1.01902
1.01912
1.01923
1.01935
1.01949
1.01963
1.01979
1.01996
1.02014
1.02034
1.02055
1.02077
1.021
1.02125
1.02151
1.02179
1.02207
1.02237
1.02267
1.02299
1.02331
1.02365
1.02399
1.02433
1.02469
1.02504
1.0254
1.02577
1.02613
1.02649
1.02686
1.02722
1.02757
1.02792
1.02827
1.02861
1.02895
1.02927
1.02959
1.02989
1.03019
1.03047
1.03074
1.031
1.03124
1.03147
1.03168
1.03188
1.03206
1.03223
1.03238
1.03252
1.03264
1.03275
1.03284
1.03292
1.03299
1.03304
1.03309
1.03312
1.03314
1.03315
1.03316
1.03316
1.03315
1.03313
1.03312
1.0331
1.03308
1.03306
1.03304
1.03303
1.03302
1.03301
1.03301
1.03302
1.03304
1.03307
1.0331
1.03316
1.03322
1.03331
1.0334
1.03352
1.03365
1.0338
1.03397
1.03415
1.03436
1.03458
1.03483
1.03509
1.03537
1.03567
1.03599
1.03632
1.03667
1.03703
1.03741
1.03781
1.03821
1.03863
1.03906
1.0395
1.03996
1.04042
1.04089
1.04136
1.04185
1.04234
1.04283
1.04334
1.04384
1.04435
1.04486
1.04537
1.04589
1.0464
1.04692
1.04743
1.04794
1.04845
1.04895
1.04946
1.04995
1.05045
1.05094
1.05142
1.05189
1.05236
1.05282
1.05328
1.05372
1.05415
1.05458
1.05499
1.0554
1.05579
1.05617
1.05654
1.05689
1.05723
1.05756
1.05787
1.05816
1.05845
1.05871
1.05896
1.05919
1.05941
1.05962
1.05981
1.05998
1.06015
1.0603
1.06044
1.06057
1.06069
1.06081
1.06092
1.06103
1.06114
1.06124
1.06135
1.06146
1.06158
1.0617
1.06183
1.06197
1.06211
1.06227
1.06243
1.0626
1.06278
1.06297
1.06317
1.06337
1.06357
1.06377
1.06398
1.06418
1.06437
1.06456
1.06474
1.06491
1.06506
1.06519
1.06531
1.06541
1.06548
1.06554
1.06558
1.06559
1.06559
1.06557
1.06554
1.06549
1.06543
1.06536
1.06528
1.0652
1.06512
1.06505
1.06497
1.06491
1.06485
1.06481
1.06477
1.06475
1.06475
1.06476
1.06478
1.06483
1.06489
1.06498
1.06508
1.06521
1.06536
1.06553
1.06574
1.06598
1.06625
1.06656
1.06691
1.06731
1.06776
1.06827
1.06884
1.06947
1.07018
1.07097
1.07185
1.07283
1.07391
1.07512
1.07647
1.07797
1.07964
1.08153
1.08367
1.08612
1.08896
1.09234
1.09648
1.10166
1.1082
1.11741
1.13423
1.16235
0.96927
0.972251
0.977384
0.981405
0.984119
0.985983
0.98725
0.988108
0.988685
0.98907
0.989314
0.989458
0.989526
0.989541
0.989513
0.989458
0.98938
0.98929
0.989189
0.989087
0.988982
0.988883
0.988788
0.988703
0.988628
0.988568
0.988522
0.988494
0.988484
0.988495
0.988527
0.988583
0.988661
0.988766
0.988894
0.989049
0.989228
0.989434
0.989665
0.989921
0.9902
0.990504
0.990829
0.991176
0.991541
0.991926
0.992326
0.992743
0.993171
0.993612
0.994062
0.994522
0.994986
0.995457
0.995931
0.996408
0.996884
0.997362
0.997836
0.99831
0.998779
0.999245
0.999706
1.00016
1.00061
1.00106
1.0015
1.00193
1.00236
1.00279
1.00321
1.00363
1.00404
1.00445
1.00486
1.00527
1.00567
1.00608
1.00648
1.00689
1.00729
1.00769
1.00809
1.00849
1.00889
1.00928
1.00968
1.01007
1.01045
1.01083
1.01121
1.01158
1.01193
1.01229
1.01263
1.01296
1.01329
1.0136
1.0139
1.01418
1.01446
1.01472
1.01496
1.0152
1.01542
1.01562
1.01581
1.01599
1.01616
1.01631
1.01645
1.01658
1.0167
1.0168
1.0169
1.01699
1.01708
1.01715
1.01722
1.01729
1.01735
1.01741
1.01747
1.01753
1.01758
1.01764
1.01769
1.01775
1.0178
1.01785
1.0179
1.01796
1.01801
1.01806
1.01811
1.01816
1.0182
1.01825
1.0183
1.01834
1.01839
1.01844
1.01848
1.01853
1.01858
1.01864
1.0187
1.01876
1.01883
1.01891
1.01899
1.01909
1.01919
1.0193
1.01943
1.01956
1.0197
1.01986
1.02003
1.02021
1.02041
1.02062
1.02084
1.02107
1.02131
1.02157
1.02184
1.02212
1.02241
1.02272
1.02303
1.02335
1.02368
1.02402
1.02436
1.02471
1.02507
1.02542
1.02578
1.02614
1.0265
1.02687
1.02722
1.02758
1.02793
1.02828
1.02862
1.02895
1.02927
1.02959
1.02989
1.03019
1.03047
1.03074
1.03099
1.03124
1.03147
1.03168
1.03188
1.03206
1.03223
1.03238
1.03252
1.03264
1.03275
1.03285
1.03293
1.033
1.03305
1.0331
1.03313
1.03316
1.03317
1.03318
1.03318
1.03317
1.03316
1.03314
1.03312
1.0331
1.03308
1.03306
1.03305
1.03304
1.03303
1.03303
1.03304
1.03306
1.03308
1.03313
1.03318
1.03325
1.03333
1.03343
1.03354
1.03368
1.03383
1.034
1.03419
1.0344
1.03462
1.03487
1.03513
1.03542
1.03572
1.03603
1.03637
1.03672
1.03709
1.03747
1.03786
1.03827
1.03869
1.03912
1.03956
1.04001
1.04047
1.04094
1.04142
1.04191
1.0424
1.04289
1.0434
1.0439
1.04441
1.04492
1.04544
1.04595
1.04647
1.04698
1.0475
1.04801
1.04852
1.04903
1.04953
1.05003
1.05052
1.05101
1.05149
1.05197
1.05244
1.0529
1.05335
1.05379
1.05422
1.05465
1.05506
1.05546
1.05585
1.05623
1.0566
1.05695
1.05729
1.05761
1.05792
1.05822
1.05849
1.05876
1.05901
1.05924
1.05946
1.05966
1.05985
1.06003
1.06019
1.06034
1.06048
1.06061
1.06074
1.06085
1.06097
1.06108
1.06118
1.06129
1.0614
1.06151
1.06163
1.06175
1.06188
1.06202
1.06216
1.06232
1.06248
1.06265
1.06283
1.06302
1.06321
1.06341
1.06361
1.06381
1.06401
1.06421
1.0644
1.06458
1.06476
1.06492
1.06507
1.0652
1.06531
1.06541
1.06548
1.06554
1.06557
1.06559
1.06558
1.06556
1.06553
1.06548
1.06542
1.06535
1.06528
1.0652
1.06512
1.06505
1.06498
1.06492
1.06486
1.06482
1.06479
1.06477
1.06476
1.06478
1.0648
1.06485
1.06491
1.065
1.0651
1.06523
1.06538
1.06556
1.06577
1.06601
1.06628
1.0666
1.06695
1.06735
1.06781
1.06832
1.06889
1.06953
1.07024
1.07104
1.07192
1.07291
1.074
1.07522
1.07658
1.07809
1.07979
1.08169
1.08385
1.08631
1.08916
1.0925
1.09649
1.10146
1.10786
1.11573
1.12424
1.13367
0.977968
0.977584
0.979573
0.981957
0.984047
0.985633
0.986791
0.987632
0.988234
0.988656
0.988941
0.989125
0.989231
0.98928
0.989284
0.989257
0.989206
0.989139
0.989061
0.988977
0.988891
0.988808
0.988729
0.988659
0.988597
0.988549
0.988515
0.988498
0.988499
0.98852
0.988561
0.988626
0.988713
0.988825
0.988961
0.989122
0.989308
0.98952
0.989756
0.990017
0.9903
0.990607
0.990935
0.991284
0.991651
0.992036
0.992436
0.992852
0.99328
0.99372
0.994168
0.994625
0.995088
0.995557
0.996027
0.996501
0.996975
0.99745
0.997921
0.998392
0.998858
0.999322
0.99978
1.00024
1.00068
1.00113
1.00157
1.002
1.00243
1.00286
1.00328
1.00369
1.00411
1.00452
1.00493
1.00534
1.00574
1.00615
1.00655
1.00696
1.00736
1.00776
1.00816
1.00856
1.00896
1.00936
1.00975
1.01014
1.01053
1.01091
1.01129
1.01166
1.01202
1.01237
1.01271
1.01305
1.01337
1.01369
1.01398
1.01427
1.01455
1.01481
1.01506
1.01529
1.01551
1.01572
1.01591
1.01609
1.01625
1.01641
1.01655
1.01668
1.01679
1.0169
1.017
1.01709
1.01717
1.01725
1.01732
1.01738
1.01744
1.0175
1.01756
1.01761
1.01767
1.01772
1.01777
1.01783
1.01788
1.01793
1.01798
1.01804
1.01809
1.01814
1.01819
1.01824
1.01828
1.01833
1.01838
1.01843
1.01847
1.01852
1.01857
1.01862
1.01867
1.01873
1.01879
1.01885
1.01892
1.019
1.01909
1.01918
1.01928
1.0194
1.01952
1.01965
1.0198
1.01996
1.02012
1.0203
1.0205
1.0207
1.02092
1.02115
1.02139
1.02165
1.02191
1.02219
1.02248
1.02278
1.02308
1.0234
1.02373
1.02406
1.0244
1.02475
1.0251
1.02545
1.02581
1.02617
1.02653
1.02689
1.02725
1.0276
1.02795
1.0283
1.02863
1.02897
1.02929
1.0296
1.02991
1.0302
1.03048
1.03075
1.031
1.03125
1.03147
1.03169
1.03189
1.03207
1.03224
1.0324
1.03254
1.03266
1.03277
1.03287
1.03295
1.03302
1.03308
1.03313
1.03316
1.03319
1.0332
1.03321
1.03321
1.0332
1.03319
1.03318
1.03316
1.03314
1.03312
1.0331
1.03308
1.03307
1.03306
1.03306
1.03307
1.03309
1.03312
1.03316
1.03321
1.03328
1.03336
1.03347
1.03358
1.03372
1.03387
1.03405
1.03424
1.03445
1.03468
1.03493
1.03519
1.03548
1.03578
1.0361
1.03644
1.03679
1.03716
1.03754
1.03793
1.03834
1.03876
1.03919
1.03963
1.04009
1.04055
1.04102
1.0415
1.04198
1.04248
1.04297
1.04348
1.04398
1.04449
1.04501
1.04552
1.04604
1.04655
1.04707
1.04759
1.0481
1.04861
1.04912
1.04962
1.05012
1.05061
1.0511
1.05158
1.05206
1.05253
1.05299
1.05344
1.05388
1.05431
1.05473
1.05515
1.05555
1.05594
1.05631
1.05668
1.05703
1.05736
1.05769
1.05799
1.05829
1.05856
1.05883
1.05907
1.05931
1.05952
1.05973
1.05992
1.06009
1.06025
1.06041
1.06055
1.06068
1.0608
1.06092
1.06104
1.06115
1.06126
1.06136
1.06148
1.06159
1.06171
1.06183
1.06196
1.0621
1.06224
1.0624
1.06256
1.06273
1.0629
1.06309
1.06328
1.06347
1.06367
1.06387
1.06406
1.06425
1.06444
1.06462
1.06479
1.06495
1.06509
1.06522
1.06532
1.06542
1.06549
1.06554
1.06557
1.06558
1.06558
1.06556
1.06552
1.06548
1.06542
1.06535
1.06528
1.0652
1.06513
1.06506
1.06499
1.06493
1.06488
1.06484
1.06481
1.06479
1.06479
1.0648
1.06483
1.06488
1.06494
1.06503
1.06513
1.06526
1.06541
1.06559
1.0658
1.06604
1.06631
1.06662
1.06698
1.06738
1.06783
1.06834
1.06891
1.06955
1.07026
1.07105
1.07193
1.07292
1.07401
1.07522
1.07657
1.07807
1.07974
1.08162
1.08374
1.08613
1.08887
1.09203
1.09571
1.09998
1.1049
1.11044
1.11493
1.11526
0.981757
0.981238
0.981984
0.983222
0.984563
0.985742
0.9867
0.987443
0.988001
0.98841
0.9887
0.988898
0.989023
0.989092
0.989117
0.98911
0.989079
0.98903
0.988969
0.988902
0.988832
0.988763
0.988698
0.988641
0.988592
0.988556
0.988533
0.988527
0.988537
0.988568
0.988619
0.988693
0.988789
0.988909
0.989052
0.989221
0.989414
0.989632
0.989873
0.990138
0.990426
0.990736
0.991066
0.991417
0.991785
0.992171
0.992571
0.992986
0.993412
0.99385
0.994296
0.994751
0.99521
0.995676
0.996143
0.996614
0.997084
0.997555
0.998023
0.998491
0.998954
0.999415
0.999871
1.00032
1.00077
1.00121
1.00165
1.00208
1.00251
1.00294
1.00336
1.00377
1.00419
1.0046
1.00501
1.00542
1.00582
1.00623
1.00664
1.00704
1.00745
1.00785
1.00825
1.00866
1.00905
1.00945
1.00985
1.01024
1.01063
1.01101
1.01139
1.01176
1.01212
1.01248
1.01282
1.01316
1.01348
1.01379
1.0141
1.01439
1.01466
1.01493
1.01517
1.01541
1.01563
1.01584
1.01603
1.01621
1.01638
1.01654
1.01668
1.01681
1.01692
1.01703
1.01713
1.01722
1.0173
1.01738
1.01745
1.01751
1.01757
1.01763
1.01768
1.01774
1.01779
1.01784
1.01789
1.01794
1.01799
1.01804
1.01809
1.01814
1.01819
1.01824
1.01829
1.01834
1.01839
1.01844
1.01848
1.01853
1.01858
1.01863
1.01867
1.01873
1.01878
1.01884
1.0189
1.01896
1.01904
1.01911
1.0192
1.0193
1.0194
1.01951
1.01963
1.01977
1.01991
1.02007
1.02023
1.02041
1.0206
1.0208
1.02102
1.02124
1.02148
1.02173
1.02199
1.02227
1.02255
1.02284
1.02315
1.02346
1.02378
1.02411
1.02445
1.02479
1.02514
1.0255
1.02585
1.02621
1.02657
1.02692
1.02728
1.02763
1.02798
1.02833
1.02866
1.02899
1.02931
1.02963
1.02993
1.03022
1.0305
1.03077
1.03102
1.03127
1.03149
1.03171
1.03191
1.03209
1.03226
1.03242
1.03256
1.03269
1.0328
1.0329
1.03298
1.03306
1.03312
1.03317
1.0332
1.03323
1.03325
1.03325
1.03325
1.03325
1.03324
1.03322
1.0332
1.03318
1.03316
1.03314
1.03312
1.03311
1.0331
1.0331
1.03311
1.03313
1.03316
1.0332
1.03325
1.03332
1.03341
1.03351
1.03363
1.03377
1.03393
1.0341
1.0343
1.03451
1.03474
1.03499
1.03526
1.03555
1.03586
1.03618
1.03652
1.03687
1.03724
1.03762
1.03802
1.03843
1.03885
1.03928
1.03972
1.04017
1.04064
1.04111
1.04159
1.04207
1.04256
1.04306
1.04357
1.04407
1.04459
1.0451
1.04562
1.04613
1.04665
1.04717
1.04768
1.0482
1.04871
1.04922
1.04972
1.05022
1.05072
1.05121
1.05169
1.05216
1.05263
1.05309
1.05354
1.05398
1.05441
1.05483
1.05524
1.05564
1.05603
1.05641
1.05677
1.05712
1.05745
1.05777
1.05808
1.05837
1.05865
1.05891
1.05916
1.05939
1.05961
1.05981
1.06
1.06017
1.06034
1.06049
1.06063
1.06077
1.06089
1.06101
1.06113
1.06124
1.06135
1.06146
1.06157
1.06169
1.06181
1.06193
1.06206
1.0622
1.06234
1.06249
1.06265
1.06282
1.063
1.06318
1.06336
1.06355
1.06374
1.06394
1.06413
1.06431
1.06449
1.06467
1.06483
1.06498
1.06512
1.06524
1.06534
1.06543
1.0655
1.06554
1.06557
1.06559
1.06558
1.06556
1.06552
1.06548
1.06542
1.06535
1.06528
1.06521
1.06514
1.06507
1.06501
1.06495
1.0649
1.06486
1.06483
1.06482
1.06481
1.06483
1.06486
1.06491
1.06497
1.06505
1.06516
1.06529
1.06544
1.06562
1.06582
1.06606
1.06633
1.06664
1.067
1.06739
1.06784
1.06834
1.06891
1.06953
1.07023
1.07101
1.07188
1.07285
1.07392
1.07511
1.07642
1.07789
1.07952
1.08133
1.08336
1.08563
1.08817
1.09102
1.09422
1.09773
1.10131
1.10454
1.10682
1.10621
0.984035
0.983673
0.983891
0.984514
0.985328
0.986144
0.986869
0.98747
0.987947
0.988313
0.988584
0.988776
0.988903
0.98898
0.989017
0.989023
0.989005
0.98897
0.988924
0.98887
0.988813
0.988757
0.988704
0.988659
0.988621
0.988596
0.988584
0.988588
0.988609
0.98865
0.98871
0.988792
0.988896
0.989025
0.989176
0.989351
0.98955
0.989774
0.99002
0.99029
0.990581
0.990894
0.991226
0.991578
0.991947
0.992332
0.992732
0.993145
0.99357
0.994005
0.994448
0.9949
0.995356
0.995817
0.996281
0.996747
0.997213
0.99768
0.998145
0.998608
0.999068
0.999525
0.999978
1.00043
1.00087
1.00131
1.00175
1.00218
1.00261
1.00303
1.00345
1.00387
1.00428
1.0047
1.00511
1.00552
1.00592
1.00633
1.00674
1.00714
1.00755
1.00796
1.00836
1.00876
1.00916
1.00956
1.00996
1.01035
1.01074
1.01113
1.01151
1.01188
1.01224
1.0126
1.01295
1.01329
1.01361
1.01393
1.01423
1.01452
1.0148
1.01507
1.01532
1.01556
1.01578
1.01599
1.01619
1.01637
1.01654
1.0167
1.01684
1.01697
1.01709
1.0172
1.0173
1.01739
1.01747
1.01754
1.01761
1.01767
1.01773
1.01779
1.01784
1.01789
1.01794
1.01799
1.01804
1.01809
1.01814
1.01819
1.01823
1.01828
1.01833
1.01838
1.01843
1.01848
1.01852
1.01857
1.01862
1.01866
1.01871
1.01876
1.01881
1.01886
1.01891
1.01897
1.01903
1.0191
1.01917
1.01925
1.01934
1.01943
1.01954
1.01965
1.01977
1.0199
1.02004
1.0202
1.02036
1.02054
1.02072
1.02092
1.02113
1.02135
1.02159
1.02183
1.02209
1.02236
1.02264
1.02293
1.02323
1.02354
1.02385
1.02418
1.02452
1.02486
1.0252
1.02555
1.02591
1.02626
1.02662
1.02698
1.02733
1.02768
1.02803
1.02837
1.02871
1.02904
1.02936
1.02967
1.02997
1.03026
1.03054
1.03081
1.03106
1.0313
1.03153
1.03174
1.03194
1.03213
1.0323
1.03246
1.0326
1.03273
1.03284
1.03295
1.03303
1.03311
1.03317
1.03322
1.03326
1.03329
1.03331
1.03331
1.03332
1.03331
1.0333
1.03328
1.03326
1.03324
1.03322
1.0332
1.03318
1.03316
1.03316
1.03316
1.03316
1.03318
1.03321
1.03325
1.03331
1.03338
1.03347
1.03357
1.0337
1.03384
1.034
1.03418
1.03437
1.03459
1.03483
1.03508
1.03535
1.03564
1.03595
1.03627
1.03661
1.03697
1.03734
1.03772
1.03812
1.03853
1.03895
1.03938
1.03982
1.04028
1.04074
1.04121
1.04169
1.04217
1.04267
1.04317
1.04367
1.04418
1.04469
1.04521
1.04572
1.04624
1.04676
1.04728
1.0478
1.04831
1.04882
1.04933
1.04984
1.05034
1.05083
1.05132
1.0518
1.05228
1.05274
1.0532
1.05365
1.05409
1.05452
1.05495
1.05536
1.05575
1.05614
1.05651
1.05688
1.05722
1.05756
1.05788
1.05818
1.05848
1.05875
1.05901
1.05926
1.05949
1.05971
1.05991
1.0601
1.06028
1.06044
1.0606
1.06074
1.06088
1.061
1.06112
1.06124
1.06136
1.06147
1.06158
1.06169
1.06181
1.06193
1.06205
1.06218
1.06232
1.06246
1.06262
1.06277
1.06294
1.06311
1.06329
1.06347
1.06365
1.06384
1.06402
1.0642
1.06438
1.06456
1.06472
1.06488
1.06502
1.06515
1.06527
1.06537
1.06545
1.06551
1.06556
1.06558
1.06559
1.06559
1.06557
1.06553
1.06548
1.06543
1.06537
1.0653
1.06523
1.06516
1.06509
1.06503
1.06497
1.06493
1.06489
1.06486
1.06485
1.06485
1.06487
1.0649
1.06494
1.06501
1.06509
1.0652
1.06532
1.06547
1.06565
1.06585
1.06609
1.06636
1.06666
1.06701
1.0674
1.06784
1.06833
1.06888
1.0695
1.07018
1.07095
1.07179
1.07273
1.07377
1.07492
1.07619
1.0776
1.07916
1.08088
1.08278
1.08488
1.08719
1.08969
1.09236
1.09509
1.09767
1.09965
1.10069
1.10043
0.985689
0.985358
0.985374
0.985688
0.986165
0.9867
0.987217
0.987674
0.988056
0.98836
0.988593
0.988763
0.98888
0.988954
0.988993
0.989003
0.988993
0.988966
0.988929
0.988885
0.988838
0.988792
0.988749
0.988713
0.988685
0.988669
0.988667
0.98868
0.98871
0.988759
0.988827
0.988918
0.98903
0.989166
0.989324
0.989506
0.989711
0.98994
0.99019
0.990464
0.990758
0.991074
0.991407
0.99176
0.992129
0.992514
0.992912
0.993324
0.993746
0.994178
0.994618
0.995065
0.995517
0.995974
0.996433
0.996895
0.997356
0.997819
0.998279
0.998738
0.999193
0.999647
1.0001
1.00054
1.00098
1.00142
1.00186
1.00229
1.00271
1.00314
1.00355
1.00397
1.00439
1.0048
1.00521
1.00562
1.00603
1.00644
1.00685
1.00726
1.00766
1.00807
1.00848
1.00888
1.00928
1.00969
1.01008
1.01048
1.01087
1.01126
1.01164
1.01201
1.01238
1.01274
1.01309
1.01343
1.01376
1.01408
1.01438
1.01468
1.01496
1.01523
1.01549
1.01573
1.01596
1.01617
1.01637
1.01656
1.01673
1.01689
1.01703
1.01717
1.01729
1.0174
1.0175
1.01759
1.01767
1.01774
1.01781
1.01787
1.01792
1.01798
1.01803
1.01808
1.01812
1.01817
1.01822
1.01826
1.01831
1.01835
1.0184
1.01845
1.01849
1.01854
1.01859
1.01863
1.01868
1.01872
1.01877
1.01882
1.01886
1.01891
1.01896
1.01901
1.01907
1.01912
1.01919
1.01925
1.01933
1.0194
1.01949
1.01959
1.01969
1.0198
1.01992
1.02005
1.02019
1.02034
1.0205
1.02068
1.02086
1.02105
1.02126
1.02148
1.02171
1.02195
1.0222
1.02246
1.02273
1.02302
1.02332
1.02362
1.02394
1.02426
1.02459
1.02493
1.02527
1.02562
1.02597
1.02633
1.02668
1.02704
1.02739
1.02774
1.02809
1.02843
1.02876
1.02909
1.02941
1.02972
1.03002
1.03031
1.03058
1.03085
1.0311
1.03134
1.03157
1.03179
1.03199
1.03217
1.03235
1.03251
1.03265
1.03278
1.0329
1.033
1.03309
1.03317
1.03323
1.03329
1.03333
1.03336
1.03337
1.03338
1.03339
1.03338
1.03337
1.03335
1.03333
1.03331
1.03328
1.03326
1.03324
1.03323
1.03322
1.03322
1.03322
1.03324
1.03327
1.03332
1.03337
1.03345
1.03354
1.03364
1.03377
1.03391
1.03408
1.03426
1.03446
1.03468
1.03492
1.03517
1.03545
1.03574
1.03605
1.03638
1.03672
1.03707
1.03744
1.03783
1.03823
1.03863
1.03906
1.03949
1.03993
1.04038
1.04085
1.04132
1.0418
1.04228
1.04278
1.04328
1.04378
1.04429
1.0448
1.04532
1.04584
1.04636
1.04688
1.04739
1.04791
1.04843
1.04894
1.04945
1.04996
1.05046
1.05095
1.05144
1.05192
1.0524
1.05286
1.05332
1.05377
1.05421
1.05464
1.05506
1.05547
1.05587
1.05625
1.05663
1.05699
1.05734
1.05767
1.05799
1.0583
1.05859
1.05886
1.05912
1.05937
1.0596
1.05982
1.06002
1.06021
1.06039
1.06056
1.06071
1.06086
1.061
1.06113
1.06125
1.06137
1.06149
1.0616
1.06172
1.06183
1.06195
1.06207
1.06219
1.06232
1.06246
1.0626
1.06275
1.06291
1.06307
1.06323
1.06341
1.06358
1.06376
1.06394
1.06412
1.06429
1.06446
1.06463
1.06479
1.06494
1.06507
1.0652
1.0653
1.0654
1.06547
1.06553
1.06557
1.0656
1.0656
1.0656
1.06557
1.06554
1.06549
1.06544
1.06538
1.06531
1.06525
1.06518
1.06512
1.06506
1.065
1.06496
1.06492
1.0649
1.06489
1.06489
1.06491
1.06494
1.06499
1.06505
1.06513
1.06524
1.06536
1.06551
1.06568
1.06589
1.06612
1.06638
1.06668
1.06702
1.0674
1.06783
1.06831
1.06884
1.06944
1.0701
1.07084
1.07165
1.07256
1.07356
1.07466
1.07588
1.07722
1.07869
1.0803
1.08206
1.08397
1.08601
1.08817
1.09037
1.09248
1.09432
1.09563
1.09614
1.0959
0.986927
0.986611
0.986542
0.986679
0.986949
0.987289
0.987643
0.987975
0.988264
0.988504
0.988693
0.988835
0.988936
0.989
0.989035
0.989046
0.989038
0.989017
0.988986
0.988949
0.98891
0.988872
0.988838
0.98881
0.988791
0.988783
0.988789
0.98881
0.988848
0.988905
0.988982
0.98908
0.989199
0.989341
0.989505
0.989693
0.989903
0.990136
0.990391
0.990667
0.990964
0.991281
0.991615
0.991968
0.992336
0.99272
0.993116
0.993525
0.993943
0.994372
0.994808
0.995251
0.995698
0.99615
0.996603
0.99706
0.997516
0.997973
0.998428
0.998883
0.999334
0.999784
1.00023
1.00067
1.00111
1.00155
1.00198
1.00241
1.00283
1.00325
1.00367
1.00409
1.00451
1.00492
1.00533
1.00574
1.00615
1.00656
1.00697
1.00738
1.00779
1.0082
1.00861
1.00901
1.00942
1.00982
1.01022
1.01062
1.01101
1.0114
1.01178
1.01216
1.01253
1.01289
1.01324
1.01359
1.01392
1.01424
1.01455
1.01485
1.01514
1.01541
1.01567
1.01592
1.01615
1.01637
1.01658
1.01677
1.01694
1.01711
1.01725
1.01739
1.01751
1.01762
1.01772
1.01781
1.0179
1.01797
1.01803
1.01809
1.01815
1.0182
1.01825
1.01829
1.01834
1.01838
1.01842
1.01846
1.01851
1.01855
1.01859
1.01864
1.01868
1.01872
1.01877
1.01881
1.01886
1.0189
1.01895
1.01899
1.01904
1.01909
1.01913
1.01919
1.01924
1.0193
1.01936
1.01943
1.0195
1.01958
1.01967
1.01976
1.01986
1.01997
1.02009
1.02022
1.02036
1.02051
1.02066
1.02083
1.02101
1.0212
1.0214
1.02162
1.02184
1.02208
1.02232
1.02258
1.02285
1.02313
1.02342
1.02372
1.02403
1.02435
1.02468
1.02502
1.02536
1.02571
1.02606
1.02641
1.02676
1.02712
1.02747
1.02782
1.02816
1.0285
1.02884
1.02916
1.02948
1.02979
1.03008
1.03037
1.03065
1.03091
1.03117
1.03141
1.03163
1.03185
1.03205
1.03224
1.03241
1.03257
1.03272
1.03285
1.03297
1.03308
1.03317
1.03325
1.03331
1.03337
1.03341
1.03344
1.03346
1.03347
1.03347
1.03347
1.03345
1.03344
1.03342
1.03339
1.03337
1.03335
1.03332
1.03331
1.0333
1.0333
1.0333
1.03332
1.03335
1.0334
1.03345
1.03353
1.03362
1.03373
1.03386
1.03401
1.03417
1.03436
1.03456
1.03478
1.03502
1.03528
1.03556
1.03586
1.03617
1.03649
1.03684
1.03719
1.03756
1.03795
1.03835
1.03876
1.03918
1.03961
1.04005
1.0405
1.04097
1.04144
1.04192
1.0424
1.0429
1.0434
1.0439
1.04441
1.04492
1.04544
1.04596
1.04648
1.047
1.04752
1.04804
1.04855
1.04907
1.04958
1.05008
1.05058
1.05108
1.05157
1.05205
1.05252
1.05299
1.05345
1.0539
1.05434
1.05477
1.05519
1.05559
1.05599
1.05638
1.05675
1.05711
1.05746
1.05779
1.05811
1.05841
1.0587
1.05898
1.05924
1.05949
1.05972
1.05994
1.06015
1.06034
1.06052
1.06069
1.06085
1.06099
1.06113
1.06127
1.06139
1.06151
1.06163
1.06175
1.06187
1.06198
1.0621
1.06222
1.06235
1.06248
1.06262
1.06276
1.0629
1.06306
1.06321
1.06338
1.06354
1.06371
1.06388
1.06405
1.06422
1.06439
1.06456
1.06471
1.06486
1.065
1.06513
1.06525
1.06535
1.06543
1.0655
1.06556
1.0656
1.06562
1.06562
1.06561
1.06559
1.06556
1.06551
1.06546
1.0654
1.06534
1.06527
1.06521
1.06515
1.06509
1.06504
1.065
1.06497
1.06495
1.06494
1.06494
1.06496
1.06499
1.06504
1.0651
1.06519
1.06529
1.06541
1.06556
1.06573
1.06593
1.06616
1.06642
1.06671
1.06704
1.06741
1.06783
1.06829
1.06881
1.06938
1.07002
1.07073
1.07151
1.07238
1.07333
1.07438
1.07553
1.07679
1.07817
1.07966
1.08127
1.08299
1.08479
1.08663
1.08844
1.09008
1.09142
1.0923
1.09256
1.09222
0.987883
0.987606
0.987501
0.987539
0.987682
0.987889
0.988122
0.988352
0.988561
0.98874
0.988885
0.988995
0.989073
0.989123
0.98915
0.989156
0.989147
0.989127
0.989098
0.989066
0.989031
0.988999
0.98897
0.988948
0.988936
0.988935
0.988947
0.988975
0.989019
0.989083
0.989165
0.989269
0.989394
0.989542
0.989711
0.989903
0.990118
0.990354
0.990612
0.990891
0.991189
0.991506
0.991841
0.992193
0.99256
0.992941
0.993334
0.99374
0.994154
0.994579
0.995009
0.995447
0.995889
0.996335
0.996783
0.997234
0.997685
0.998136
0.998586
0.999035
0.999481
0.999926
1.00037
1.00081
1.00124
1.00168
1.0021
1.00253
1.00296
1.00338
1.0038
1.00421
1.00463
1.00504
1.00546
1.00587
1.00628
1.00669
1.0071
1.00751
1.00792
1.00833
1.00874
1.00915
1.00956
1.00996
1.01036
1.01076
1.01116
1.01155
1.01193
1.01231
1.01268
1.01305
1.0134
1.01375
1.01409
1.01442
1.01473
1.01504
1.01533
1.01561
1.01587
1.01613
1.01636
1.01659
1.0168
1.01699
1.01717
1.01734
1.01749
1.01763
1.01776
1.01787
1.01797
1.01807
1.01815
1.01822
1.01828
1.01834
1.01839
1.01844
1.01849
1.01853
1.01857
1.01861
1.01865
1.01869
1.01872
1.01876
1.0188
1.01884
1.01888
1.01892
1.01897
1.01901
1.01905
1.01909
1.01914
1.01918
1.01923
1.01927
1.01932
1.01937
1.01943
1.01948
1.01955
1.01961
1.01969
1.01977
1.01985
1.01995
1.02005
1.02016
1.02027
1.0204
1.02054
1.02068
1.02084
1.021
1.02118
1.02136
1.02156
1.02177
1.02199
1.02222
1.02246
1.02271
1.02297
1.02325
1.02354
1.02383
1.02414
1.02446
1.02478
1.02512
1.02545
1.0258
1.02615
1.0265
1.02685
1.0272
1.02755
1.0279
1.02825
1.02858
1.02892
1.02924
1.02956
1.02986
1.03016
1.03045
1.03072
1.03098
1.03124
1.03148
1.0317
1.03192
1.03212
1.03231
1.03248
1.03264
1.03279
1.03293
1.03305
1.03316
1.03325
1.03333
1.0334
1.03346
1.0335
1.03353
1.03355
1.03356
1.03357
1.03356
1.03355
1.03353
1.03351
1.03348
1.03346
1.03344
1.03341
1.0334
1.03339
1.03338
1.03339
1.03341
1.03344
1.03348
1.03354
1.03362
1.03371
1.03383
1.03396
1.0341
1.03427
1.03446
1.03467
1.03489
1.03514
1.0354
1.03568
1.03597
1.03629
1.03662
1.03696
1.03732
1.03769
1.03807
1.03847
1.03888
1.0393
1.03973
1.04017
1.04062
1.04109
1.04156
1.04204
1.04252
1.04301
1.04351
1.04402
1.04453
1.04504
1.04556
1.04608
1.0466
1.04712
1.04764
1.04816
1.04868
1.04919
1.0497
1.05021
1.05071
1.0512
1.05169
1.05217
1.05264
1.05311
1.05357
1.05402
1.05446
1.05489
1.0553
1.05571
1.05611
1.05649
1.05687
1.05723
1.05757
1.05791
1.05822
1.05853
1.05882
1.0591
1.05936
1.05961
1.05984
1.06006
1.06027
1.06047
1.06065
1.06082
1.06098
1.06113
1.06127
1.06141
1.06154
1.06166
1.06179
1.06191
1.06202
1.06214
1.06226
1.06239
1.06251
1.06264
1.06278
1.06292
1.06306
1.06321
1.06337
1.06352
1.06368
1.06385
1.06401
1.06417
1.06434
1.0645
1.06465
1.0648
1.06494
1.06507
1.06519
1.0653
1.06539
1.06547
1.06554
1.06559
1.06562
1.06564
1.06564
1.06563
1.06561
1.06557
1.06553
1.06548
1.06542
1.06536
1.0653
1.06524
1.06518
1.06513
1.06508
1.06504
1.06502
1.065
1.06499
1.06499
1.06501
1.06505
1.06509
1.06516
1.06524
1.06535
1.06547
1.06561
1.06578
1.06598
1.0662
1.06645
1.06674
1.06706
1.06742
1.06782
1.06827
1.06876
1.06932
1.06993
1.0706
1.07135
1.07217
1.07307
1.07407
1.07515
1.07633
1.07761
1.07898
1.08045
1.08199
1.08357
1.08514
1.08663
1.08793
1.08893
1.08953
1.08965
1.08925
0.98866
0.988418
0.988294
0.988275
0.988338
0.988454
0.9886
0.988752
0.988897
0.989024
0.989128
0.989208
0.989265
0.989301
0.989317
0.989318
0.989307
0.989286
0.98926
0.98923
0.989199
0.989171
0.989147
0.989131
0.989124
0.989128
0.989146
0.98918
0.98923
0.989299
0.989387
0.989496
0.989625
0.989777
0.989951
0.990146
0.990363
0.990602
0.990862
0.991141
0.99144
0.991757
0.992091
0.992441
0.992805
0.993183
0.993573
0.993974
0.994384
0.994802
0.995228
0.995659
0.996095
0.996535
0.996977
0.997421
0.997866
0.998311
0.998755
0.999199
0.99964
1.00008
1.00052
1.00095
1.00139
1.00182
1.00224
1.00267
1.00309
1.00351
1.00393
1.00435
1.00476
1.00518
1.00559
1.006
1.00642
1.00683
1.00724
1.00765
1.00806
1.00848
1.00889
1.00929
1.0097
1.01011
1.01051
1.01091
1.01131
1.0117
1.01209
1.01247
1.01285
1.01322
1.01358
1.01393
1.01427
1.0146
1.01492
1.01523
1.01553