# vtk DataFile Version 2.0
LBE mesh
ASCII
DATASET STRUCTURED_POINTS
DIMENSIONS 400 100 1
ASPECT_RATIO 1 1 1
ORIGIN 0 0 0
POINT_DATA 40000
SCALARS rho double 1
LOOKUP_TABLE default
1.09444
1.16496
1.18558
1.18993
1.19208
1.19391
1.19523
1.19609
1.19667
1.1971
1.19742
1.19766
1.19785
1.198
1.19811
1.1982
1.19826
1.19831
1.19834
1.19835
1.19836
1.19835
1.19834
1.19832
1.19829
1.19826
1.19822
1.19818
1.19813
1.19807
1.19802
1.19796
1.1979
1.19784
1.19777
1.1977
1.19764
1.19757
1.1975
1.19743
1.19736
1.19729
1.19722
1.19716
1.19709
1.19703
1.19697
1.19691
1.19685
1.1968
1.19675
1.19671
1.19667
1.19663
1.1966
1.19658
1.19656
1.19655
1.19655
1.19655
1.19656
1.19657
1.1966
1.19663
1.19667
1.19672
1.19678
1.19685
1.19693
1.19701
1.19711
1.19721
1.19732
1.19744
1.19757
1.19771
1.19785
1.19801
1.19817
1.19833
1.19851
1.19869
1.19888
1.19907
1.19927
1.19948
1.19969
1.1999
1.20012
1.20034
1.20056
1.20078
1.20101
1.20123
1.20145
1.20168
1.20189
1.20211
1.20232
1.20253
1.20274
1.20294
1.20313
1.20332
1.2035
1.20367
1.20383
1.20398
1.20413
1.20426
1.20439
1.2045
1.2046
1.20469
1.20477
1.20484
1.20489
1.20493
1.20496
1.20498
1.20498
1.20498
1.20496
1.20493
1.20489
1.20484
1.20479
1.20472
1.20465
1.20457
1.20448
1.20438
1.20428
1.20418
1.20407
1.20396
1.20385
1.20373
1.20361
1.20349
1.20338
1.20326
1.20314
1.20302
1.2029
1.20278
1.20267
1.20255
1.20244
1.20233
1.20223
1.20212
1.20202
1.20192
1.20182
1.20172
1.20163
1.20154
1.20145
1.20137
1.20129
1.20121
1.20113
1.20106
1.20098
1.20091
1.20084
1.20078
1.20071
1.20065
1.20059
1.20053
1.20047
1.20041
1.20036
1.2003
1.20025
1.20019
1.20014
1.20009
1.20004
1.19999
1.19994
1.19989
1.19984
1.19979
1.19974
1.19969
1.19964
1.1996
1.19955
1.1995
1.19945
1.1994
1.19935
1.1993
1.19924
1.19919
1.19914
1.19909
1.19904
1.19899
1.19894
1.19888
1.19883
1.19878
1.19873
1.19868
1.19863
1.19858
1.19853
1.19848
1.19843
1.19839
1.19834
1.1983
1.19825
1.19821
1.19817
1.19814
1.1981
1.19807
1.19804
1.19801
1.19799
1.19797
1.19795
1.19794
1.19793
1.19792
1.19792
1.19793
1.19793
1.19795
1.19797
1.198
1.19803
1.19807
1.19811
1.19816
1.19822
1.19829
1.19836
1.19844
1.19853
1.19863
1.19873
1.19885
1.19897
1.1991
1.19925
1.1994
1.19956
1.19973
1.1999
1.20009
1.20029
1.20049
1.20071
1.20093
1.20116
1.2014
1.20165
1.20191
1.20217
1.20244
1.20272
1.203
1.20328
1.20358
1.20387
1.20417
1.20447
1.20477
1.20507
1.20537
1.20567
1.20596
1.20626
1.20655
1.20683
1.20711
1.20739
1.20766
1.20792
1.20817
1.20842
1.20865
1.20888
1.2091
1.20931
1.20951
1.2097
1.20989
1.21006
1.21023
1.21039
1.21054
1.21068
1.21082
1.21094
1.21106
1.21118
1.21129
1.21139
1.21148
1.21157
1.21166
1.21174
1.21181
1.21188
1.21195
1.21201
1.21206
1.21211
1.21216
1.2122
1.21224
1.21227
1.2123
1.21232
1.21234
1.21236
1.21237
1.21238
1.21238
1.21238
1.21238
1.21237
1.21236
1.21235
1.21233
1.21232
1.2123
1.21228
1.21226
1.21225
1.21223
1.21222
1.21221
1.2122
1.2122
1.2122
1.21221
1.21223
1.21225
1.21229
1.21233
1.21239
1.21246
1.21254
1.21263
1.21274
1.21287
1.21301
1.21317
1.21336
1.21356
1.21378
1.21403
1.21429
1.21459
1.2149
1.21525
1.21562
1.21602
1.21644
1.2169
1.21739
1.21792
1.21847
1.21906
1.21969
1.22036
1.22107
1.22182
1.22261
1.22346
1.22435
1.2253
1.22631
1.22738
1.22853
1.22975
1.23107
1.23249
1.23403
1.23571
1.23756
1.23961
1.2419
1.24452
1.24755
1.25113
1.25549
1.26114
1.26896
1.27993
1.29672
1.33212
1.15345
1.16356
1.17522
1.18465
1.18956
1.19208
1.19365
1.19479
1.19562
1.19623
1.19669
1.19704
1.19731
1.19753
1.1977
1.19783
1.19793
1.19801
1.19806
1.1981
1.19813
1.19814
1.19814
1.19814
1.19812
1.1981
1.19807
1.19804
1.198
1.19795
1.1979
1.19785
1.1978
1.19774
1.19768
1.19762
1.19755
1.19749
1.19742
1.19736
1.19729
1.19723
1.19716
1.1971
1.19703
1.19697
1.19691
1.19686
1.19681
1.19676
1.19671
1.19667
1.19663
1.1966
1.19657
1.19655
1.19653
1.19653
1.19652
1.19653
1.19654
1.19656
1.19659
1.19662
1.19666
1.19672
1.19678
1.19685
1.19692
1.19701
1.19711
1.19721
1.19732
1.19745
1.19758
1.19771
1.19786
1.19802
1.19818
1.19835
1.19852
1.19871
1.19889
1.19909
1.19929
1.1995
1.1997
1.19992
1.20014
1.20036
1.20058
1.2008
1.20102
1.20125
1.20147
1.20169
1.20191
1.20212
1.20234
1.20254
1.20275
1.20295
1.20314
1.20332
1.2035
1.20367
1.20383
1.20398
1.20413
1.20426
1.20438
1.20449
1.20459
1.20468
1.20476
1.20482
1.20487
1.20491
1.20494
1.20496
1.20496
1.20495
1.20493
1.20491
1.20487
1.20482
1.20476
1.20469
1.20462
1.20454
1.20445
1.20435
1.20426
1.20415
1.20405
1.20394
1.20382
1.20371
1.20359
1.20347
1.20335
1.20324
1.20312
1.203
1.20288
1.20277
1.20265
1.20254
1.20243
1.20232
1.20221
1.20211
1.20201
1.20191
1.20181
1.20172
1.20162
1.20154
1.20145
1.20136
1.20128
1.2012
1.20113
1.20105
1.20098
1.20091
1.20084
1.20077
1.20071
1.20065
1.20058
1.20052
1.20047
1.20041
1.20035
1.2003
1.20024
1.20019
1.20014
1.20009
1.20004
1.19999
1.19994
1.19989
1.19984
1.19979
1.19974
1.19969
1.19964
1.19959
1.19954
1.19949
1.19944
1.19939
1.19934
1.19929
1.19924
1.19919
1.19914
1.19909
1.19904
1.19898
1.19893
1.19888
1.19883
1.19878
1.19873
1.19868
1.19863
1.19858
1.19853
1.19848
1.19843
1.19839
1.19834
1.1983
1.19825
1.19821
1.19817
1.19814
1.1981
1.19807
1.19804
1.19802
1.19799
1.19797
1.19796
1.19794
1.19794
1.19793
1.19793
1.19794
1.19795
1.19796
1.19798
1.19801
1.19804
1.19808
1.19813
1.19818
1.19824
1.19831
1.19838
1.19846
1.19855
1.19865
1.19876
1.19888
1.199
1.19913
1.19928
1.19943
1.19959
1.19976
1.19994
1.20013
1.20032
1.20053
1.20074
1.20097
1.2012
1.20144
1.20169
1.20195
1.20221
1.20248
1.20275
1.20304
1.20332
1.20361
1.20391
1.2042
1.2045
1.2048
1.2051
1.2054
1.2057
1.20599
1.20628
1.20657
1.20685
1.20713
1.20741
1.20767
1.20793
1.20818
1.20842
1.20866
1.20889
1.2091
1.20931
1.20951
1.2097
1.20989
1.21006
1.21023
1.21038
1.21053
1.21067
1.21081
1.21093
1.21105
1.21117
1.21128
1.21138
1.21147
1.21156
1.21165
1.21173
1.2118
1.21187
1.21193
1.21199
1.21205
1.2121
1.21215
1.21219
1.21222
1.21226
1.21228
1.21231
1.21233
1.21234
1.21235
1.21236
1.21236
1.21236
1.21236
1.21235
1.21234
1.21233
1.21232
1.2123
1.21228
1.21227
1.21225
1.21223
1.21222
1.21221
1.2122
1.21219
1.21219
1.2122
1.21221
1.21223
1.21225
1.21229
1.21234
1.21239
1.21246
1.21255
1.21265
1.21276
1.21289
1.21304
1.2132
1.21339
1.21359
1.21382
1.21406
1.21434
1.21463
1.21495
1.2153
1.21568
1.21608
1.21651
1.21698
1.21747
1.218
1.21856
1.21916
1.21979
1.22046
1.22118
1.22194
1.22274
1.22359
1.22449
1.22545
1.22647
1.22756
1.22872
1.22997
1.2313
1.23275
1.23433
1.23605
1.23795
1.24006
1.24245
1.24518
1.24837
1.25219
1.2569
1.26285
1.27063
1.28211
1.30197
1.33293
1.1728
1.17135
1.17837
1.18421
1.1879
1.19054
1.19244
1.19379
1.19476
1.19548
1.19604
1.19648
1.19682
1.19709
1.1973
1.19747
1.19761
1.19772
1.1978
1.19786
1.19791
1.19794
1.19795
1.19796
1.19796
1.19795
1.19793
1.1979
1.19787
1.19783
1.19779
1.19774
1.19769
1.19764
1.19758
1.19753
1.19747
1.19741
1.19734
1.19728
1.19722
1.19716
1.1971
1.19704
1.19697
1.19692
1.19686
1.19681
1.19676
1.19671
1.19667
1.19663
1.19659
1.19656
1.19653
1.19652
1.1965
1.19649
1.19649
1.1965
1.19651
1.19653
1.19656
1.1966
1.19665
1.1967
1.19676
1.19683
1.19691
1.197
1.1971
1.1972
1.19732
1.19744
1.19757
1.19771
1.19786
1.19802
1.19818
1.19835
1.19853
1.19871
1.1989
1.1991
1.1993
1.1995
1.19971
1.19993
1.20015
1.20037
1.20059
1.20081
1.20103
1.20126
1.20148
1.2017
1.20192
1.20214
1.20235
1.20256
1.20276
1.20296
1.20315
1.20333
1.20351
1.20368
1.20384
1.20399
1.20413
1.20426
1.20438
1.20449
1.20459
1.20468
1.20475
1.20481
1.20486
1.2049
1.20493
1.20494
1.20495
1.20494
1.20492
1.20489
1.20485
1.2048
1.20474
1.20467
1.20459
1.20451
1.20442
1.20433
1.20423
1.20413
1.20402
1.20391
1.2038
1.20368
1.20357
1.20345
1.20333
1.20322
1.2031
1.20298
1.20286
1.20275
1.20264
1.20253
1.20241
1.20231
1.2022
1.2021
1.202
1.2019
1.2018
1.20171
1.20162
1.20153
1.20144
1.20136
1.20128
1.2012
1.20112
1.20105
1.20097
1.2009
1.20083
1.20077
1.2007
1.20064
1.20058
1.20052
1.20046
1.20041
1.20035
1.2003
1.20024
1.20019
1.20014
1.20009
1.20003
1.19998
1.19993
1.19988
1.19983
1.19979
1.19974
1.19969
1.19964
1.19959
1.19954
1.19949
1.19944
1.19939
1.19934
1.19929
1.19924
1.19919
1.19913
1.19908
1.19903
1.19898
1.19893
1.19888
1.19883
1.19878
1.19872
1.19867
1.19862
1.19857
1.19852
1.19848
1.19843
1.19838
1.19834
1.1983
1.19825
1.19821
1.19817
1.19814
1.1981
1.19807
1.19804
1.19802
1.198
1.19798
1.19796
1.19795
1.19794
1.19794
1.19794
1.19794
1.19795
1.19797
1.19799
1.19802
1.19805
1.19809
1.19814
1.19819
1.19825
1.19832
1.1984
1.19848
1.19857
1.19867
1.19878
1.1989
1.19902
1.19916
1.1993
1.19945
1.19961
1.19978
1.19996
1.20015
1.20035
1.20056
1.20077
1.201
1.20123
1.20147
1.20172
1.20198
1.20224
1.20251
1.20279
1.20307
1.20336
1.20365
1.20394
1.20424
1.20453
1.20483
1.20513
1.20543
1.20573
1.20602
1.20631
1.2066
1.20688
1.20716
1.20743
1.20769
1.20795
1.2082
1.20844
1.20868
1.2089
1.20912
1.20932
1.20952
1.20971
1.20989
1.21006
1.21023
1.21038
1.21053
1.21067
1.21081
1.21093
1.21105
1.21116
1.21127
1.21137
1.21147
1.21155
1.21164
1.21172
1.21179
1.21186
1.21192
1.21198
1.21204
1.21209
1.21213
1.21218
1.21221
1.21224
1.21227
1.2123
1.21231
1.21233
1.21234
1.21235
1.21235
1.21235
1.21234
1.21234
1.21233
1.21231
1.2123
1.21228
1.21227
1.21225
1.21223
1.21221
1.2122
1.21219
1.21218
1.21217
1.21217
1.21218
1.21219
1.21221
1.21224
1.21228
1.21233
1.21238
1.21246
1.21254
1.21264
1.21276
1.21289
1.21304
1.21321
1.21339
1.2136
1.21383
1.21408
1.21435
1.21465
1.21498
1.21533
1.21571
1.21611
1.21655
1.21701
1.21751
1.21804
1.21861
1.21921
1.21985
1.22053
1.22124
1.22201
1.22281
1.22367
1.22458
1.22554
1.22657
1.22766
1.22883
1.23008
1.23143
1.23289
1.23447
1.23621
1.23812
1.24025
1.24265
1.2454
1.24859
1.25236
1.25691
1.26263
1.27003
1.27936
1.2895
1.29869
1.18087
1.17996
1.1822
1.18488
1.18779
1.19012
1.19183
1.19313
1.19413
1.19491
1.19552
1.196
1.19639
1.1967
1.19695
1.19715
1.19731
1.19745
1.19755
1.19763
1.19769
1.19774
1.19777
1.19779
1.1978
1.19779
1.19778
1.19777
1.19774
1.19771
1.19767
1.19763
1.19759
1.19754
1.19749
1.19744
1.19738
1.19733
1.19727
1.19721
1.19715
1.19709
1.19703
1.19697
1.19691
1.19686
1.1968
1.19675
1.1967
1.19666
1.19661
1.19658
1.19654
1.19651
1.19649
1.19647
1.19646
1.19646
1.19646
1.19646
1.19648
1.1965
1.19653
1.19657
1.19662
1.19667
1.19674
1.19681
1.19689
1.19698
1.19708
1.19719
1.1973
1.19743
1.19756
1.1977
1.19785
1.19801
1.19817
1.19834
1.19852
1.19871
1.1989
1.1991
1.1993
1.19951
1.19972
1.19993
1.20015
1.20037
1.2006
1.20082
1.20104
1.20127
1.20149
1.20171
1.20193
1.20215
1.20236
1.20257
1.20277
1.20297
1.20316
1.20334
1.20352
1.20369
1.20385
1.204
1.20414
1.20427
1.20439
1.2045
1.2046
1.20468
1.20475
1.20482
1.20487
1.2049
1.20493
1.20494
1.20494
1.20493
1.20491
1.20488
1.20483
1.20478
1.20472
1.20465
1.20458
1.20449
1.20441
1.20431
1.20421
1.20411
1.204
1.20389
1.20378
1.20366
1.20355
1.20343
1.20331
1.2032
1.20308
1.20296
1.20285
1.20273
1.20262
1.20251
1.2024
1.20229
1.20219
1.20208
1.20198
1.20188
1.20179
1.2017
1.2016
1.20152
1.20143
1.20135
1.20127
1.20119
1.20111
1.20104
1.20097
1.2009
1.20083
1.20076
1.2007
1.20064
1.20057
1.20052
1.20046
1.2004
1.20034
1.20029
1.20024
1.20018
1.20013
1.20008
1.20003
1.19998
1.19993
1.19988
1.19983
1.19978
1.19973
1.19968
1.19963
1.19958
1.19953
1.19948
1.19943
1.19938
1.19933
1.19928
1.19923
1.19918
1.19913
1.19908
1.19903
1.19898
1.19893
1.19887
1.19882
1.19877
1.19872
1.19867
1.19862
1.19857
1.19852
1.19847
1.19843
1.19838
1.19834
1.19829
1.19825
1.19821
1.19817
1.19814
1.1981
1.19807
1.19804
1.19802
1.198
1.19798
1.19796
1.19795
1.19794
1.19794
1.19794
1.19795
1.19796
1.19798
1.198
1.19803
1.19806
1.1981
1.19815
1.1982
1.19826
1.19833
1.19841
1.19849
1.19858
1.19868
1.19879
1.19891
1.19904
1.19917
1.19931
1.19947
1.19963
1.1998
1.19998
1.20017
1.20037
1.20058
1.2008
1.20102
1.20126
1.2015
1.20175
1.20201
1.20227
1.20254
1.20282
1.2031
1.20339
1.20368
1.20397
1.20427
1.20457
1.20487
1.20517
1.20547
1.20576
1.20606
1.20635
1.20663
1.20692
1.20719
1.20746
1.20773
1.20798
1.20823
1.20847
1.2087
1.20892
1.20914
1.20934
1.20954
1.20973
1.20991
1.21008
1.21024
1.21039
1.21054
1.21068
1.21081
1.21093
1.21105
1.21116
1.21127
1.21137
1.21146
1.21155
1.21163
1.21171
1.21179
1.21185
1.21192
1.21198
1.21203
1.21208
1.21213
1.21217
1.2122
1.21223
1.21226
1.21228
1.2123
1.21232
1.21233
1.21233
1.21233
1.21233
1.21233
1.21232
1.21231
1.2123
1.21228
1.21226
1.21225
1.21223
1.21221
1.21219
1.21218
1.21216
1.21216
1.21215
1.21215
1.21216
1.21217
1.21219
1.21222
1.21225
1.2123
1.21236
1.21243
1.21252
1.21262
1.21274
1.21287
1.21302
1.21319
1.21338
1.21359
1.21382
1.21407
1.21435
1.21465
1.21497
1.21533
1.21571
1.21611
1.21655
1.21702
1.21752
1.21805
1.21862
1.21923
1.21987
1.22054
1.22126
1.22203
1.22284
1.22369
1.2246
1.22557
1.22659
1.22769
1.22885
1.2301
1.23145
1.2329
1.23447
1.23619
1.23808
1.24018
1.24253
1.24519
1.24825
1.25179
1.25596
1.26084
1.26652
1.27278
1.27787
1.27794
1.18517
1.1847
1.1853
1.18678
1.18861
1.19025
1.19166
1.19283
1.19377
1.19452
1.19513
1.19563
1.19604
1.19637
1.19664
1.19687
1.19705
1.1972
1.19732
1.19742
1.19749
1.19755
1.19759
1.19762
1.19764
1.19765
1.19765
1.19763
1.19762
1.19759
1.19756
1.19753
1.19749
1.19745
1.1974
1.19735
1.1973
1.19724
1.19719
1.19713
1.19707
1.19702
1.19696
1.19691
1.19685
1.1968
1.19674
1.19669
1.19665
1.1966
1.19656
1.19653
1.19649
1.19647
1.19644
1.19643
1.19641
1.19641
1.19641
1.19642
1.19644
1.19646
1.19649
1.19653
1.19658
1.19664
1.1967
1.19678
1.19686
1.19695
1.19705
1.19716
1.19728
1.1974
1.19754
1.19768
1.19783
1.19799
1.19816
1.19833
1.19851
1.1987
1.19889
1.19909
1.19929
1.1995
1.19971
1.19993
1.20015
1.20038
1.2006
1.20083
1.20105
1.20128
1.2015
1.20172
1.20194
1.20216
1.20237
1.20258
1.20279
1.20298
1.20317
1.20336
1.20354
1.2037
1.20386
1.20401
1.20415
1.20429
1.2044
1.20451
1.20461
1.20469
1.20477
1.20483
1.20487
1.20491
1.20493
1.20494
1.20494
1.20493
1.20491
1.20487
1.20483
1.20478
1.20471
1.20464
1.20457
1.20448
1.20439
1.20429
1.20419
1.20409
1.20398
1.20387
1.20376
1.20364
1.20353
1.20341
1.20329
1.20318
1.20306
1.20294
1.20283
1.20271
1.2026
1.20249
1.20238
1.20228
1.20217
1.20207
1.20197
1.20187
1.20178
1.20168
1.20159
1.2015
1.20142
1.20134
1.20126
1.20118
1.2011
1.20103
1.20096
1.20089
1.20082
1.20075
1.20069
1.20063
1.20057
1.20051
1.20045
1.20039
1.20034
1.20028
1.20023
1.20018
1.20012
1.20007
1.20002
1.19997
1.19992
1.19987
1.19982
1.19977
1.19972
1.19968
1.19963
1.19958
1.19953
1.19948
1.19943
1.19938
1.19933
1.19928
1.19923
1.19918
1.19913
1.19907
1.19902
1.19897
1.19892
1.19887
1.19882
1.19877
1.19872
1.19867
1.19862
1.19857
1.19852
1.19847
1.19842
1.19838
1.19833
1.19829
1.19825
1.19821
1.19817
1.19814
1.1981
1.19807
1.19804
1.19802
1.198
1.19798
1.19796
1.19795
1.19794
1.19794
1.19794
1.19795
1.19796
1.19798
1.198
1.19803
1.19806
1.1981
1.19815
1.1982
1.19827
1.19833
1.19841
1.1985
1.19859
1.19869
1.1988
1.19892
1.19904
1.19918
1.19932
1.19948
1.19964
1.19981
1.19999
1.20019
1.20039
1.2006
1.20081
1.20104
1.20128
1.20152
1.20177
1.20203
1.2023
1.20257
1.20285
1.20313
1.20342
1.20371
1.20401
1.2043
1.2046
1.2049
1.2052
1.2055
1.2058
1.20609
1.20639
1.20667
1.20695
1.20723
1.2075
1.20776
1.20802
1.20826
1.2085
1.20873
1.20895
1.20917
1.20937
1.20956
1.20975
1.20993
1.21009
1.21025
1.21041
1.21055
1.21069
1.21082
1.21094
1.21106
1.21117
1.21127
1.21137
1.21146
1.21155
1.21163
1.21171
1.21178
1.21185
1.21191
1.21197
1.21203
1.21207
1.21212
1.21216
1.2122
1.21223
1.21225
1.21228
1.21229
1.21231
1.21232
1.21232
1.21232
1.21232
1.21231
1.2123
1.21229
1.21228
1.21226
1.21224
1.21222
1.2122
1.21218
1.21217
1.21215
1.21214
1.21213
1.21212
1.21212
1.21212
1.21213
1.21215
1.21218
1.21222
1.21227
1.21233
1.2124
1.21248
1.21258
1.2127
1.21283
1.21298
1.21315
1.21334
1.21355
1.21378
1.21403
1.21431
1.21461
1.21494
1.21529
1.21567
1.21608
1.21652
1.21699
1.21749
1.21803
1.2186
1.2192
1.21984
1.22052
1.22124
1.222
1.22281
1.22366
1.22457
1.22553
1.22655
1.22763
1.22879
1.23003
1.23135
1.23278
1.23432
1.236
1.23784
1.23986
1.2421
1.24461
1.24742
1.2506
1.25417
1.2581
1.26214
1.26576
1.26822
1.26755
1.18813
1.18761
1.18775
1.18856
1.18962
1.19076
1.19185
1.1928
1.19362
1.19431
1.19489
1.19537
1.19578
1.19611
1.19639
1.19663
1.19682
1.19698
1.19712
1.19722
1.19731
1.19738
1.19743
1.19747
1.19749
1.19751
1.19751
1.19751
1.1975
1.19748
1.19745
1.19742
1.19739
1.19735
1.1973
1.19726
1.19721
1.19716
1.19711
1.19705
1.197
1.19695
1.19689
1.19684
1.19678
1.19673
1.19668
1.19663
1.19659
1.19654
1.1965
1.19647
1.19644
1.19641
1.19639
1.19637
1.19636
1.19636
1.19636
1.19637
1.19639
1.19641
1.19645
1.19649
1.19654
1.1966
1.19666
1.19674
1.19682
1.19691
1.19701
1.19713
1.19724
1.19737
1.19751
1.19765
1.1978
1.19797
1.19813
1.19831
1.19849
1.19868
1.19887
1.19907
1.19928
1.19949
1.19971
1.19993
1.20015
1.20037
1.2006
1.20083
1.20105
1.20128
1.20151
1.20173
1.20195
1.20217
1.20239
1.2026
1.2028
1.203
1.20319
1.20338
1.20355
1.20372
1.20388
1.20403
1.20418
1.20431
1.20442
1.20453
1.20463
1.20471
1.20478
1.20484
1.20489
1.20492
1.20495
1.20496
1.20495
1.20494
1.20491
1.20488
1.20483
1.20477
1.20471
1.20464
1.20456
1.20447
1.20438
1.20428
1.20418
1.20407
1.20396
1.20385
1.20374
1.20362
1.20351
1.20339
1.20327
1.20315
1.20304
1.20292
1.20281
1.20269
1.20258
1.20247
1.20236
1.20226
1.20215
1.20205
1.20195
1.20185
1.20176
1.20167
1.20158
1.20149
1.20141
1.20132
1.20124
1.20117
1.20109
1.20102
1.20095
1.20088
1.20081
1.20074
1.20068
1.20062
1.20056
1.2005
1.20044
1.20038
1.20033
1.20028
1.20022
1.20017
1.20012
1.20007
1.20002
1.19997
1.19992
1.19987
1.19982
1.19977
1.19972
1.19967
1.19962
1.19957
1.19952
1.19947
1.19942
1.19937
1.19932
1.19927
1.19922
1.19917
1.19912
1.19907
1.19902
1.19897
1.19892
1.19886
1.19881
1.19876
1.19871
1.19866
1.19861
1.19856
1.19852
1.19847
1.19842
1.19838
1.19833
1.19829
1.19825
1.19821
1.19817
1.19813
1.1981
1.19807
1.19804
1.19802
1.19799
1.19798
1.19796
1.19795
1.19794
1.19794
1.19794
1.19795
1.19796
1.19798
1.198
1.19803
1.19806
1.1981
1.19815
1.1982
1.19826
1.19833
1.19841
1.19849
1.19859
1.19869
1.1988
1.19892
1.19904
1.19918
1.19932
1.19948
1.19964
1.19982
1.2
1.20019
1.20039
1.2006
1.20082
1.20105
1.20129
1.20153
1.20179
1.20205
1.20231
1.20259
1.20287
1.20315
1.20344
1.20374
1.20404
1.20434
1.20464
1.20494
1.20524
1.20554
1.20584
1.20613
1.20643
1.20671
1.207
1.20727
1.20754
1.2078
1.20806
1.2083
1.20854
1.20877
1.20899
1.2092
1.2094
1.20959
1.20978
1.20995
1.21012
1.21028
1.21043
1.21057
1.2107
1.21083
1.21095
1.21107
1.21118
1.21128
1.21137
1.21147
1.21155
1.21163
1.21171
1.21178
1.21185
1.21191
1.21197
1.21202
1.21207
1.21211
1.21215
1.21219
1.21222
1.21225
1.21227
1.21228
1.2123
1.2123
1.21231
1.21231
1.2123
1.2123
1.21229
1.21227
1.21226
1.21224
1.21222
1.2122
1.21218
1.21216
1.21214
1.21212
1.2121
1.21209
1.21208
1.21208
1.21208
1.21209
1.21211
1.21214
1.21217
1.21222
1.21228
1.21235
1.21243
1.21253
1.21265
1.21278
1.21293
1.2131
1.21329
1.21349
1.21372
1.21398
1.21425
1.21456
1.21488
1.21524
1.21562
1.21603
1.21646
1.21693
1.21743
1.21797
1.21853
1.21914
1.21977
1.22045
1.22117
1.22193
1.22273
1.22358
1.22448
1.22543
1.22644
1.22751
1.22864
1.22986
1.23115
1.23254
1.23404
1.23566
1.23741
1.23932
1.24142
1.24371
1.24623
1.24897
1.2519
1.25489
1.25772
1.25989
1.26099
1.26072
1.19015
1.18961
1.1896
1.19
1.19064
1.19142
1.19221
1.19296
1.19364
1.19424
1.19477
1.19521
1.1956
1.19592
1.1962
1.19643
1.19663
1.1968
1.19694
1.19705
1.19714
1.19722
1.19728
1.19732
1.19735
1.19737
1.19738
1.19739
1.19738
1.19737
1.19735
1.19732
1.19729
1.19725
1.19721
1.19717
1.19713
1.19708
1.19703
1.19698
1.19693
1.19687
1.19682
1.19677
1.19672
1.19666
1.19662
1.19657
1.19652
1.19648
1.19644
1.19641
1.19638
1.19635
1.19633
1.19632
1.19631
1.1963
1.19631
1.19632
1.19634
1.19636
1.19639
1.19644
1.19649
1.19655
1.19661
1.19669
1.19677
1.19687
1.19697
1.19708
1.1972
1.19733
1.19747
1.19762
1.19777
1.19793
1.1981
1.19828
1.19846
1.19865
1.19885
1.19905
1.19926
1.19947
1.19969
1.19991
1.20014
1.20036
1.20059
1.20082
1.20105
1.20128
1.20151
1.20174
1.20196
1.20218
1.2024
1.20261
1.20282
1.20302
1.20321
1.2034
1.20357
1.20375
1.20391
1.20406
1.2042
1.20433
1.20445
1.20456
1.20465
1.20474
1.20481
1.20487
1.20491
1.20495
1.20496
1.20497
1.20497
1.20495
1.20492
1.20488
1.20483
1.20478
1.20471
1.20463
1.20455
1.20446
1.20437
1.20427
1.20417
1.20406
1.20395
1.20384
1.20372
1.2036
1.20349
1.20337
1.20325
1.20313
1.20302
1.2029
1.20279
1.20267
1.20256
1.20245
1.20234
1.20224
1.20213
1.20203
1.20193
1.20184
1.20174
1.20165
1.20156
1.20147
1.20139
1.20131
1.20123
1.20115
1.20108
1.201
1.20093
1.20086
1.2008
1.20073
1.20067
1.20061
1.20055
1.20049
1.20043
1.20037
1.20032
1.20027
1.20021
1.20016
1.20011
1.20006
1.20001
1.19996
1.19991
1.19986
1.19981
1.19976
1.19971
1.19966
1.19961
1.19956
1.19951
1.19946
1.19941
1.19937
1.19932
1.19927
1.19921
1.19916
1.19911
1.19906
1.19901
1.19896
1.19891
1.19886
1.19881
1.19876
1.19871
1.19866
1.19861
1.19856
1.19851
1.19846
1.19842
1.19837
1.19833
1.19828
1.19824
1.1982
1.19817
1.19813
1.1981
1.19807
1.19804
1.19801
1.19799
1.19797
1.19796
1.19794
1.19794
1.19793
1.19794
1.19794
1.19795
1.19797
1.19799
1.19802
1.19805
1.19809
1.19814
1.1982
1.19826
1.19833
1.1984
1.19849
1.19858
1.19868
1.19879
1.19891
1.19904
1.19917
1.19932
1.19947
1.19964
1.19981
1.2
1.20019
1.20039
1.2006
1.20082
1.20105
1.20129
1.20154
1.20179
1.20206
1.20233
1.2026
1.20288
1.20317
1.20347
1.20376
1.20406
1.20436
1.20467
1.20497
1.20528
1.20558
1.20588
1.20618
1.20647
1.20676
1.20704
1.20732
1.20759
1.20785
1.20811
1.20835
1.20859
1.20881
1.20903
1.20924
1.20944
1.20963
1.20981
1.20999
1.21015
1.21031
1.21045
1.21059
1.21073
1.21085
1.21097
1.21108
1.21119
1.21129
1.21138
1.21147
1.21156
1.21164
1.21171
1.21178
1.21185
1.21191
1.21197
1.21202
1.21207
1.21211
1.21215
1.21218
1.21221
1.21224
1.21226
1.21228
1.21229
1.2123
1.2123
1.2123
1.21229
1.21228
1.21227
1.21225
1.21224
1.21222
1.21219
1.21217
1.21215
1.21213
1.2121
1.21208
1.21206
1.21205
1.21204
1.21203
1.21203
1.21204
1.21206
1.21208
1.21212
1.21216
1.21222
1.21229
1.21237
1.21247
1.21258
1.21271
1.21286
1.21302
1.21321
1.21342
1.21365
1.2139
1.21417
1.21447
1.2148
1.21515
1.21553
1.21594
1.21637
1.21684
1.21734
1.21787
1.21843
1.21903
1.21967
1.22034
1.22105
1.2218
1.2226
1.22344
1.22432
1.22526
1.22625
1.2273
1.22841
1.2296
1.23085
1.23219
1.23363
1.23517
1.23682
1.2386
1.24052
1.24258
1.24478
1.24709
1.24944
1.25168
1.25362
1.255
1.25554
1.2553
1.19155
1.19108
1.19098
1.19116
1.19155
1.19207
1.19265
1.19322
1.19377
1.19428
1.19473
1.19513
1.19549
1.19579
1.19606
1.19628
1.19648
1.19664
1.19678
1.1969
1.197
1.19708
1.19714
1.19719
1.19722
1.19725
1.19726
1.19727
1.19727
1.19726
1.19724
1.19722
1.19719
1.19716
1.19712
1.19708
1.19704
1.197
1.19695
1.1969
1.19685
1.1968
1.19675
1.1967
1.19665
1.1966
1.19655
1.1965
1.19646
1.19642
1.19638
1.19635
1.19631
1.19629
1.19627
1.19625
1.19625
1.19624
1.19625
1.19626
1.19628
1.1963
1.19634
1.19638
1.19643
1.19649
1.19656
1.19664
1.19672
1.19682
1.19692
1.19703
1.19716
1.19729
1.19743
1.19757
1.19773
1.19789
1.19806
1.19824
1.19843
1.19862
1.19882
1.19902
1.19923
1.19945
1.19967
1.1999
1.20012
1.20035
1.20058
1.20082
1.20105
1.20128
1.20151
1.20174
1.20197
1.20219
1.20241
1.20262
1.20283
1.20304
1.20323
1.20342
1.2036
1.20377
1.20393
1.20409
1.20423
1.20436
1.20448
1.20459
1.20468
1.20477
1.20484
1.2049
1.20494
1.20497
1.20499
1.20499
1.20499
1.20497
1.20494
1.2049
1.20484
1.20478
1.20471
1.20464
1.20455
1.20446
1.20436
1.20426
1.20415
1.20405
1.20393
1.20382
1.2037
1.20359
1.20347
1.20335
1.20323
1.20311
1.20299
1.20288
1.20276
1.20265
1.20254
1.20243
1.20232
1.20222
1.20211
1.20201
1.20191
1.20182
1.20172
1.20163
1.20154
1.20146
1.20137
1.20129
1.20121
1.20114
1.20106
1.20099
1.20092
1.20085
1.20078
1.20072
1.20066
1.2006
1.20053
1.20048
1.20042
1.20036
1.20031
1.20025
1.2002
1.20015
1.2001
1.20005
1.2
1.19995
1.1999
1.19985
1.1998
1.19975
1.1997
1.19965
1.1996
1.19956
1.19951
1.19946
1.19941
1.19936
1.19931
1.19926
1.19921
1.19916
1.19911
1.19906
1.19901
1.19896
1.1989
1.19885
1.1988
1.19875
1.1987
1.19865
1.1986
1.19855
1.19851
1.19846
1.19841
1.19837
1.19832
1.19828
1.19824
1.1982
1.19816
1.19813
1.19809
1.19806
1.19803
1.19801
1.19798
1.19797
1.19795
1.19794
1.19793
1.19793
1.19793
1.19793
1.19794
1.19796
1.19798
1.19801
1.19804
1.19808
1.19813
1.19819
1.19825
1.19832
1.19839
1.19848
1.19857
1.19867
1.19878
1.1989
1.19902
1.19916
1.19931
1.19946
1.19963
1.1998
1.19999
1.20018
1.20038
1.2006
1.20082
1.20105
1.20129
1.20154
1.2018
1.20206
1.20233
1.20261
1.2029
1.20319
1.20348
1.20378
1.20409
1.20439
1.2047
1.205
1.20531
1.20562
1.20592
1.20622
1.20652
1.20681
1.20709
1.20737
1.20764
1.2079
1.20816
1.2084
1.20864
1.20887
1.20908
1.20929
1.20949
1.20968
1.20985
1.21002
1.21019
1.21034
1.21048
1.21062
1.21075
1.21087
1.21099
1.2111
1.2112
1.2113
1.2114
1.21148
1.21157
1.21164
1.21172
1.21179
1.21185
1.21191
1.21197
1.21202
1.21207
1.21211
1.21215
1.21218
1.21221
1.21223
1.21225
1.21227
1.21228
1.21229
1.21229
1.21228
1.21228
1.21227
1.21225
1.21224
1.21221
1.21219
1.21217
1.21214
1.21212
1.21209
1.21207
1.21204
1.21202
1.212
1.21199
1.21198
1.21198
1.21198
1.212
1.21202
1.21205
1.21209
1.21214
1.21221
1.21229
1.21239
1.2125
1.21262
1.21277
1.21293
1.21312
1.21332
1.21355
1.2138
1.21407
1.21437
1.21469
1.21504
1.21542
1.21582
1.21626
1.21672
1.21721
1.21774
1.2183
1.21889
1.21952
1.22019
1.22089
1.22164
1.22242
1.22325
1.22412
1.22504
1.22601
1.22703
1.22811
1.22925
1.23046
1.23175
1.23311
1.23456
1.2361
1.23773
1.23947
1.24129
1.24318
1.24509
1.24695
1.24864
1.24999
1.25089
1.25118
1.25085
1.19257
1.19218
1.19203
1.1921
1.19233
1.19268
1.19309
1.19353
1.19397
1.19438
1.19477
1.19512
1.19543
1.19571
1.19596
1.19617
1.19636
1.19652
1.19666
1.19677
1.19687
1.19695
1.19701
1.19707
1.19711
1.19713
1.19715
1.19716
1.19716
1.19716
1.19714
1.19712
1.1971
1.19707
1.19704
1.197
1.19696
1.19692
1.19687
1.19682
1.19677
1.19673
1.19668
1.19663
1.19658
1.19653
1.19648
1.19644
1.19639
1.19635
1.19631
1.19628
1.19625
1.19623
1.19621
1.19619
1.19618
1.19618
1.19618
1.1962
1.19621
1.19624
1.19628
1.19632
1.19637
1.19643
1.1965
1.19658
1.19666
1.19676
1.19686
1.19698
1.1971
1.19723
1.19737
1.19752
1.19768
1.19785
1.19802
1.1982
1.19839
1.19858
1.19878
1.19899
1.1992
1.19942
1.19964
1.19987
1.2001
1.20033
1.20057
1.20081
1.20104
1.20128
1.20151
1.20174
1.20197
1.2022
1.20242
1.20264
1.20285
1.20305
1.20325
1.20344
1.20362
1.20379
1.20396
1.20411
1.20426
1.20439
1.20451
1.20462
1.20472
1.2048
1.20487
1.20493
1.20497
1.205
1.20502
1.20502
1.20501
1.20499
1.20496
1.20491
1.20486
1.20479
1.20472
1.20464
1.20455
1.20446
1.20436
1.20425
1.20414
1.20403
1.20392
1.2038
1.20369
1.20357
1.20345
1.20333
1.20321
1.20309
1.20297
1.20286
1.20274
1.20263
1.20252
1.20241
1.2023
1.20219
1.20209
1.20199
1.20189
1.2018
1.2017
1.20161
1.20152
1.20144
1.20135
1.20127
1.2012
1.20112
1.20104
1.20097
1.2009
1.20083
1.20077
1.2007
1.20064
1.20058
1.20052
1.20046
1.20041
1.20035
1.2003
1.20024
1.20019
1.20014
1.20009
1.20004
1.19999
1.19994
1.19989
1.19984
1.19979
1.19974
1.19969
1.19964
1.19959
1.19955
1.1995
1.19945
1.1994
1.19935
1.1993
1.19925
1.1992
1.19915
1.1991
1.19905
1.199
1.19895
1.1989
1.19885
1.1988
1.19875
1.1987
1.19865
1.1986
1.19855
1.1985
1.19845
1.19841
1.19836
1.19832
1.19828
1.19823
1.19819
1.19816
1.19812
1.19809
1.19806
1.19803
1.198
1.19798
1.19796
1.19794
1.19793
1.19792
1.19792
1.19792
1.19792
1.19793
1.19795
1.19797
1.198
1.19803
1.19807
1.19812
1.19817
1.19823
1.1983
1.19837
1.19846
1.19855
1.19865
1.19876
1.19888
1.19901
1.19914
1.19929
1.19944
1.19961
1.19979
1.19997
1.20016
1.20037
1.20058
1.20081
1.20104
1.20128
1.20153
1.20179
1.20206
1.20233
1.20261
1.2029
1.2032
1.20349
1.2038
1.2041
1.20441
1.20472
1.20503
1.20534
1.20565
1.20596
1.20626
1.20656
1.20686
1.20714
1.20742
1.2077
1.20796
1.20821
1.20846
1.2087
1.20892
1.20914
1.20934
1.20954
1.20972
1.2099
1.21007
1.21023
1.21038
1.21052
1.21065
1.21078
1.2109
1.21101
1.21112
1.21122
1.21132
1.21141
1.2115
1.21158
1.21165
1.21172
1.21179
1.21186
1.21191
1.21197
1.21202
1.21207
1.21211
1.21215
1.21218
1.21221
1.21223
1.21225
1.21226
1.21227
1.21228
1.21228
1.21227
1.21226
1.21225
1.21224
1.21222
1.21219
1.21217
1.21214
1.21211
1.21208
1.21205
1.21203
1.212
1.21198
1.21195
1.21194
1.21193
1.21192
1.21192
1.21193
1.21195
1.21197
1.21201
1.21206
1.21213
1.2122
1.21229
1.2124
1.21253
1.21267
1.21283
1.21301
1.21321
1.21343
1.21368
1.21395
1.21424
1.21456
1.21491
1.21528
1.21568
1.21611
1.21657
1.21706
1.21758
1.21813
1.21872
1.21934
1.22
1.22069
1.22142
1.22219
1.223
1.22386
1.22475
1.2257
1.22669
1.22773
1.22883
1.22999
1.23121
1.2325
1.23385
1.23527
1.23676
1.23831
1.2399
1.24151
1.24309
1.24456
1.24583
1.2468
1.24739
1.24754
1.24719
1.19334
1.19301
1.19285
1.19285
1.19299
1.19322
1.19351
1.19384
1.19419
1.19452
1.19485
1.19515
1.19542
1.19567
1.19589
1.19609
1.19627
1.19642
1.19655
1.19666
1.19676
1.19684
1.1969
1.19696
1.197
1.19703
1.19705
1.19706
1.19706
1.19706
1.19705
1.19703
1.19701
1.19698
1.19695
1.19691
1.19688
1.19683
1.19679
1.19675
1.1967
1.19665
1.1966
1.19655
1.19651
1.19646
1.19641
1.19637
1.19632
1.19629
1.19625
1.19621
1.19618
1.19616
1.19614
1.19613
1.19612
1.19612
1.19612
1.19613
1.19615
1.19618
1.19621
1.19625
1.19631
1.19637
1.19644
1.19652
1.1966
1.1967
1.19681
1.19692
1.19705
1.19718
1.19732
1.19747
1.19763
1.1978
1.19797
1.19815
1.19834
1.19854
1.19874
1.19895
1.19917
1.19939
1.19961
1.19985
1.20008
1.20031
1.20055
1.20079
1.20103
1.20127
1.20151
1.20174
1.20198
1.20221
1.20243
1.20265
1.20286
1.20307
1.20327
1.20346
1.20364
1.20382
1.20399
1.20414
1.20429
1.20442
1.20454
1.20466
1.20475
1.20484
1.20491
1.20496
1.20501
1.20503
1.20505
1.20505
1.20504
1.20501
1.20497
1.20493
1.20487
1.2048
1.20472
1.20464
1.20455
1.20445
1.20435
1.20424
1.20413
1.20402
1.2039
1.20379
1.20367
1.20355
1.20343
1.20331
1.20319
1.20307
1.20295
1.20283
1.20272
1.2026
1.20249
1.20238
1.20227
1.20217
1.20207
1.20197
1.20187
1.20177
1.20168
1.20159
1.2015
1.20142
1.20133
1.20125
1.20118
1.2011
1.20103
1.20096
1.20089
1.20082
1.20075
1.20069
1.20063
1.20057
1.20051
1.20045
1.20039
1.20034
1.20028
1.20023
1.20018
1.20013
1.20007
1.20002
1.19997
1.19992