# vtk DataFile Version 2.0
LBE mesh
ASCII
DATASET STRUCTURED_POINTS
DIMENSIONS 400 100 1
ASPECT_RATIO 1 1 1
ORIGIN 0 0 0
POINT_DATA 40000
SCALARS rho double 1
LOOKUP_TABLE default
1.2044
1.30539
1.33387
1.3385
1.34055
1.34262
1.34419
1.34519
1.34587
1.34636
1.34675
1.34706
1.34731
1.34751
1.34767
1.3478
1.34791
1.34801
1.34808
1.34814
1.34819
1.34822
1.34825
1.34826
1.34827
1.34827
1.34827
1.34825
1.34824
1.34821
1.34818
1.34815
1.34812
1.34808
1.34804
1.34799
1.34795
1.3479
1.34785
1.3478
1.34775
1.3477
1.34765
1.3476
1.34755
1.34751
1.34747
1.34743
1.34739
1.34736
1.34733
1.34731
1.34729
1.34728
1.34727
1.34727
1.34728
1.34729
1.34731
1.34734
1.34738
1.34743
1.34748
1.34755
1.34762
1.3477
1.3478
1.3479
1.34801
1.34813
1.34826
1.3484
1.34855
1.34871
1.34888
1.34906
1.34925
1.34945
1.34965
1.34987
1.35009
1.35032
1.35056
1.35081
1.35106
1.35132
1.35159
1.35186
1.35214
1.35243
1.35272
1.35301
1.35331
1.35361
1.35391
1.35422
1.35452
1.35483
1.35514
1.35544
1.35574
1.35604
1.35634
1.35664
1.35693
1.35721
1.35749
1.35776
1.35803
1.35829
1.35853
1.35878
1.35901
1.35923
1.35944
1.35964
1.35983
1.36001
1.36018
1.36033
1.36048
1.36061
1.36073
1.36085
1.36095
1.36104
1.36112
1.36119
1.36125
1.3613
1.36135
1.36139
1.36142
1.36144
1.36146
1.36147
1.36148
1.36148
1.36148
1.36147
1.36146
1.36145
1.36143
1.36142
1.3614
1.36137
1.36135
1.36133
1.3613
1.36127
1.36124
1.36122
1.36119
1.36116
1.36113
1.3611
1.36107
1.36104
1.36101
1.36098
1.36095
1.36093
1.3609
1.36087
1.36084
1.36082
1.36079
1.36076
1.36074
1.36071
1.36069
1.36066
1.36064
1.36062
1.36059
1.36057
1.36055
1.36053
1.36051
1.36049
1.36046
1.36045
1.36043
1.36041
1.36039
1.36037
1.36035
1.36034
1.36032
1.36031
1.36029
1.36028
1.36026
1.36025
1.36024
1.36023
1.36022
1.36022
1.36021
1.3602
1.3602
1.3602
1.3602
1.3602
1.36021
1.36021
1.36022
1.36023
1.36025
1.36026
1.36028
1.36031
1.36033
1.36036
1.36039
1.36043
1.36047
1.36052
1.36057
1.36062
1.36068
1.36074
1.36081
1.36088
1.36096
1.36105
1.36114
1.36124
1.36134
1.36145
1.36157
1.3617
1.36183
1.36197
1.36211
1.36227
1.36243
1.3626
1.36278
1.36296
1.36316
1.36336
1.36357
1.36379
1.36402
1.36426
1.36451
1.36476
1.36503
1.3653
1.36558
1.36587
1.36617
1.36648
1.3668
1.36712
1.36745
1.36779
1.36814
1.36849
1.36885
1.36922
1.36959
1.36997
1.37035
1.37074
1.37113
1.37152
1.37191
1.37231
1.37271
1.3731
1.3735
1.37389
1.37428
1.37467
1.37505
1.37543
1.3758
1.37616
1.37652
1.37687
1.37721
1.37754
1.37786
1.37817
1.37847
1.37876
1.37904
1.3793
1.37956
1.3798
1.38004
1.38026
1.38048
1.38068
1.38087
1.38106
1.38123
1.3814
1.38156
1.38171
1.38186
1.382
1.38213
1.38226
1.38238
1.38249
1.3826
1.38271
1.38282
1.38292
1.38301
1.3831
1.38319
1.38328
1.38337
1.38345
1.38353
1.38361
1.38368
1.38376
1.38383
1.3839
1.38397
1.38404
1.38411
1.38418
1.38425
1.38432
1.38439
1.38446
1.38454
1.38461
1.38469
1.38477
1.38485
1.38494
1.38503
1.38513
1.38523
1.38534
1.38546
1.38559
1.38572
1.38587
1.38602
1.38619
1.38637
1.38656
1.38677
1.38699
1.38722
1.38747
1.38774
1.38803
1.38834
1.38867
1.38901
1.38938
1.38978
1.39019
1.39064
1.39111
1.3916
1.39212
1.39268
1.39326
1.39388
1.39453
1.39521
1.39593
1.39669
1.39748
1.39832
1.39921
1.40014
1.40113
1.40217
1.40327
1.40443
1.40567
1.40699
1.4084
1.40991
1.41153
1.41329
1.41521
1.41732
1.41966
1.42229
1.42527
1.42873
1.43281
1.43778
1.4442
1.45317
1.4658
1.48406
1.52066
1.29815
1.30564
1.31905
1.33132
1.33754
1.34052
1.34233
1.34365
1.34464
1.34536
1.34592
1.34635
1.34669
1.34697
1.34719
1.34738
1.34754
1.34766
1.34777
1.34786
1.34793
1.34798
1.34803
1.34806
1.34808
1.34809
1.3481
1.3481
1.34809
1.34807
1.34805
1.34803
1.348
1.34797
1.34793
1.34789
1.34785
1.34781
1.34776
1.34772
1.34767
1.34762
1.34758
1.34753
1.34749
1.34745
1.34741
1.34737
1.34734
1.34731
1.34729
1.34727
1.34725
1.34724
1.34724
1.34724
1.34725
1.34727
1.34729
1.34732
1.34736
1.34741
1.34747
1.34753
1.34761
1.3477
1.34779
1.34789
1.34801
1.34813
1.34826
1.34841
1.34856
1.34872
1.34889
1.34907
1.34926
1.34946
1.34967
1.34988
1.35011
1.35034
1.35058
1.35082
1.35108
1.35134
1.35161
1.35188
1.35216
1.35245
1.35274
1.35303
1.35333
1.35363
1.35393
1.35424
1.35454
1.35485
1.35515
1.35545
1.35576
1.35606
1.35635
1.35665
1.35693
1.35722
1.35749
1.35777
1.35803
1.35829
1.35853
1.35877
1.359
1.35922
1.35943
1.35963
1.35982
1.36
1.36016
1.36032
1.36046
1.36059
1.36071
1.36082
1.36092
1.36101
1.36109
1.36116
1.36122
1.36128
1.36132
1.36136
1.36139
1.36141
1.36143
1.36144
1.36145
1.36145
1.36145
1.36144
1.36143
1.36142
1.36141
1.36139
1.36137
1.36135
1.36133
1.3613
1.36128
1.36125
1.36122
1.3612
1.36117
1.36114
1.36111
1.36108
1.36105
1.36102
1.361
1.36097
1.36094
1.36091
1.36088
1.36086
1.36083
1.3608
1.36078
1.36075
1.36073
1.3607
1.36068
1.36065
1.36063
1.36061
1.36058
1.36056
1.36054
1.36052
1.3605
1.36048
1.36046
1.36044
1.36042
1.3604
1.36038
1.36036
1.36035
1.36033
1.36031
1.3603
1.36029
1.36027
1.36026
1.36025
1.36024
1.36023
1.36022
1.36021
1.36021
1.3602
1.3602
1.3602
1.3602
1.3602
1.36021
1.36021
1.36022
1.36023
1.36025
1.36027
1.36029
1.36031
1.36034
1.36037
1.3604
1.36044
1.36048
1.36052
1.36057
1.36063
1.36069
1.36075
1.36082
1.3609
1.36098
1.36106
1.36115
1.36125
1.36136
1.36147
1.36159
1.36171
1.36185
1.36199
1.36213
1.36229
1.36245
1.36262
1.3628
1.36299
1.36318
1.36339
1.3636
1.36382
1.36405
1.36429
1.36454
1.3648
1.36506
1.36533
1.36562
1.36591
1.36621
1.36652
1.36683
1.36716
1.36749
1.36783
1.36818
1.36853
1.36889
1.36926
1.36963
1.37001
1.37039
1.37078
1.37116
1.37156
1.37195
1.37234
1.37274
1.37313
1.37353
1.37392
1.37431
1.37469
1.37507
1.37545
1.37582
1.37618
1.37653
1.37688
1.37722
1.37755
1.37786
1.37817
1.37847
1.37876
1.37903
1.3793
1.37955
1.3798
1.38003
1.38025
1.38046
1.38067
1.38086
1.38104
1.38122
1.38138
1.38154
1.3817
1.38184
1.38198
1.38211
1.38224
1.38236
1.38248
1.38259
1.3827
1.3828
1.3829
1.383
1.38309
1.38318
1.38327
1.38335
1.38344
1.38352
1.3836
1.38367
1.38375
1.38382
1.38389
1.38396
1.38403
1.3841
1.38417
1.38424
1.38431
1.38439
1.38446
1.38453
1.38461
1.38468
1.38477
1.38485
1.38494
1.38503
1.38513
1.38524
1.38535
1.38547
1.3856
1.38573
1.38588
1.38604
1.38621
1.38639
1.38658
1.38679
1.38701
1.38725
1.38751
1.38778
1.38807
1.38838
1.38871
1.38906
1.38944
1.38983
1.39025
1.3907
1.39117
1.39167
1.3922
1.39276
1.39335
1.39397
1.39462
1.39531
1.39603
1.3968
1.3976
1.39845
1.39934
1.40028
1.40128
1.40233
1.40344
1.40462
1.40587
1.40721
1.40864
1.41017
1.41183
1.41363
1.4156
1.41777
1.42019
1.42291
1.42603
1.42967
1.43402
1.43939
1.44618
1.45499
1.46786
1.49046
1.52631
1.32014
1.3155
1.32395
1.33115
1.33548
1.33862
1.34089
1.34249
1.34363
1.3445
1.34517
1.3457
1.34612
1.34647
1.34675
1.34698
1.34718
1.34734
1.34747
1.34759
1.34768
1.34775
1.34781
1.34786
1.34789
1.34792
1.34794
1.34794
1.34794
1.34794
1.34792
1.34791
1.34788
1.34785
1.34782
1.34779
1.34775
1.34771
1.34767
1.34763
1.34759
1.34755
1.3475
1.34746
1.34742
1.34738
1.34735
1.34731
1.34728
1.34726
1.34723
1.34722
1.3472
1.3472
1.34719
1.3472
1.34721
1.34723
1.34726
1.34729
1.34733
1.34738
1.34744
1.34751
1.34759
1.34768
1.34777
1.34788
1.34799
1.34812
1.34825
1.3484
1.34855
1.34872
1.34889
1.34907
1.34926
1.34946
1.34967
1.34989
1.35011
1.35034
1.35059
1.35083
1.35109
1.35135
1.35162
1.3519
1.35218
1.35246
1.35275
1.35305
1.35334
1.35364
1.35395
1.35425
1.35456
1.35486
1.35517
1.35547
1.35577
1.35607
1.35637
1.35666
1.35695
1.35723
1.35751
1.35778
1.35804
1.35829
1.35854
1.35878
1.35901
1.35922
1.35943
1.35963
1.35982
1.35999
1.36015
1.36031
1.36045
1.36058
1.3607
1.36081
1.36091
1.361
1.36107
1.36114
1.3612
1.36126
1.3613
1.36134
1.36137
1.36139
1.36141
1.36142
1.36143
1.36143
1.36143
1.36142
1.36141
1.3614
1.36139
1.36137
1.36135
1.36133
1.36131
1.36128
1.36126
1.36123
1.3612
1.36118
1.36115
1.36112
1.36109
1.36107
1.36104
1.36101
1.36098
1.36095
1.36092
1.3609
1.36087
1.36084
1.36082
1.36079
1.36076
1.36074
1.36071
1.36069
1.36067
1.36064
1.36062
1.3606
1.36057
1.36055
1.36053
1.36051
1.36049
1.36047
1.36045
1.36043
1.36041
1.36039
1.36037
1.36036
1.36034
1.36032
1.36031
1.36029
1.36028
1.36027
1.36025
1.36024
1.36023
1.36022
1.36021
1.36021
1.3602
1.3602
1.36019
1.36019
1.36019
1.3602
1.3602
1.36021
1.36022
1.36023
1.36025
1.36026
1.36028
1.36031
1.36034
1.36037
1.3604
1.36044
1.36048
1.36053
1.36058
1.36063
1.36069
1.36076
1.36083
1.3609
1.36098
1.36107
1.36116
1.36126
1.36137
1.36148
1.3616
1.36172
1.36186
1.362
1.36215
1.3623
1.36247
1.36264
1.36282
1.36301
1.3632
1.36341
1.36362
1.36384
1.36407
1.36431
1.36456
1.36482
1.36509
1.36536
1.36564
1.36594
1.36624
1.36655
1.36686
1.36719
1.36752
1.36786
1.36821
1.36856
1.36892
1.36929
1.36966
1.37004
1.37042
1.37081
1.3712
1.37159
1.37198
1.37238
1.37277
1.37317
1.37356
1.37395
1.37434
1.37472
1.3751
1.37547
1.37584
1.3762
1.37656
1.3769
1.37724
1.37756
1.37788
1.37819
1.37848
1.37877
1.37904
1.3793
1.37956
1.3798
1.38003
1.38025
1.38046
1.38066
1.38085
1.38104
1.38121
1.38138
1.38153
1.38169
1.38183
1.38197
1.3821
1.38223
1.38235
1.38246
1.38258
1.38268
1.38279
1.38289
1.38298
1.38308
1.38317
1.38326
1.38334
1.38342
1.38351
1.38358
1.38366
1.38374
1.38381
1.38388
1.38395
1.38402
1.38409
1.38417
1.38423
1.38431
1.38438
1.38445
1.38452
1.3846
1.38468
1.38476
1.38484
1.38493
1.38503
1.38513
1.38523
1.38535
1.38547
1.3856
1.38574
1.38588
1.38604
1.38621
1.38639
1.38659
1.3868
1.38702
1.38726
1.38752
1.3878
1.38809
1.3884
1.38873
1.38909
1.38947
1.38986
1.39029
1.39074
1.39121
1.39172
1.39225
1.39281
1.3934
1.39402
1.39468
1.39537
1.3961
1.39687
1.39768
1.39853
1.39943
1.40037
1.40137
1.40243
1.40355
1.40473
1.40599
1.40734
1.40877
1.41032
1.41199
1.4138
1.41578
1.41797
1.4204
1.42315
1.42628
1.42992
1.43422
1.43941
1.44593
1.45437
1.46495
1.47645
1.48743
1.32785
1.32655
1.32901
1.3319
1.33535
1.33817
1.34019
1.34172
1.34291
1.34384
1.34457
1.34516
1.34564
1.34603
1.34635
1.34662
1.34685
1.34704
1.3472
1.34733
1.34744
1.34754
1.34761
1.34767
1.34772
1.34775
1.34778
1.3478
1.3478
1.3478
1.3478
1.34779
1.34777
1.34775
1.34772
1.34769
1.34766
1.34762
1.34759
1.34755
1.34751
1.34747
1.34743
1.34739
1.34735
1.34732
1.34728
1.34725
1.34722
1.3472
1.34718
1.34716
1.34715
1.34715
1.34715
1.34715
1.34717
1.34719
1.34722
1.34725
1.3473
1.34735
1.34741
1.34748
1.34756
1.34765
1.34775
1.34786
1.34797
1.3481
1.34824
1.34838
1.34854
1.3487
1.34888
1.34906
1.34925
1.34945
1.34966
1.34988
1.35011
1.35034
1.35059
1.35084
1.35109
1.35136
1.35163
1.3519
1.35218
1.35247
1.35276
1.35306
1.35336
1.35366
1.35396
1.35427
1.35457
1.35488
1.35518
1.35549
1.35579
1.35609
1.35638
1.35668
1.35696
1.35725
1.35752
1.35779
1.35805
1.35831
1.35855
1.35879
1.35902
1.35923
1.35944
1.35964
1.35982
1.36
1.36016
1.36031
1.36045
1.36058
1.3607
1.3608
1.3609
1.36099
1.36106
1.36113
1.36119
1.36124
1.36128
1.36132
1.36135
1.36137
1.36139
1.3614
1.36141
1.36141
1.36141
1.3614
1.36139
1.36138
1.36136
1.36135
1.36133
1.36131
1.36129
1.36126
1.36124
1.36121
1.36119
1.36116
1.36113
1.3611
1.36108
1.36105
1.36102
1.36099
1.36096
1.36094
1.36091
1.36088
1.36086
1.36083
1.3608
1.36078
1.36075
1.36073
1.3607
1.36068
1.36065
1.36063
1.36061
1.36059
1.36056
1.36054
1.36052
1.3605
1.36048
1.36046
1.36044
1.36042
1.3604
1.36038
1.36036
1.36035
1.36033
1.36031
1.3603
1.36028
1.36027
1.36026
1.36025
1.36023
1.36022
1.36021
1.36021
1.3602
1.36019
1.36019
1.36019
1.36019
1.36019
1.36019
1.3602
1.36021
1.36021
1.36023
1.36024
1.36026
1.36028
1.3603
1.36033
1.36036
1.3604
1.36044
1.36048
1.36052
1.36057
1.36063
1.36069
1.36076
1.36083
1.3609
1.36098
1.36107
1.36117
1.36126
1.36137
1.36148
1.3616
1.36173
1.36186
1.362
1.36215
1.36231
1.36247
1.36265
1.36283
1.36302
1.36321
1.36342
1.36363
1.36386
1.36409
1.36433
1.36458
1.36484
1.3651
1.36538
1.36566
1.36596
1.36626
1.36657
1.36688
1.36721
1.36754
1.36789
1.36823
1.36859
1.36895
1.36932
1.36969
1.37007
1.37045
1.37084
1.37123
1.37162
1.37201
1.37241
1.3728
1.3732
1.37359
1.37398
1.37437
1.37475
1.37513
1.37551
1.37587
1.37623
1.37659
1.37693
1.37726
1.37759
1.3779
1.37821
1.3785
1.37879
1.37906
1.37932
1.37957
1.37981
1.38004
1.38026
1.38047
1.38067
1.38086
1.38104
1.38121
1.38137
1.38153
1.38168
1.38182
1.38196
1.38209
1.38222
1.38234
1.38246
1.38257
1.38267
1.38278
1.38288
1.38297
1.38307
1.38316
1.38325
1.38333
1.38341
1.3835
1.38357
1.38365
1.38373
1.3838
1.38387
1.38394
1.38402
1.38409
1.38416
1.38422
1.3843
1.38437
1.38444
1.38451
1.38459
1.38467
1.38475
1.38483
1.38492
1.38502
1.38512
1.38522
1.38534
1.38546
1.38559
1.38573
1.38587
1.38603
1.3862
1.38639
1.38658
1.38679
1.38702
1.38726
1.38752
1.3878
1.38809
1.3884
1.38874
1.38909
1.38947
1.38987
1.3903
1.39075
1.39123
1.39173
1.39226
1.39283
1.39342
1.39405
1.3947
1.3954
1.39613
1.3969
1.39771
1.39856
1.39946
1.40041
1.40141
1.40247
1.40359
1.40477
1.40603
1.40737
1.40881
1.41035
1.41201
1.41381
1.41577
1.41793
1.42033
1.42302
1.42606
1.42954
1.43359
1.43834
1.44391
1.45037
1.45756
1.46339
1.46356
1.33258
1.33215
1.33264
1.33429
1.33644
1.33835
1.34001
1.34139
1.34251
1.34341
1.34414
1.34475
1.34525
1.34567
1.34602
1.34631
1.34656
1.34677
1.34695
1.3471
1.34723
1.34733
1.34742
1.34749
1.34755
1.3476
1.34763
1.34765
1.34767
1.34768
1.34768
1.34767
1.34766
1.34764
1.34762
1.34759
1.34756
1.34753
1.3475
1.34746
1.34743
1.34739
1.34735
1.34732
1.34728
1.34725
1.34722
1.34719
1.34716
1.34714
1.34712
1.34711
1.3471
1.34709
1.34709
1.3471
1.34712
1.34714
1.34717
1.34721
1.34725
1.34731
1.34737
1.34744
1.34753
1.34762
1.34772
1.34783
1.34794
1.34807
1.34821
1.34836
1.34852
1.34868
1.34886
1.34904
1.34924
1.34944
1.34965
1.34987
1.3501
1.35034
1.35058
1.35083
1.35109
1.35135
1.35163
1.3519
1.35219
1.35247
1.35277
1.35306
1.35336
1.35367
1.35397
1.35428
1.35458
1.35489
1.3552
1.3555
1.35581
1.35611
1.3564
1.35669
1.35698
1.35726
1.35754
1.35781
1.35807
1.35833
1.35857
1.35881
1.35904
1.35925
1.35946
1.35965
1.35984
1.36001
1.36017
1.36032
1.36046
1.36059
1.3607
1.36081
1.3609
1.36099
1.36106
1.36113
1.36119
1.36123
1.36128
1.36131
1.36134
1.36136
1.36137
1.36139
1.36139
1.36139
1.36139
1.36138
1.36137
1.36136
1.36135
1.36133
1.36131
1.36129
1.36127
1.36124
1.36122
1.36119
1.36117
1.36114
1.36111
1.36109
1.36106
1.36103
1.361
1.36098
1.36095
1.36092
1.3609
1.36087
1.36084
1.36082
1.36079
1.36076
1.36074
1.36071
1.36069
1.36067
1.36064
1.36062
1.3606
1.36057
1.36055
1.36053
1.36051
1.36049
1.36047
1.36045
1.36043
1.36041
1.36039
1.36037
1.36036
1.36034
1.36032
1.36031
1.36029
1.36028
1.36026
1.36025
1.36024
1.36023
1.36022
1.36021
1.3602
1.36019
1.36019
1.36018
1.36018
1.36018
1.36018
1.36019
1.36019
1.3602
1.36021
1.36022
1.36024
1.36025
1.36027
1.3603
1.36033
1.36036
1.36039
1.36043
1.36047
1.36052
1.36057
1.36063
1.36069
1.36075
1.36082
1.3609
1.36098
1.36107
1.36116
1.36126
1.36137
1.36148
1.3616
1.36173
1.36186
1.362
1.36215
1.36231
1.36247
1.36265
1.36283
1.36302
1.36322
1.36342
1.36364
1.36386
1.36409
1.36433
1.36458
1.36484
1.36511
1.36539
1.36567
1.36597
1.36627
1.36658
1.3669
1.36723
1.36756
1.3679
1.36825
1.36861
1.36897
1.36934
1.36971
1.37009
1.37048
1.37087
1.37126
1.37165
1.37204
1.37244
1.37284
1.37323
1.37363
1.37402
1.37441
1.37479
1.37517
1.37554
1.37591
1.37627
1.37662
1.37696
1.3773
1.37762
1.37794
1.37824
1.37853
1.37881
1.37908
1.37934
1.37959
1.37983
1.38006
1.38027
1.38048
1.38068
1.38087
1.38104
1.38122
1.38138
1.38153
1.38168
1.38183
1.38196
1.38209
1.38222
1.38234
1.38245
1.38256
1.38267
1.38277
1.38287
1.38297
1.38306
1.38315
1.38324
1.38332
1.38341
1.38349
1.38357
1.38364
1.38372
1.38379
1.38386
1.38393
1.38401
1.38408
1.38414
1.38421
1.38428
1.38435
1.38443
1.3845
1.38458
1.38465
1.38473
1.38482
1.38491
1.385
1.3851
1.38521
1.38532
1.38544
1.38557
1.38571
1.38586
1.38602
1.38619
1.38637
1.38656
1.38678
1.387
1.38724
1.3875
1.38778
1.38807
1.38839
1.38872
1.38908
1.38945
1.38986
1.39028
1.39073
1.39121
1.39172
1.39225
1.39281
1.39341
1.39403
1.39469
1.39539
1.39612
1.39689
1.3977
1.39855
1.39945
1.40039
1.40139
1.40244
1.40356
1.40473
1.40598
1.40731
1.40873
1.41025
1.41189
1.41365
1.41557
1.41767
1.41998
1.42254
1.42541
1.42862
1.43224
1.43632
1.44082
1.44543
1.44958
1.45242
1.45165
1.33609
1.33547
1.33555
1.33646
1.33767
1.33899
1.34027
1.3414
1.34236
1.34319
1.34388
1.34447
1.34497
1.34539
1.34575
1.34605
1.34632
1.34654
1.34673
1.34689
1.34703
1.34715
1.34725
1.34733
1.34739
1.34745
1.34749
1.34752
1.34754
1.34755
1.34756
1.34756
1.34755
1.34754
1.34752
1.3475
1.34747
1.34744
1.34741
1.34738
1.34735
1.34731
1.34728
1.34724
1.34721
1.34718
1.34715
1.34712
1.34709
1.34707
1.34706
1.34704
1.34704
1.34703
1.34704
1.34705
1.34706
1.34709
1.34712
1.34716
1.3472
1.34726
1.34732
1.3474
1.34748
1.34757
1.34768
1.34779
1.34791
1.34804
1.34818
1.34833
1.34849
1.34865
1.34883
1.34902
1.34921
1.34942
1.34963
1.34985
1.35008
1.35032
1.35057
1.35082
1.35108
1.35135
1.35162
1.3519
1.35218
1.35247
1.35277
1.35307
1.35337
1.35367
1.35398
1.35429
1.3546
1.35491
1.35521
1.35552
1.35582
1.35612
1.35642
1.35672
1.357
1.35729
1.35757
1.35784
1.3581
1.35835
1.3586
1.35884
1.35906
1.35928
1.35948
1.35968
1.35986
1.36003
1.36019
1.36034
1.36048
1.3606
1.36072
1.36082
1.36091
1.36099
1.36107
1.36113
1.36119
1.36123
1.36127
1.36131
1.36133
1.36135
1.36137
1.36138
1.36138
1.36138
1.36138
1.36137
1.36136
1.36135
1.36133
1.36131
1.36129
1.36127
1.36125
1.36123
1.3612
1.36118
1.36115
1.36112
1.3611
1.36107
1.36104
1.36102
1.36099
1.36096
1.36093
1.36091
1.36088
1.36085
1.36083
1.3608
1.36078
1.36075
1.36073
1.3607
1.36068
1.36065
1.36063
1.36061
1.36058
1.36056
1.36054
1.36052
1.3605
1.36048
1.36046
1.36044
1.36042
1.3604
1.36038
1.36036
1.36035
1.36033
1.36031
1.3603
1.36028
1.36027
1.36025
1.36024
1.36023
1.36022
1.36021
1.3602
1.36019
1.36018
1.36018
1.36017
1.36017
1.36017
1.36017
1.36018
1.36018
1.36019
1.3602
1.36021
1.36023
1.36024
1.36026
1.36029
1.36032
1.36035
1.36038
1.36042
1.36046
1.36051
1.36056
1.36062
1.36068
1.36074
1.36081
1.36089
1.36097
1.36106
1.36115
1.36125
1.36136
1.36147
1.36159
1.36172
1.36185
1.362
1.36215
1.3623
1.36247
1.36264
1.36282
1.36301
1.36321
1.36342
1.36363
1.36386
1.36409
1.36433
1.36458
1.36484
1.36511
1.36539
1.36567
1.36597
1.36627
1.36658
1.3669
1.36723
1.36757
1.36791
1.36826
1.36862
1.36899
1.36936
1.36973
1.37011
1.3705
1.37089
1.37128
1.37168
1.37207
1.37247
1.37287
1.37326
1.37366
1.37405
1.37444
1.37483
1.37521
1.37558
1.37595
1.37631
1.37666
1.37701
1.37734
1.37766
1.37798
1.37828
1.37857
1.37885
1.37912
1.37938
1.37962
1.37986
1.38008
1.3803
1.3805
1.3807
1.38088
1.38106
1.38123
1.38139
1.38154
1.38169
1.38183
1.38197
1.38209
1.38222
1.38234
1.38245
1.38256
1.38267
1.38277
1.38287
1.38296
1.38306
1.38315
1.38323
1.38332
1.3834
1.38348
1.38356
1.38364
1.38371
1.38378
1.38386
1.38393
1.384
1.38407
1.38413
1.3842
1.38427
1.38434
1.38441
1.38449
1.38456
1.38464
1.38472
1.3848
1.38489
1.38498
1.38508
1.38518
1.3853
1.38542
1.38554
1.38568
1.38583
1.38599
1.38616
1.38634
1.38653
1.38674
1.38697
1.38721
1.38747
1.38774
1.38804
1.38835
1.38868
1.38904
1.38942
1.38982
1.39024
1.39069
1.39117
1.39168
1.39221
1.39277
1.39337
1.39399
1.39465
1.39534
1.39607
1.39684
1.39764
1.39849
1.39939
1.40033
1.40132
1.40236
1.40346
1.40462
1.40586
1.40717
1.40856
1.41004
1.41164
1.41335
1.4152
1.4172
1.41939
1.42178
1.42441
1.42728
1.43042
1.43376
1.43719
1.44042
1.44291
1.44418
1.44388
1.33847
1.33778
1.33774
1.33818
1.3389
1.3398
1.34073
1.34161
1.34242
1.34314
1.34376
1.34431
1.34478
1.34519
1.34554
1.34585
1.34612
1.34634
1.34654
1.34671
1.34686
1.34698
1.34709
1.34718
1.34725
1.34731
1.34736
1.34739
1.34742
1.34744
1.34745
1.34745
1.34745
1.34744
1.34742
1.3474
1.34738
1.34736
1.34733
1.3473
1.34727
1.34723
1.3472
1.34717
1.34714
1.34711
1.34708
1.34705
1.34703
1.34701
1.34699
1.34698
1.34697
1.34697
1.34698
1.34699
1.347
1.34703
1.34706
1.3471
1.34715
1.34721
1.34727
1.34735
1.34743
1.34753
1.34763
1.34774
1.34786
1.34799
1.34814
1.34829
1.34845
1.34862
1.3488
1.34899
1.34918
1.34939
1.3496
1.34983
1.35006
1.3503
1.35054
1.3508
1.35106
1.35133
1.35161
1.35189
1.35217
1.35247
1.35276
1.35306
1.35337
1.35368
1.35398
1.3543
1.35461
1.35492
1.35523
1.35553
1.35584
1.35614
1.35644
1.35674
1.35703
1.35731
1.35759
1.35786
1.35813
1.35838
1.35863
1.35887
1.35909
1.35931
1.35952
1.35971
1.35989
1.36006
1.36022
1.36037
1.3605
1.36063
1.36074
1.36084
1.36093
1.36101
1.36108
1.36114
1.36119
1.36124
1.36128
1.36131
1.36133
1.36135
1.36136
1.36137
1.36137
1.36137
1.36137
1.36136
1.36135
1.36133
1.36132
1.3613
1.36128
1.36126
1.36123
1.36121
1.36119
1.36116
1.36113
1.36111
1.36108
1.36105
1.36103
1.361
1.36097
1.36095
1.36092
1.36089
1.36087
1.36084
1.36081
1.36079
1.36076
1.36074
1.36071
1.36069
1.36067
1.36064
1.36062
1.3606
1.36057
1.36055
1.36053
1.36051
1.36049
1.36047
1.36045
1.36043
1.36041
1.36039
1.36037
1.36035
1.36034
1.36032
1.3603
1.36029
1.36027
1.36026
1.36024
1.36023
1.36022
1.36021
1.3602
1.36019
1.36018
1.36017
1.36017
1.36016
1.36016
1.36016
1.36016
1.36016
1.36017
1.36018
1.36019
1.3602
1.36021
1.36023
1.36025
1.36028
1.3603
1.36033
1.36037
1.36041
1.36045
1.3605
1.36055
1.3606
1.36066
1.36073
1.3608
1.36088
1.36096
1.36105
1.36114
1.36124
1.36135
1.36146
1.36158
1.36171
1.36184
1.36198
1.36213
1.36229
1.36245
1.36263
1.36281
1.363
1.3632
1.36341
1.36362
1.36385
1.36408
1.36432
1.36457
1.36483
1.3651
1.36538
1.36567
1.36596
1.36627
1.36658
1.3669
1.36723
1.36757
1.36791
1.36827
1.36863
1.36899
1.36937
1.36974
1.37013
1.37051
1.3709
1.3713
1.3717
1.3721
1.3725
1.3729
1.3733
1.37369
1.37409
1.37448
1.37487
1.37525
1.37563
1.376
1.37636
1.37671
1.37706
1.37739
1.37771
1.37802
1.37833
1.37862
1.37889
1.37916
1.37942
1.37966
1.37989
1.38012
1.38033
1.38053
1.38072
1.38091
1.38108
1.38125
1.38141
1.38156
1.3817
1.38184
1.38197
1.3821
1.38222
1.38234
1.38245
1.38256
1.38267
1.38277
1.38287
1.38296
1.38305
1.38314
1.38323
1.38331
1.3834
1.38348
1.38355
1.38363
1.3837
1.38378
1.38385
1.38392
1.38399
1.38406
1.38412
1.38419
1.38426
1.38433
1.3844
1.38447
1.38454
1.38462
1.3847
1.38478
1.38487
1.38496
1.38505
1.38516
1.38527
1.38538
1.38551
1.38565
1.38579
1.38595
1.38612
1.3863
1.38649
1.3867
1.38692
1.38716
1.38742
1.38769
1.38798
1.38829
1.38863
1.38898
1.38936
1.38976
1.39018
1.39063
1.39111
1.39161
1.39214
1.3927
1.39329
1.39391
1.39457
1.39526
1.39598
1.39675
1.39755
1.39839
1.39927
1.4002
1.40118
1.40221
1.4033
1.40444
1.40565
1.40693
1.40829
1.40973
1.41126
1.4129
1.41466
1.41655
1.41859
1.42078
1.42314
1.42566
1.4283
1.43098
1.43355
1.43578
1.43737
1.43799
1.43772
1.34009
1.33951
1.33937
1.33956
1.34
1.3406
1.34127
1.34195
1.3426
1.34321
1.34376
1.34425
1.34468
1.34506
1.3454
1.3457
1.34596
1.34619
1.34639
1.34656
1.34671
1.34684
1.34694
1.34704
1.34712
1.34718
1.34723
1.34727
1.3473
1.34733
1.34734
1.34735
1.34735
1.34734
1.34733
1.34731
1.34729
1.34727
1.34724
1.34722
1.34719
1.34716
1.34712
1.34709
1.34706
1.34703
1.347
1.34698
1.34696
1.34694
1.34692
1.34691
1.34691
1.34691
1.34691
1.34692
1.34694
1.34697
1.347
1.34704
1.34709
1.34715
1.34721
1.34729
1.34738
1.34747
1.34757
1.34769
1.34781
1.34795
1.34809
1.34824
1.3484
1.34858
1.34876
1.34895
1.34915
1.34935
1.34957
1.34979
1.35003
1.35027
1.35052
1.35077
1.35104
1.35131
1.35159
1.35187
1.35216
1.35246
1.35276
1.35306
1.35337
1.35368
1.35399
1.3543
1.35461
1.35493
1.35524
1.35555
1.35586
1.35616
1.35647
1.35676
1.35706
1.35734
1.35762
1.3579
1.35816
1.35842
1.35867
1.3589
1.35913
1.35935
1.35955
1.35975
1.35993
1.3601
1.36026
1.3604
1.36053
1.36065
1.36076
1.36086
1.36095
1.36103
1.3611
1.36115
1.3612
1.36125
1.36128
1.36131
1.36133
1.36135
1.36136
1.36136
1.36136
1.36136
1.36136
1.36135
1.36134
1.36132
1.3613
1.36129
1.36126
1.36124
1.36122
1.3612
1.36117
1.36115
1.36112
1.36109
1.36107
1.36104
1.36101
1.36098
1.36096
1.36093
1.3609
1.36088
1.36085
1.36082
1.3608
1.36077
1.36075
1.36072
1.3607
1.36068
1.36065
1.36063
1.36061
1.36058
1.36056
1.36054
1.36052
1.3605
1.36048
1.36046
1.36044
1.36042
1.3604
1.36038
1.36036
1.36034
1.36032
1.36031
1.36029
1.36027
1.36026
1.36025
1.36023
1.36022
1.36021
1.36019
1.36018
1.36017
1.36017
1.36016
1.36015
1.36015
1.36015
1.36015
1.36015
1.36015
1.36016
1.36016
1.36017
1.36018
1.3602
1.36022
1.36024
1.36026
1.36029
1.36032
1.36035
1.36039
1.36043
1.36048
1.36053
1.36058
1.36064
1.36071
1.36078
1.36086
1.36094
1.36103
1.36112
1.36122
1.36133
1.36144
1.36156
1.36169
1.36182
1.36196
1.36211
1.36227
1.36243
1.36261
1.36279
1.36298
1.36318
1.36339
1.3636
1.36383
1.36406
1.3643
1.36456
1.36482
1.36509
1.36537
1.36565
1.36595
1.36626
1.36657
1.36689
1.36722
1.36756
1.36791
1.36826
1.36863
1.36899
1.36937
1.36975
1.37013
1.37052
1.37092
1.37132
1.37172
1.37212
1.37252
1.37292
1.37333
1.37373
1.37413
1.37452
1.37491
1.3753
1.37568
1.37605
1.37641
1.37676
1.37711
1.37744
1.37777
1.37808
1.37838
1.37867
1.37895
1.37921
1.37947
1.37971
1.37994
1.38016
1.38037
1.38057
1.38076
1.38094
1.38111
1.38127
1.38143
1.38158
1.38172
1.38186
1.38199
1.38211
1.38223
1.38235
1.38246
1.38257
1.38267
1.38277
1.38287
1.38296
1.38305
1.38314
1.38323
1.38331
1.38339
1.38347
1.38355
1.38362
1.3837
1.38377
1.38384
1.38391
1.38398
1.38405
1.38411
1.38418
1.38425
1.38431
1.38438
1.38445
1.38452
1.3846
1.38467
1.38475
1.38484
1.38493
1.38502
1.38512
1.38523
1.38535
1.38547
1.3856
1.38575
1.3859
1.38606
1.38624
1.38643
1.38664
1.38686
1.3871
1.38735
1.38762
1.38791
1.38822
1.38855
1.3889
1.38928
1.38968
1.3901
1.39054
1.39102
1.39152
1.39204
1.3926
1.39319
1.39381
1.39446
1.39514
1.39586
1.39661
1.39741
1.39824
1.39911
1.40003
1.401
1.40201
1.40307
1.40419
1.40537
1.40661
1.40792
1.40931
1.41078
1.41234
1.414
1.41576
1.41763
1.41962
1.4217
1.42387
1.42605
1.42818
1.43011
1.43167
1.4327
1.43304
1.43267
1.34127
1.3408
1.34062
1.34068
1.34094
1.34134
1.34183
1.34234
1.34286
1.34336
1.34383
1.34426
1.34465
1.345
1.34531
1.3456
1.34585
1.34607
1.34626
1.34643
1.34658
1.34671
1.34682
1.34692
1.347
1.34706
1.34712
1.34716
1.3472
1.34722
1.34724
1.34725
1.34725
1.34725
1.34724
1.34723
1.34721
1.34719
1.34716
1.34714
1.34711
1.34708
1.34705
1.34702
1.34699
1.34696
1.34693
1.34691
1.34689
1.34687
1.34685
1.34684
1.34684
1.34684
1.34684
1.34686
1.34687
1.3469
1.34693
1.34698
1.34703
1.34709
1.34715
1.34723
1.34732
1.34741
1.34752
1.34763
1.34776
1.34789
1.34804
1.34819
1.34835
1.34853
1.34871
1.3489
1.3491
1.34931
1.34953
1.34976
1.34999
1.35023
1.35049
1.35074
1.35101
1.35128
1.35156
1.35185
1.35214
1.35244
1.35274
1.35305
1.35336
1.35367
1.35399
1.3543
1.35462
1.35494
1.35525
1.35556
1.35588
1.35618
1.35649
1.35679
1.35708
1.35737
1.35765
1.35793
1.3582
1.35846
1.35871
1.35895
1.35917
1.35939
1.3596
1.35979
1.35997
1.36014
1.3603
1.36044
1.36057
1.36069
1.3608
1.36089
1.36098
1.36105
1.36112
1.36117
1.36122
1.36126
1.36129
1.36132
1.36134
1.36135
1.36136
1.36136
1.36136
1.36136
1.36135
1.36134
1.36133
1.36131
1.36129
1.36127
1.36125
1.36123
1.36121
1.36118
1.36116
1.36113
1.3611
1.36108
1.36105
1.36102
1.361
1.36097
1.36094
1.36092
1.36089
1.36086
1.36084
1.36081
1.36078
1.36076
1.36073
1.36071
1.36069
1.36066
1.36064
1.36062
1.36059
1.36057
1.36055
1.36053
1.36051
1.36049
1.36046
1.36044
1.36042
1.36041
1.36039
1.36037
1.36035
1.36033
1.36031
1.3603
1.36028
1.36026
1.36025
1.36023
1.36022
1.36021
1.36019
1.36018
1.36017
1.36016
1.36015
1.36015
1.36014
1.36014
1.36013
1.36013
1.36013
1.36014
1.36014
1.36015
1.36016
1.36017
1.36018
1.3602
1.36022
1.36024
1.36027
1.3603
1.36033
1.36037
1.36041
1.36046
1.36051
1.36056
1.36062
1.36069
1.36076
1.36083
1.36091
1.361
1.3611
1.36119
1.3613
1.36141
1.36153
1.36166
1.36179
1.36194
1.36208
1.36224
1.36241
1.36258
1.36276
1.36295
1.36315
1.36336
1.36357
1.3638
1.36403
1.36428
1.36453
1.36479
1.36506
1.36534
1.36563
1.36593
1.36623
1.36655
1.36687
1.36721
1.36755
1.3679
1.36825
1.36862
1.36899
1.36936
1.36975
1.37013
1.37053
1.37092
1.37132
1.37173
1.37213
1.37254
1.37295
1.37336
1.37376
1.37416
1.37456
1.37496
1.37534
1.37573
1.3761
1.37647
1.37682
1.37717
1.3775
1.37783
1.37814
1.37844
1.37873
1.37901
1.37927
1.37952
1.37976
1.37999
1.38021
1.38041
1.38061
1.3808
1.38097
1.38114
1.3813
1.38146
1.3816
1.38174
1.38188
1.382
1.38213
1.38224
1.38236
1.38247
1.38257
1.38268
1.38277
1.38287
1.38296
1.38305
1.38314
1.38323
1.38331
1.38339
1.38347
1.38355
1.38362
1.38369
1.38377
1.38384
1.3839
1.38397
1.38404
1.3841
1.38417
1.38423
1.3843
1.38436
1.38443
1.3845
1.38457
1.38465
1.38473
1.38481
1.38489
1.38499
1.38508
1.38519
1.3853
1.38542
1.38555
1.38569
1.38584
1.38601
1.38618
1.38637
1.38657
1.38679
1.38702
1.38727
1.38754
1.38783
1.38814
1.38846
1.38881
1.38918
1.38957
1.38999
1.39043
1.3909
1.3914
1.39192
1.39247
1.39306
1.39367
1.39431
1.39499
1.3957
1.39645
1.39723
1.39805
1.39891
1.39981
1.40076
1.40175
1.40279
1.40388
1.40502
1.40622
1.40748
1.40881
1.41021
1.41168
1.41322
1.41485
1.41655
1.41833
1.42015
1.422
1.4238
1.42548
1.42694
1.42806
1.42873
1.42891
1.42851
1.34217
1.34178
1.34159
1.34158
1.34173
1.342
1.34235
1.34274
1.34315
1.34355
1.34395
1.34432
1.34466
1.34498
1.34527
1.34553
1.34576
1.34598
1.34616
1.34633
1.34647
1.3466
1.34671
1.34681
1.34689
1.34696
1.34702
1.34706
1.3471
1.34712
1.34714
1.34715
1.34716
1.34716
1.34715
1.34714
1.34712
1.3471
1.34708
1.34706
1.34703
1.347
1.34697
1.34694
1.34691
1.34689
1.34686
1.34684
1.34682
1.3468
1.34678
1.34677
1.34677
1.34677
1.34677
1.34679
1.34681
1.34683
1.34687
1.34691
1.34696
1.34702
1.34709
1.34716
1.34725
1.34735
1.34746
1.34757
1.3477
1.34783
1.34798
1.34814
1.3483
1.34848
1.34866
1.34885
1.34906
1.34927
1.34949
1.34972
1.34995
1.3502
1.35045
1.35071
1.35098
1.35125
1.35154
1.35182
1.35212
1.35242
1.35273
1.35304
1.35335
1.35367
1.35398
1.3543
1.35462
1.35494
1.35526
1.35558
1.35589
1.3562
1.35651
1.35681
1.35711
1.3574
1.35769
1.35797
1.35824
1.3585
1.35875
1.35899
1.35922
1.35944
1.35965
1.35984
1.36002
1.36019
1.36034
1.36049
1.36061
1.36073
1.36083
1.36093
1.36101
1.36108
1.36114
1.3612
1.36124
1.36128
1.3613
1.36133
1.36134
1.36135
1.36136
1.36136
1.36136
1.36135
1.36134
1.36133
1.36132
1.3613
1.36128
1.36126
1.36124
1.36122
1.36119
1.36117
1.36114
1.36111
1.36109
1.36106
1.36103
1.36101
1.36098
1.36095
1.36093
1.3609
1.36087
1.36085
1.36082
1.3608
1.36077
1.36075
1.36072
1.3607
1.36067
1.36065
1.36063
1.3606
1.36058
1.36056
1.36054
1.36052
1.36049
1.36047
1.36045
1.36043
1.36041