# vtk DataFile Version 2.0
LBE mesh
ASCII
DATASET STRUCTURED_POINTS
DIMENSIONS 400 100 1
ASPECT_RATIO 1 1 1
ORIGIN 0 0 0
POINT_DATA 40000
SCALARS rho double 1
LOOKUP_TABLE default
1.02399
1.07547
1.091
1.09512
1.09734
1.09903
1.1002
1.10097
1.10149
1.10188
1.10217
1.10239
1.10256
1.10269
1.1028
1.10288
1.10294
1.10299
1.10303
1.10305
1.10306
1.10307
1.10307
1.10307
1.10306
1.10305
1.10303
1.10301
1.10299
1.10297
1.10294
1.10291
1.10289
1.10286
1.10283
1.1028
1.10277
1.10274
1.10271
1.10268
1.10265
1.10263
1.1026
1.10258
1.10255
1.10253
1.10251
1.1025
1.10248
1.10247
1.10247
1.10246
1.10246
1.10246
1.10247
1.10249
1.1025
1.10253
1.10255
1.10259
1.10263
1.10267
1.10273
1.10279
1.10286
1.10293
1.10301
1.1031
1.1032
1.10331
1.10343
1.10355
1.10368
1.10382
1.10398
1.10414
1.10431
1.10449
1.10468
1.10487
1.10508
1.1053
1.10553
1.10576
1.10601
1.10626
1.10652
1.1068
1.10708
1.10736
1.10766
1.10796
1.10827
1.10858
1.1089
1.10922
1.10955
1.10988
1.11021
1.11055
1.11089
1.11122
1.11156
1.11189
1.11223
1.11256
1.11289
1.11321
1.11353
1.11384
1.11415
1.11446
1.11475
1.11504
1.11532
1.11559
1.11586
1.11611
1.11636
1.1166
1.11682
1.11704
1.11725
1.11746
1.11765
1.11783
1.11801
1.11818
1.11834
1.11849
1.11864
1.11878
1.11892
1.11904
1.11917
1.11929
1.1194
1.11951
1.11962
1.11972
1.11982
1.11991
1.12001
1.12009
1.12018
1.12027
1.12035
1.12043
1.1205
1.12058
1.12065
1.12072
1.1208
1.12086
1.12093
1.121
1.12106
1.12113
1.12119
1.12125
1.12131
1.12138
1.12144
1.1215
1.12156
1.12162
1.12168
1.12174
1.1218
1.12186
1.12193
1.12199
1.12205
1.12212
1.12219
1.12226
1.12233
1.1224
1.12247
1.12255
1.12263
1.12271
1.12279
1.12287
1.12296
1.12305
1.12314
1.12324
1.12333
1.12343
1.12354
1.12364
1.12375
1.12386
1.12397
1.12409
1.1242
1.12432
1.12444
1.12456
1.12469
1.12481
1.12493
1.12506
1.12519
1.12531
1.12544
1.12557
1.12569
1.12582
1.12594
1.12606
1.12619
1.12631
1.12642
1.12654
1.12665
1.12677
1.12688
1.12698
1.12709
1.12719
1.12729
1.12739
1.12749
1.12758
1.12768
1.12777
1.12786
1.12794
1.12803
1.12812
1.1282
1.12829
1.12837
1.12846
1.12855
1.12863
1.12872
1.12881
1.12891
1.129
1.1291
1.12921
1.12931
1.12943
1.12954
1.12966
1.12979
1.12992
1.13006
1.1302
1.13035
1.1305
1.13066
1.13083
1.13101
1.13119
1.13138
1.13157
1.13178
1.13199
1.1322
1.13242
1.13265
1.13288
1.13312
1.13336
1.13361
1.13386
1.13412
1.13438
1.13464
1.13491
1.13517
1.13544
1.13571
1.13597
1.13624
1.13651
1.13677
1.13704
1.1373
1.13755
1.13781
1.13806
1.13831
1.13856
1.1388
1.13904
1.13928
1.13951
1.13974
1.13997
1.1402
1.14043
1.14065
1.14088
1.1411
1.14132
1.14154
1.14176
1.14198
1.1422
1.14242
1.14264
1.14287
1.14309
1.14331
1.14353
1.14375
1.14397
1.14418
1.1444
1.14462
1.14483
1.14504
1.14524
1.14545
1.14565
1.14584
1.14603
1.14622
1.1464
1.14657
1.14674
1.14691
1.14707
1.14722
1.14737
1.14751
1.14765
1.14778
1.14791
1.14803
1.14815
1.14827
1.14838
1.14849
1.1486
1.1487
1.14881
1.14891
1.14902
1.14913
1.14924
1.14936
1.14948
1.1496
1.14973
1.14987
1.15002
1.15018
1.15034
1.15052
1.15071
1.15092
1.15114
1.15138
1.15163
1.15191
1.1522
1.15252
1.15286
1.15322
1.15361
1.15402
1.15447
1.15494
1.15544
1.15598
1.15655
1.15715
1.1578
1.15848
1.1592
1.15997
1.16078
1.16164
1.16255
1.16352
1.16455
1.16564
1.16681
1.16807
1.16942
1.17088
1.17246
1.1742
1.17613
1.17828
1.18073
1.18357
1.18691
1.19098
1.19623
1.20365
1.21417
1.22829
1.25427
1.06092
1.07283
1.08344
1.09108
1.09515
1.09737
1.0988
1.09982
1.10056
1.1011
1.10152
1.10183
1.10208
1.10227
1.10242
1.10255
1.10264
1.10272
1.10278
1.10283
1.10286
1.10288
1.1029
1.10291
1.10291
1.10291
1.1029
1.10289
1.10288
1.10286
1.10284
1.10282
1.1028
1.10277
1.10275
1.10272
1.1027
1.10267
1.10265
1.10262
1.1026
1.10257
1.10255
1.10253
1.10251
1.10249
1.10247
1.10246
1.10245
1.10244
1.10244
1.10243
1.10243
1.10244
1.10245
1.10246
1.10248
1.10251
1.10254
1.10257
1.10262
1.10267
1.10272
1.10278
1.10285
1.10293
1.10301
1.1031
1.10321
1.10331
1.10343
1.10356
1.10369
1.10383
1.10399
1.10415
1.10432
1.1045
1.10469
1.10489
1.1051
1.10532
1.10555
1.10578
1.10603
1.10628
1.10655
1.10682
1.1071
1.10738
1.10768
1.10798
1.10829
1.1086
1.10892
1.10924
1.10957
1.1099
1.11023
1.11056
1.1109
1.11123
1.11157
1.1119
1.11223
1.11256
1.11289
1.11321
1.11353
1.11384
1.11415
1.11445
1.11474
1.11503
1.11531
1.11558
1.11584
1.1161
1.11634
1.11658
1.1168
1.11702
1.11723
1.11743
1.11762
1.11781
1.11798
1.11815
1.11831
1.11847
1.11861
1.11875
1.11889
1.11902
1.11914
1.11926
1.11938
1.11949
1.11959
1.1197
1.11979
1.11989
1.11998
1.12007
1.12016
1.12024
1.12033
1.12041
1.12048
1.12056
1.12063
1.12071
1.12078
1.12085
1.12092
1.12098
1.12105
1.12111
1.12118
1.12124
1.1213
1.12136
1.12142
1.12148
1.12155
1.12161
1.12167
1.12173
1.12179
1.12185
1.12192
1.12198
1.12204
1.12211
1.12218
1.12225
1.12232
1.12239
1.12246
1.12254
1.12262
1.1227
1.12278
1.12287
1.12295
1.12304
1.12314
1.12323
1.12333
1.12343
1.12353
1.12364
1.12374
1.12385
1.12397
1.12408
1.1242
1.12432
1.12444
1.12456
1.12468
1.1248
1.12493
1.12505
1.12518
1.12531
1.12543
1.12556
1.12568
1.12581
1.12593
1.12606
1.12618
1.1263
1.12642
1.12653
1.12665
1.12676
1.12687
1.12698
1.12708
1.12719
1.12729
1.12739
1.12748
1.12758
1.12767
1.12776
1.12785
1.12794
1.12803
1.12811
1.1282
1.12828
1.12837
1.12846
1.12854
1.12863
1.12872
1.12882
1.12891
1.12901
1.12911
1.12921
1.12932
1.12943
1.12955
1.12967
1.1298
1.12993
1.13007
1.13021
1.13036
1.13052
1.13068
1.13085
1.13103
1.13121
1.1314
1.1316
1.1318
1.13201
1.13223
1.13245
1.13268
1.13291
1.13315
1.13339
1.13364
1.13389
1.13415
1.13441
1.13467
1.13493
1.1352
1.13546
1.13573
1.136
1.13626
1.13653
1.13679
1.13705
1.13731
1.13757
1.13782
1.13808
1.13832
1.13857
1.13881
1.13905
1.13929
1.13952
1.13975
1.13998
1.1402
1.14043
1.14065
1.14087
1.1411
1.14132
1.14154
1.14176
1.14198
1.1422
1.14242
1.14264
1.14286
1.14308
1.1433
1.14352
1.14374
1.14396
1.14418
1.14439
1.14461
1.14482
1.14503
1.14523
1.14543
1.14563
1.14583
1.14602
1.1462
1.14638
1.14656
1.14673
1.14689
1.14705
1.1472
1.14735
1.14749
1.14763
1.14776
1.14789
1.14801
1.14813
1.14825
1.14836
1.14847
1.14858
1.14869
1.14879
1.1489
1.14901
1.14912
1.14924
1.14935
1.14947
1.1496
1.14973
1.14988
1.15003
1.15019
1.15036
1.15054
1.15073
1.15094
1.15117
1.15141
1.15167
1.15194
1.15224
1.15256
1.15291
1.15327
1.15367
1.15409
1.15454
1.15501
1.15552
1.15607
1.15664
1.15725
1.1579
1.15859
1.15932
1.16009
1.16091
1.16178
1.16271
1.16369
1.16473
1.16584
1.16703
1.1683
1.16968
1.17117
1.17279
1.17458
1.17657
1.17881
1.18137
1.18435
1.18792
1.19233
1.19789
1.20507
1.21542
1.23393
1.26399
1.07872
1.07932
1.08546
1.09048
1.09375
1.09608
1.09775
1.09893
1.09979
1.10044
1.10094
1.10133
1.10163
1.10188
1.10207
1.10223
1.10236
1.10246
1.10255
1.10261
1.10266
1.1027
1.10273
1.10275
1.10277
1.10277
1.10278
1.10277
1.10277
1.10276
1.10274
1.10273
1.10271
1.10269
1.10267
1.10265
1.10263
1.10261
1.10259
1.10256
1.10254
1.10252
1.1025
1.10248
1.10246
1.10245
1.10243
1.10242
1.10241
1.10241
1.1024
1.1024
1.10241
1.10241
1.10243
1.10244
1.10246
1.10249
1.10252
1.10256
1.1026
1.10265
1.10271
1.10277
1.10284
1.10292
1.10301
1.1031
1.1032
1.10331
1.10343
1.10356
1.10369
1.10384
1.10399
1.10416
1.10433
1.10451
1.1047
1.1049
1.10511
1.10533
1.10556
1.1058
1.10604
1.1063
1.10656
1.10683
1.10712
1.1074
1.1077
1.108
1.10831
1.10862
1.10894
1.10926
1.10959
1.10992
1.11025
1.11058
1.11091
1.11125
1.11158
1.11191
1.11224
1.11257
1.1129
1.11322
1.11353
1.11384
1.11415
1.11445
1.11474
1.11503
1.1153
1.11557
1.11583
1.11608
1.11633
1.11656
1.11679
1.117
1.11721
1.11741
1.1176
1.11778
1.11796
1.11813
1.11829
1.11844
1.11859
1.11873
1.11886
1.11899
1.11911
1.11923
1.11935
1.11946
1.11956
1.11967
1.11977
1.11986
1.11996
1.12005
1.12013
1.12022
1.1203
1.12038
1.12046
1.12054
1.12061
1.12068
1.12075
1.12082
1.12089
1.12096
1.12103
1.12109
1.12115
1.12122
1.12128
1.12134
1.1214
1.12146
1.12153
1.12159
1.12165
1.12171
1.12177
1.12183
1.1219
1.12196
1.12203
1.12209
1.12216
1.12223
1.1223
1.12237
1.12245
1.12252
1.1226
1.12268
1.12277
1.12285
1.12294
1.12303
1.12312
1.12322
1.12331
1.12341
1.12352
1.12362
1.12373
1.12384
1.12395
1.12407
1.12418
1.1243
1.12442
1.12454
1.12467
1.12479
1.12491
1.12504
1.12517
1.12529
1.12542
1.12554
1.12567
1.12579
1.12592
1.12604
1.12616
1.12628
1.1264
1.12652
1.12663
1.12674
1.12685
1.12696
1.12706
1.12717
1.12727
1.12737
1.12747
1.12756
1.12765
1.12774
1.12783
1.12792
1.12801
1.1281
1.12818
1.12827
1.12836
1.12845
1.12853
1.12862
1.12871
1.12881
1.1289
1.129
1.1291
1.12921
1.12932
1.12943
1.12955
1.12967
1.1298
1.12993
1.13007
1.13022
1.13037
1.13053
1.13069
1.13086
1.13104
1.13122
1.13141
1.13161
1.13182
1.13203
1.13224
1.13247
1.13269
1.13293
1.13317
1.13341
1.13366
1.13391
1.13417
1.13443
1.13469
1.13496
1.13522
1.13549
1.13575
1.13602
1.13629
1.13655
1.13681
1.13707
1.13733
1.13759
1.13784
1.13809
1.13834
1.13858
1.13882
1.13906
1.1393
1.13953
1.13976
1.13998
1.14021
1.14043
1.14066
1.14088
1.1411
1.14132
1.14154
1.14176
1.14198
1.1422
1.14242
1.14264
1.14286
1.14308
1.1433
1.14352
1.14374
1.14395
1.14417
1.14439
1.1446
1.14481
1.14502
1.14522
1.14543
1.14562
1.14582
1.14601
1.14619
1.14637
1.14655
1.14671
1.14688
1.14704
1.14719
1.14734
1.14748
1.14761
1.14775
1.14787
1.148
1.14812
1.14823
1.14834
1.14845
1.14856
1.14867
1.14878
1.14889
1.149
1.14911
1.14922
1.14934
1.14946
1.14959
1.14973
1.14987
1.15002
1.15018
1.15035
1.15054
1.15073
1.15095
1.15117
1.15142
1.15168
1.15196
1.15226
1.15258
1.15293
1.1533
1.1537
1.15412
1.15458
1.15506
1.15557
1.15612
1.1567
1.15732
1.15797
1.15866
1.1594
1.16018
1.161
1.16188
1.16281
1.16379
1.16484
1.16596
1.16716
1.16844
1.16983
1.17133
1.17296
1.17476
1.17677
1.17902
1.18159
1.18458
1.1881
1.19235
1.19769
1.20462
1.21327
1.22265
1.23222
1.08706
1.0864
1.08853
1.0911
1.09366
1.09569
1.0972
1.09835
1.09923
1.09993
1.10047
1.1009
1.10125
1.10153
1.10176
1.10195
1.1021
1.10223
1.10233
1.10241
1.10248
1.10253
1.10257
1.10261
1.10263
1.10265
1.10266
1.10266
1.10266
1.10266
1.10265
1.10264
1.10263
1.10261
1.1026
1.10258
1.10256
1.10254
1.10253
1.10251
1.10249
1.10247
1.10245
1.10243
1.10242
1.1024
1.10239
1.10238
1.10238
1.10237
1.10237
1.10237
1.10238
1.10238
1.1024
1.10242
1.10244
1.10247
1.1025
1.10254
1.10258
1.10263
1.10269
1.10276
1.10283
1.10291
1.103
1.10309
1.10319
1.1033
1.10342
1.10355
1.10369
1.10384
1.10399
1.10415
1.10433
1.10451
1.1047
1.1049
1.10512
1.10534
1.10557
1.1058
1.10605
1.10631
1.10657
1.10685
1.10713
1.10741
1.10771
1.10801
1.10832
1.10863
1.10895
1.10927
1.1096
1.10993
1.11026
1.11059
1.11093
1.11126
1.11159
1.11192
1.11225
1.11258
1.11291
1.11323
1.11354
1.11385
1.11415
1.11445
1.11474
1.11503
1.1153
1.11557
1.11583
1.11608
1.11632
1.11655
1.11678
1.11699
1.1172
1.11739
1.11758
1.11776
1.11794
1.1181
1.11826
1.11841
1.11856
1.1187
1.11883
1.11896
1.11909
1.1192
1.11932
1.11943
1.11953
1.11964
1.11974
1.11983
1.11993
1.12001
1.1201
1.12019
1.12027
1.12035
1.12043
1.12051
1.12058
1.12065
1.12072
1.12079
1.12086
1.12093
1.121
1.12106
1.12112
1.12119
1.12125
1.12131
1.12137
1.12144
1.1215
1.12156
1.12162
1.12168
1.12174
1.12181
1.12187
1.12193
1.122
1.12207
1.12213
1.1222
1.12227
1.12235
1.12242
1.1225
1.12258
1.12266
1.12274
1.12283
1.12291
1.123
1.1231
1.12319
1.12329
1.12339
1.12349
1.1236
1.12371
1.12382
1.12393
1.12404
1.12416
1.12428
1.1244
1.12452
1.12464
1.12477
1.12489
1.12502
1.12514
1.12527
1.12539
1.12552
1.12564
1.12577
1.12589
1.12601
1.12614
1.12626
1.12637
1.12649
1.1266
1.12672
1.12683
1.12693
1.12704
1.12714
1.12724
1.12734
1.12744
1.12753
1.12763
1.12772
1.12781
1.1279
1.12799
1.12807
1.12816
1.12825
1.12834
1.12842
1.12851
1.1286
1.1287
1.12879
1.12889
1.12899
1.12909
1.12919
1.1293
1.12942
1.12954
1.12966
1.12979
1.12993
1.13007
1.13021
1.13036
1.13052
1.13069
1.13086
1.13104
1.13122
1.13142
1.13161
1.13182
1.13203
1.13225
1.13247
1.1327
1.13294
1.13318
1.13342
1.13367
1.13393
1.13419
1.13445
1.13471
1.13497
1.13524
1.13551
1.13578
1.13604
1.13631
1.13657
1.13684
1.1371
1.13735
1.13761
1.13786
1.13811
1.13836
1.1386
1.13884
1.13908
1.13931
1.13954
1.13977
1.14
1.14022
1.14044
1.14066
1.14088
1.1411
1.14132
1.14154
1.14176
1.14198
1.1422
1.14242
1.14264
1.14286
1.14308
1.1433
1.14351
1.14373
1.14395
1.14417
1.14438
1.1446
1.14481
1.14501
1.14522
1.14542
1.14562
1.14581
1.146
1.14618
1.14636
1.14654
1.14671
1.14687
1.14703
1.14718
1.14733
1.14747
1.1476
1.14773
1.14786
1.14798
1.1481
1.14822
1.14833
1.14844
1.14855
1.14866
1.14876
1.14887
1.14898
1.14909
1.14921
1.14932
1.14945
1.14957
1.14971
1.14985
1.15
1.15017
1.15034
1.15052
1.15072
1.15093
1.15116
1.15141
1.15167
1.15195
1.15225
1.15258
1.15293
1.1533
1.1537
1.15413
1.15458
1.15507
1.15558
1.15613
1.15672
1.15734
1.15799
1.15869
1.15943
1.16021
1.16104
1.16192
1.16285
1.16384
1.16489
1.16601
1.1672
1.16848
1.16986
1.17135
1.17298
1.17476
1.17673
1.17894
1.18143
1.18429
1.18761
1.1915
1.19606
1.20136
1.2073
1.21213
1.21235
1.0911
1.09061
1.09129
1.09268
1.09432
1.09579
1.09704
1.09808
1.09891
1.09959
1.10013
1.10058
1.10094
1.10125
1.10149
1.1017
1.10187
1.10201
1.10213
1.10223
1.10231
1.10237
1.10242
1.10247
1.1025
1.10252
1.10254
1.10255
1.10256
1.10256
1.10256
1.10255
1.10255
1.10254
1.10252
1.10251
1.1025
1.10248
1.10247
1.10245
1.10243
1.10242
1.1024
1.10239
1.10237
1.10236
1.10235
1.10234
1.10234
1.10233
1.10234
1.10234
1.10234
1.10235
1.10237
1.10239
1.10241
1.10244
1.10248
1.10251
1.10256
1.10261
1.10267
1.10274
1.10281
1.10289
1.10298
1.10308
1.10318
1.10329
1.10341
1.10354
1.10368
1.10383
1.10398
1.10415
1.10432
1.10451
1.1047
1.1049
1.10512
1.10534
1.10557
1.10581
1.10606
1.10631
1.10658
1.10685
1.10713
1.10742
1.10772
1.10802
1.10833
1.10865
1.10897
1.10929
1.10961
1.10994
1.11028
1.11061
1.11094
1.11127
1.11161
1.11194
1.11227
1.11259
1.11292
1.11324
1.11355
1.11386
1.11416
1.11446
1.11475
1.11503
1.11531
1.11557
1.11583
1.11608
1.11632
1.11655
1.11677
1.11698
1.11719
1.11738
1.11757
1.11775
1.11792
1.11808
1.11824
1.11839
1.11854
1.11867
1.11881
1.11893
1.11906
1.11917
1.11929
1.1194
1.1195
1.1196
1.1197
1.1198
1.11989
1.11998
1.12007
1.12015
1.12023
1.12031
1.12039
1.12047
1.12054
1.12062
1.12069
1.12076
1.12083
1.12089
1.12096
1.12102
1.12109
1.12115
1.12121
1.12128
1.12134
1.1214
1.12146
1.12152
1.12158
1.12165
1.12171
1.12177
1.12183
1.1219
1.12196
1.12203
1.1221
1.12217
1.12224
1.12231
1.12239
1.12247
1.12254
1.12263
1.12271
1.12279
1.12288
1.12297
1.12307
1.12316
1.12326
1.12336
1.12346
1.12357
1.12368
1.12379
1.1239
1.12401
1.12413
1.12425
1.12437
1.12449
1.12461
1.12474
1.12486
1.12498
1.12511
1.12524
1.12536
1.12549
1.12561
1.12574
1.12586
1.12598
1.1261
1.12622
1.12634
1.12645
1.12657
1.12668
1.12679
1.1269
1.127
1.12711
1.12721
1.12731
1.1274
1.1275
1.12759
1.12769
1.12778
1.12787
1.12795
1.12804
1.12813
1.12822
1.12831
1.12839
1.12848
1.12857
1.12867
1.12876
1.12886
1.12896
1.12906
1.12917
1.12928
1.1294
1.12952
1.12964
1.12977
1.12991
1.13005
1.13019
1.13035
1.13051
1.13067
1.13085
1.13103
1.13121
1.13141
1.13161
1.13181
1.13203
1.13225
1.13247
1.1327
1.13294
1.13318
1.13343
1.13368
1.13394
1.1342
1.13446
1.13472
1.13499
1.13526
1.13553
1.13579
1.13606
1.13633
1.13659
1.13686
1.13712
1.13738
1.13763
1.13789
1.13813
1.13838
1.13862
1.13886
1.1391
1.13933
1.13956
1.13979
1.14001
1.14023
1.14045
1.14067
1.14089
1.14111
1.14133
1.14155
1.14177
1.14198
1.1422
1.14242
1.14264
1.14286
1.14308
1.1433
1.14351
1.14373
1.14395
1.14417
1.14438
1.14459
1.1448
1.14501
1.14522
1.14542
1.14562
1.14581
1.146
1.14618
1.14636
1.14653
1.1467
1.14686
1.14702
1.14717
1.14732
1.14746
1.14759
1.14773
1.14785
1.14797
1.14809
1.1482
1.14832
1.14843
1.14853
1.14864
1.14875
1.14885
1.14896
1.14907
1.14918
1.1493
1.14942
1.14955
1.14968
1.14983
1.14998
1.15014
1.15031
1.15049
1.15069
1.1509
1.15113
1.15138
1.15164
1.15192
1.15223
1.15255
1.1529
1.15328
1.15368
1.1541
1.15456
1.15505
1.15556
1.15612
1.1567
1.15732
1.15798
1.15868
1.15942
1.1602
1.16103
1.16191
1.16283
1.16382
1.16486
1.16597
1.16716
1.16842
1.16978
1.17125
1.17283
1.17457
1.17647
1.17857
1.18092
1.18356
1.18653
1.18987
1.19356
1.19735
1.20076
1.20315
1.2025
1.09372
1.09328
1.09348
1.09422
1.0952
1.09623
1.0972
1.09806
1.09879
1.0994
1.09992
1.10035
1.10072
1.10102
1.10128
1.10149
1.10168
1.10183
1.10196
1.10206
1.10215
1.10223
1.10229
1.10234
1.10238
1.10241
1.10243
1.10245
1.10246
1.10247
1.10247
1.10247
1.10247
1.10246
1.10246
1.10244
1.10243
1.10242
1.10241
1.10239
1.10238
1.10237
1.10235
1.10234
1.10233
1.10232
1.10231
1.10231
1.1023
1.1023
1.1023
1.1023
1.10231
1.10232
1.10234
1.10236
1.10238
1.10241
1.10245
1.10249
1.10254
1.10259
1.10265
1.10272
1.10279
1.10287
1.10296
1.10306
1.10316
1.10328
1.1034
1.10353
1.10367
1.10381
1.10397
1.10414
1.10431
1.1045
1.10469
1.10489
1.10511
1.10533
1.10556
1.1058
1.10605
1.10631
1.10658
1.10685
1.10714
1.10743
1.10772
1.10803
1.10834
1.10865
1.10897
1.1093
1.10962
1.10995
1.11029
1.11062
1.11095
1.11129
1.11162
1.11195
1.11228
1.11261
1.11293
1.11325
1.11356
1.11387
1.11417
1.11447
1.11476
1.11504
1.11531
1.11558
1.11583
1.11608
1.11632
1.11655
1.11677
1.11698
1.11718
1.11737
1.11756
1.11773
1.1179
1.11806
1.11822
1.11837
1.11851
1.11865
1.11878
1.1189
1.11902
1.11914
1.11925
1.11936
1.11947
1.11957
1.11967
1.11976
1.11985
1.11994
1.12003
1.12011
1.12019
1.12027
1.12035
1.12043
1.1205
1.12057
1.12065
1.12072
1.12078
1.12085
1.12092
1.12098
1.12105
1.12111
1.12117
1.12123
1.12129
1.12136
1.12142
1.12148
1.12154
1.1216
1.12167
1.12173
1.12179
1.12186
1.12192
1.12199
1.12206
1.12213
1.1222
1.12227
1.12235
1.12242
1.1225
1.12258
1.12267
1.12275
1.12284
1.12293
1.12303
1.12312
1.12322
1.12332
1.12342
1.12353
1.12364
1.12375
1.12386
1.12398
1.12409
1.12421
1.12433
1.12445
1.12457
1.1247
1.12482
1.12494
1.12507
1.1252
1.12532
1.12545
1.12557
1.12569
1.12582
1.12594
1.12606
1.12618
1.1263
1.12641
1.12653
1.12664
1.12675
1.12685
1.12696
1.12706
1.12717
1.12726
1.12736
1.12746
1.12755
1.12764
1.12773
1.12782
1.12791
1.128
1.12809
1.12818
1.12827
1.12835
1.12845
1.12854
1.12863
1.12873
1.12882
1.12892
1.12903
1.12914
1.12925
1.12936
1.12948
1.12961
1.12974
1.12988
1.13002
1.13017
1.13032
1.13048
1.13065
1.13082
1.131
1.13119
1.13139
1.13159
1.1318
1.13201
1.13223
1.13246
1.13269
1.13293
1.13318
1.13343
1.13368
1.13394
1.1342
1.13446
1.13473
1.135
1.13527
1.13554
1.13581
1.13608
1.13635
1.13661
1.13688
1.13714
1.1374
1.13766
1.13791
1.13816
1.1384
1.13865
1.13888
1.13912
1.13935
1.13958
1.1398
1.14003
1.14025
1.14047
1.14069
1.14091
1.14112
1.14134
1.14156
1.14177
1.14199
1.14221
1.14242
1.14264
1.14286
1.14308
1.1433
1.14352
1.14373
1.14395
1.14417
1.14438
1.14459
1.1448
1.14501
1.14522
1.14542
1.14562
1.14581
1.146
1.14618
1.14636
1.14653
1.1467
1.14686
1.14702
1.14717
1.14732
1.14746
1.14759
1.14772
1.14784
1.14796
1.14808
1.14819
1.1483
1.14841
1.14852
1.14862
1.14873
1.14883
1.14894
1.14905
1.14916
1.14928
1.14939
1.14952
1.14965
1.14979
1.14994
1.1501
1.15027
1.15045
1.15065
1.15086
1.15109
1.15133
1.15159
1.15187
1.15218
1.1525
1.15285
1.15322
1.15362
1.15405
1.15451
1.15499
1.15551
1.15606
1.15665
1.15727
1.15792
1.15862
1.15936
1.16014
1.16096
1.16183
1.16276
1.16373
1.16476
1.16586
1.16703
1.16827
1.16959
1.17101
1.17255
1.1742
1.176
1.17797
1.18012
1.18248
1.18505
1.18779
1.1906
1.19326
1.19531
1.19637
1.19612
1.09554
1.0951
1.09512
1.0955
1.0961
1.09681
1.09752
1.0982
1.09881
1.09935
1.09982
1.10022
1.10056
1.10086
1.10111
1.10133
1.10151
1.10167
1.10181
1.10192
1.10201
1.10209
1.10216
1.10222
1.10226
1.1023
1.10233
1.10235
1.10237
1.10238
1.10239
1.10239
1.10239
1.10239
1.10239
1.10238
1.10237
1.10236
1.10235
1.10234
1.10233
1.10232
1.10231
1.1023
1.10229
1.10228
1.10227
1.10227
1.10226
1.10226
1.10227
1.10227
1.10228
1.10229
1.10231
1.10233
1.10236
1.10239
1.10242
1.10246
1.10251
1.10256
1.10262
1.10269
1.10277
1.10285
1.10294
1.10304
1.10314
1.10326
1.10338
1.10351
1.10365
1.1038
1.10396
1.10412
1.1043
1.10448
1.10468
1.10488
1.1051
1.10532
1.10555
1.10579
1.10605
1.1063
1.10657
1.10685
1.10713
1.10743
1.10773
1.10803
1.10834
1.10866
1.10898
1.10931
1.10963
1.10996
1.1103
1.11063
1.11097
1.1113
1.11163
1.11197
1.1123
1.11262
1.11295
1.11326
1.11358
1.11389
1.11419
1.11448
1.11477
1.11505
1.11532
1.11559
1.11584
1.11609
1.11632
1.11655
1.11677
1.11697
1.11717
1.11736
1.11755
1.11772
1.11789
1.11805
1.1182
1.11835
1.11849
1.11862
1.11875
1.11887
1.11899
1.11911
1.11922
1.11932
1.11943
1.11953
1.11963
1.11972
1.11981
1.1199
1.11998
1.12007
1.12015
1.12023
1.12031
1.12038
1.12046
1.12053
1.1206
1.12067
1.12074
1.1208
1.12087
1.12093
1.121
1.12106
1.12112
1.12118
1.12125
1.12131
1.12137
1.12143
1.12149
1.12155
1.12162
1.12168
1.12174
1.12181
1.12187
1.12194
1.12201
1.12208
1.12215
1.12222
1.1223
1.12238
1.12246
1.12254
1.12262
1.12271
1.1228
1.12289
1.12298
1.12308
1.12317
1.12328
1.12338
1.12348
1.12359
1.1237
1.12381
1.12393
1.12405
1.12416
1.12428
1.1244
1.12453
1.12465
1.12477
1.1249
1.12502
1.12515
1.12527
1.1254
1.12552
1.12565
1.12577
1.12589
1.12601
1.12613
1.12625
1.12636
1.12648
1.12659
1.1267
1.1268
1.12691
1.12701
1.12711
1.12721
1.12731
1.12741
1.1275
1.12759
1.12768
1.12777
1.12786
1.12795
1.12804
1.12813
1.12822
1.12831
1.1284
1.12849
1.12858
1.12868
1.12878
1.12888
1.12898
1.12909
1.12921
1.12932
1.12944
1.12957
1.1297
1.12984
1.12998
1.13013
1.13028
1.13045
1.13061
1.13079
1.13097
1.13116
1.13136
1.13156
1.13177
1.13199
1.13221
1.13244
1.13267
1.13291
1.13316
1.13341
1.13367
1.13393
1.1342
1.13446
1.13473
1.135
1.13528
1.13555
1.13582
1.1361
1.13637
1.13664
1.1369
1.13717
1.13743
1.13768
1.13794
1.13819
1.13843
1.13867
1.13891
1.13914
1.13937
1.1396
1.13983
1.14005
1.14027
1.14049
1.1407
1.14092
1.14114
1.14135
1.14157
1.14178
1.142
1.14221
1.14243
1.14265
1.14286
1.14308
1.1433
1.14352
1.14374
1.14395
1.14417
1.14438
1.1446
1.14481
1.14502
1.14522
1.14542
1.14562
1.14581
1.146
1.14619
1.14636
1.14654
1.1467
1.14687
1.14702
1.14717
1.14732
1.14746
1.14759
1.14772
1.14784
1.14796
1.14807
1.14819
1.14829
1.1484
1.1485
1.14861
1.14871
1.14881
1.14892
1.14902
1.14913
1.14924
1.14936
1.14948
1.14961
1.14975
1.1499
1.15005
1.15022
1.1504
1.15059
1.1508
1.15103
1.15127
1.15153
1.15181
1.15211
1.15243
1.15277
1.15315
1.15354
1.15397
1.15442
1.15491
1.15542
1.15597
1.15656
1.15717
1.15783
1.15852
1.15925
1.16003
1.16085
1.16171
1.16262
1.16358
1.1646
1.16567
1.16681
1.16802
1.1693
1.17067
1.17213
1.17369
1.17537
1.17717
1.17911
1.18117
1.18333
1.18553
1.18763
1.18946
1.19077
1.19128
1.19107
1.09683
1.09644
1.09637
1.09655
1.09692
1.0974
1.09792
1.09844
1.09894
1.09939
1.0998
1.10016
1.10048
1.10076
1.101
1.10121
1.10139
1.10155
1.10168
1.1018
1.1019
1.10198
1.10205
1.10211
1.10216
1.1022
1.10224
1.10227
1.10229
1.1023
1.10231
1.10232
1.10233
1.10233
1.10233
1.10232
1.10232
1.10231
1.1023
1.10229
1.10228
1.10227
1.10227
1.10226
1.10225
1.10224
1.10224
1.10223
1.10223
1.10223
1.10223
1.10224
1.10225
1.10226
1.10228
1.1023
1.10233
1.10236
1.10239
1.10243
1.10248
1.10254
1.1026
1.10267
1.10274
1.10282
1.10291
1.10301
1.10312
1.10323
1.10335
1.10349
1.10363
1.10378
1.10393
1.1041
1.10428
1.10446
1.10466
1.10487
1.10508
1.1053
1.10554
1.10578
1.10603
1.10629
1.10656
1.10684
1.10713
1.10742
1.10772
1.10803
1.10834
1.10866
1.10898
1.10931
1.10964
1.10997
1.11031
1.11064
1.11098
1.11131
1.11165
1.11198
1.11231
1.11264
1.11296
1.11328
1.11359
1.1139
1.1142
1.1145
1.11479
1.11507
1.11534
1.1156
1.11585
1.11609
1.11633
1.11655
1.11677
1.11697
1.11717
1.11736
1.11754
1.11771
1.11787
1.11803
1.11818
1.11832
1.11846
1.11859
1.11872
1.11884
1.11896
1.11907
1.11918
1.11929
1.11939
1.11949
1.11958
1.11968
1.11977
1.11985
1.11994
1.12002
1.1201
1.12018
1.12026
1.12033
1.1204
1.12048
1.12055
1.12061
1.12068
1.12075
1.12081
1.12088
1.12094
1.121
1.12107
1.12113
1.12119
1.12125
1.12131
1.12137
1.12143
1.1215
1.12156
1.12162
1.12169
1.12175
1.12182
1.12188
1.12195
1.12202
1.12209
1.12217
1.12224
1.12232
1.1224
1.12248
1.12257
1.12265
1.12274
1.12283
1.12293
1.12302
1.12312
1.12322
1.12332
1.12343
1.12354
1.12365
1.12376
1.12388
1.12399
1.12411
1.12423
1.12435
1.12447
1.12459
1.12472
1.12484
1.12497
1.12509
1.12522
1.12534
1.12547
1.12559
1.12571
1.12583
1.12595
1.12607
1.12619
1.1263
1.12642
1.12653
1.12664
1.12675
1.12685
1.12695
1.12706
1.12715
1.12725
1.12735
1.12744
1.12753
1.12763
1.12772
1.12781
1.12789
1.12798
1.12807
1.12816
1.12825
1.12834
1.12844
1.12853
1.12863
1.12873
1.12883
1.12893
1.12904
1.12915
1.12927
1.12939
1.12952
1.12965
1.12979
1.12993
1.13008
1.13024
1.1304
1.13057
1.13075
1.13093
1.13112
1.13132
1.13152
1.13173
1.13195
1.13218
1.13241
1.13264
1.13289
1.13314
1.13339
1.13365
1.13392
1.13418
1.13445
1.13473
1.135
1.13528
1.13556
1.13583
1.13611
1.13638
1.13665
1.13692
1.13719
1.13745
1.13771
1.13796
1.13821
1.13846
1.1387
1.13894
1.13917
1.1394
1.13963
1.13985
1.14007
1.14029
1.14051
1.14072
1.14094
1.14115
1.14136
1.14158
1.14179
1.14201
1.14222
1.14244
1.14265
1.14287
1.14309
1.14331
1.14352
1.14374
1.14396
1.14418
1.14439
1.1446
1.14481
1.14502
1.14523
1.14543
1.14563
1.14582
1.14601
1.14619
1.14637
1.14655
1.14671
1.14687
1.14703
1.14718
1.14732
1.14746
1.14759
1.14772
1.14784
1.14796
1.14807
1.14818
1.14829
1.14839
1.14849
1.14859
1.14869
1.14879
1.14889
1.149
1.1491
1.14921
1.14932
1.14944
1.14957
1.1497
1.14985
1.15
1.15016
1.15034
1.15053
1.15073
1.15095
1.15119
1.15144
1.15172
1.15202
1.15233
1.15268
1.15305
1.15344
1.15386
1.15431
1.15479
1.15531
1.15585
1.15643
1.15704
1.15769
1.15838
1.1591
1.15987
1.16068
1.16153
1.16243
1.16337
1.16436
1.16541
1.16652
1.16768
1.16891
1.17021
1.17159
1.17305
1.1746
1.17623
1.17794
1.17971
1.18151
1.18325
1.18482
1.1861
1.18694
1.18722
1.18692
1.09777
1.09744
1.09733
1.0974
1.09762
1.09795
1.09833
1.09872
1.09912
1.09949
1.09984
1.10016
1.10045
1.1007
1.10093
1.10113
1.1013
1.10145
1.10158
1.1017
1.1018
1.10188
1.10196
1.10202
1.10207
1.10212
1.10216
1.10218
1.10221
1.10223
1.10224
1.10225
1.10226
1.10226
1.10227
1.10226
1.10226
1.10226
1.10225
1.10224
1.10224
1.10223
1.10222
1.10222
1.10221
1.1022
1.1022
1.1022
1.1022
1.1022
1.1022
1.10221
1.10222
1.10223
1.10225
1.10227
1.1023
1.10233
1.10237
1.10241
1.10246
1.10251
1.10257
1.10264
1.10271
1.1028
1.10289
1.10299
1.10309
1.10321
1.10333
1.10346
1.1036
1.10375
1.10391
1.10408
1.10426
1.10445
1.10464
1.10485
1.10506
1.10529
1.10552
1.10576
1.10602
1.10628
1.10655
1.10683
1.10712
1.10741
1.10772
1.10802
1.10834
1.10866
1.10898
1.10931
1.10964
1.10998
1.11031
1.11065
1.11099
1.11132
1.11166
1.11199
1.11232
1.11265
1.11298
1.1133
1.11361
1.11392
1.11422
1.11452
1.1148
1.11508
1.11535
1.11561
1.11587
1.11611
1.11634
1.11656
1.11677
1.11698
1.11717
1.11736
1.11753
1.1177
1.11786
1.11801
1.11816
1.1183
1.11844
1.11857
1.11869
1.11881
1.11892
1.11904
1.11914
1.11925
1.11935
1.11944
1.11954
1.11963
1.11972
1.1198
1.11989
1.11997
1.12005
1.12013
1.1202
1.12028
1.12035
1.12042
1.12049
1.12056
1.12062
1.12069
1.12075
1.12082
1.12088
1.12094
1.121
1.12107
1.12113
1.12119
1.12125
1.12131
1.12137
1.12143
1.1215
1.12156
1.12162
1.12169
1.12175
1.12182
1.12189
1.12196
1.12203
1.12211
1.12218
1.12226
1.12234
1.12242
1.1225
1.12259
1.12268
1.12277
1.12287
1.12296
1.12306
1.12316
1.12326
1.12337
1.12348
1.12359
1.1237
1.12382
1.12393
1.12405
1.12417
1.12429
1.12441
1.12453
1.12466
1.12478
1.12491
1.12503
1.12516
1.12528
1.1254
1.12553
1.12565
1.12577
1.12589
1.12601
1.12612
1.12624
1.12635
1.12646
1.12657
1.12668
1.12679
1.12689
1.12699
1.12709
1.12719
1.12728
1.12738
1.12747
1.12756
1.12765
1.12774
1.12783
1.12792
1.12801
1.1281
1.12819
1.12828
1.12837
1.12847
1.12857
1.12866
1.12877
1.12887
1.12898
1.12909
1.12921
1.12933
1.12946
1.12959
1.12973
1.12988
1.13003
1.13018
1.13035
1.13052
1.13069
1.13088
1.13107
1.13127
1.13147
1.13169
1.13191
1.13213
1.13237
1.13261
1.13286
1.13311
1.13337
1.13363
1.1339
1.13417
1.13444
1.13472
1.135
1.13528
1.13556
1.13584
1.13612
1.1364
1.13667
1.13694
1.13721
1.13748
1.13774
1.13799
1.13824
1.13849
1.13873
1.13897
1.1392
1.13943
1.13966
1.13988
1.1401
1.14031
1.14053
1.14074
1.14095
1.14117
1.14138
1.14159
1.1418
1.14202
1.14223
1.14245
1.14266
1.14288
1.14309
1.14331
1.14353
1.14375
1.14397
1.14418
1.1444
1.14461
1.14482
1.14503
1.14524
1.14544
1.14564
1.14583
1.14602
1.14621
1.14638
1.14656
1.14672
1.14688
1.14704
1.14719
1.14733
1.14747
1.1476
1.14772
1.14784
1.14796
1.14807
1.14818
1.14828
1.14838
1.14848
1.14858
1.14867
1.14877
1.14887
1.14897
1.14907
1.14917
1.14928
1.1494
1.14952
1.14965
1.14979
1.14994
1.15009
1.15027
1.15045
1.15065
1.15086
1.1511
1.15135
1.15162
1.15191
1.15222
1.15256
1.15293
1.15332
1.15373
1.15418
1.15465
1.15516
1.1557
1.15627
1.15688
1.15752
1.1582
1.15892
1.15967
1.16047
1.1613
1.16218
1.1631
1.16407
1.16509
1.16615
1.16727
1.16844
1.16967
1.17096
1.17231
1.17372
1.17518
1.17668
1.17819
1.17967
1.18104
1.18223
1.18314
1.18369
1.18384
1.18351
1.09849
1.09821
1.09808
1.0981
1.09823
1.09845
1.09872
1.09902
1.09933
1.09964
1.09993
1.10021
1.10046
1.10069
1.10089
1.10108
1.10124
1.10138
1.10151
1.10162
1.10172
1.10181
1.10188
1.10194
1.102
1.10204
1.10208
1.10212
1.10214
1.10216
1.10218
1.10219
1.1022
1.10221
1.10221
1.10221
1.10221
1.10221
1.10221
1.1022
1.1022
1.10219
1.10219
1.10218
1.10218
1.10217
1.10217
1.10217
1.10217
1.10217
1.10217
1.10218
1.10219
1.1022
1.10222
1.10224
1.10227
1.1023
1.10234
1.10238
1.10243
1.10248
1.10254
1.10261
1.10269
1.10277
1.10286
1.10296
1.10307
1.10318
1.10331
1.10344
1.10358
1.10373
1.10389
1.10406
1.10423
1.10442
1.10462
1.10482
1.10504
1.10526
1.1055
1.10574
1.106
1.10626
1.10653
1.10681
1.1071
1.1074
1.1077
1.10801
1.10833
1.10865
1.10898
1.10931
1.10964
1.10998
1.11032
1.11065
1.11099
1.11133
1.11167
1.112
1.11234
1.11266
1.11299
1.11331
1.11363
1.11394
1.11424
1.11454
1.11482
1.1151
1.11537
1.11563
1.11588
1.11612
1.11635
1.11657
1.11678
1.11698
1.11717
1.11735
1.11753
1.11769
1.11785
1.118
1.11814
1.11828
1.11841
1.11854
1.11866
1.11878
1.11889
1.119
1.1191
1.1192
1.1193
1.1194
1.11949
1.11958
1.11967
1.11975
1.11983
1.11991
1.11999
1.12007
1.12014
1.12022
1.12029
1.12036
1.12043
1.12049
1.12056
1.12063
1.12069
1.12075
1.12082
1.12088
1.12094
1.121
1.12106
1.12112
1.12118
1.12124
1.1213
1.12137
1.12143
1.12149
1.12155
1.12162
1.12169
1.12175
1.12182
1.12189
1.12196
1.12204
1.12211
1.12219
1.12227
1.12235