# vtk DataFile Version 2.0
LBE mesh
ASCII
DATASET STRUCTURED_POINTS
DIMENSIONS 400 100 1
ASPECT_RATIO 1 1 1
ORIGIN 0 0 0
POINT_DATA 40000
SCALARS rho double 1
LOOKUP_TABLE default
1.10998
1.18474
1.20646
1.21084
1.21297
1.21483
1.2162
1.21709
1.2177
1.21816
1.21851
1.2188
1.21903
1.21921
1.21937
1.2195
1.21962
1.21971
1.2198
1.21987
1.21993
1.21998
1.22003
1.22006
1.2201
1.22012
1.22015
1.22016
1.22018
1.22019
1.2202
1.2202
1.2202
1.2202
1.2202
1.2202
1.22019
1.22018
1.22018
1.22017
1.22016
1.22015
1.22015
1.22014
1.22013
1.22013
1.22013
1.22012
1.22012
1.22013
1.22013
1.22014
1.22016
1.22018
1.2202
1.22022
1.22026
1.22029
1.22034
1.22039
1.22044
1.2205
1.22057
1.22065
1.22073
1.22082
1.22092
1.22103
1.22114
1.22126
1.22139
1.22153
1.22167
1.22183
1.22199
1.22216
1.22234
1.22252
1.22271
1.22291
1.22312
1.22333
1.22355
1.22378
1.22401
1.22425
1.2245
1.22475
1.225
1.22526
1.22552
1.22579
1.22606
1.22633
1.22661
1.22688
1.22716
1.22743
1.22771
1.22798
1.22825
1.22852
1.22879
1.22905
1.22931
1.22957
1.22981
1.23006
1.23029
1.23052
1.23074
1.23096
1.23116
1.23136
1.23154
1.23172
1.23189
1.23204
1.23219
1.23233
1.23246
1.23257
1.23268
1.23278
1.23286
1.23294
1.23301
1.23307
1.23313
1.23317
1.23321
1.23324
1.23327
1.23329
1.2333
1.23331
1.23332
1.23332
1.23331
1.23331
1.2333
1.23328
1.23327
1.23325
1.23323
1.23321
1.23319
1.23316
1.23314
1.23311
1.23308
1.23306
1.23303
1.233
1.23298
1.23295
1.23292
1.23289
1.23287
1.23284
1.23282
1.23279
1.23277
1.23275
1.23273
1.2327
1.23268
1.23267
1.23265
1.23263
1.23261
1.2326
1.23259
1.23257
1.23256
1.23255
1.23254
1.23253
1.23253
1.23252
1.23252
1.23251
1.23251
1.23251
1.23251
1.23251
1.23251
1.23251
1.23252
1.23252
1.23253
1.23253
1.23254
1.23255
1.23256
1.23257
1.23258
1.23259
1.2326
1.23261
1.23263
1.23264
1.23266
1.23267
1.23269
1.23271
1.23273
1.23275
1.23277
1.2328
1.23282
1.23285
1.23287
1.2329
1.23293
1.23297
1.233
1.23304
1.23308
1.23312
1.23316
1.23321
1.23326
1.23332
1.23337
1.23344
1.2335
1.23357
1.23364
1.23372
1.23381
1.2339
1.23399
1.23409
1.2342
1.23431
1.23443
1.23456
1.23469
1.23483
1.23498
1.23514
1.2353
1.23547
1.23565
1.23584
1.23604
1.23625
1.23646
1.23669
1.23692
1.23717
1.23742
1.23768
1.23795
1.23823
1.23852
1.23881
1.23912
1.23943
1.23975
1.24008
1.24042
1.24076
1.24111
1.24146
1.24182
1.24218
1.24254
1.24291
1.24328
1.24365
1.24403
1.2444
1.24477
1.24513
1.2455
1.24586
1.24621
1.24656
1.2469
1.24723
1.24756
1.24787
1.24818
1.24847
1.24876
1.24903
1.24929
1.24955
1.24978
1.25001
1.25023
1.25043
1.25063
1.25081
1.25098
1.25114
1.25129
1.25143
1.25156
1.25168
1.25179
1.2519
1.252
1.25209
1.25217
1.25224
1.25231
1.25238
1.25243
1.25249
1.25253
1.25258
1.25261
1.25265
1.25268
1.2527
1.25272
1.25274
1.25276
1.25277
1.25278
1.25279
1.25279
1.2528
1.2528
1.2528
1.2528
1.2528
1.2528
1.25279
1.25279
1.25279
1.2528
1.2528
1.25281
1.25282
1.25283
1.25285
1.25288
1.25291
1.25295
1.253
1.25306
1.25312
1.2532
1.25329
1.25339
1.2535
1.25363
1.25378
1.25394
1.25412
1.25431
1.25453
1.25476
1.25502
1.2553
1.2556
1.25593
1.25628
1.25666
1.25706
1.2575
1.25796
1.25845
1.25897
1.25953
1.26012
1.26074
1.2614
1.2621
1.26283
1.26361
1.26443
1.2653
1.26621
1.26718
1.2682
1.26928
1.27042
1.27164
1.27294
1.27434
1.27583
1.27745
1.27921
1.28114
1.28328
1.28566
1.28838
1.29151
1.29521
1.29971
1.30552
1.31363
1.32506
1.34144
1.37392
1.17386
1.18358
1.19547
1.20529
1.21038
1.21297
1.21459
1.21576
1.21663
1.21728
1.21778
1.21817
1.21848
1.21874
1.21895
1.21913
1.21928
1.21941
1.21952
1.21962
1.2197
1.21977
1.21983
1.21988
1.21993
1.21996
1.22
1.22002
1.22005
1.22006
1.22008
1.22009
1.2201
1.2201
1.2201
1.2201
1.2201
1.2201
1.2201
1.22009
1.22009
1.22008
1.22008
1.22008
1.22007
1.22007
1.22007
1.22007
1.22007
1.22008
1.22009
1.2201
1.22012
1.22014
1.22016
1.22019
1.22023
1.22026
1.22031
1.22036
1.22042
1.22048
1.22055
1.22063
1.22072
1.22081
1.22091
1.22102
1.22113
1.22126
1.22139
1.22153
1.22167
1.22183
1.22199
1.22216
1.22234
1.22253
1.22272
1.22292
1.22313
1.22334
1.22356
1.22379
1.22403
1.22427
1.22451
1.22476
1.22502
1.22528
1.22554
1.22581
1.22608
1.22635
1.22662
1.2269
1.22717
1.22745
1.22772
1.22799
1.22827
1.22853
1.2288
1.22906
1.22932
1.22957
1.22982
1.23006
1.23029
1.23052
1.23074
1.23095
1.23116
1.23135
1.23153
1.23171
1.23187
1.23203
1.23218
1.23231
1.23244
1.23255
1.23266
1.23275
1.23284
1.23292
1.23299
1.23305
1.2331
1.23315
1.23318
1.23322
1.23324
1.23326
1.23327
1.23328
1.23329
1.23329
1.23329
1.23328
1.23327
1.23326
1.23324
1.23322
1.2332
1.23318
1.23316
1.23314
1.23311
1.23309
1.23306
1.23303
1.23301
1.23298
1.23296
1.23293
1.2329
1.23288
1.23285
1.23283
1.2328
1.23278
1.23275
1.23273
1.23271
1.23269
1.23267
1.23265
1.23264
1.23262
1.2326
1.23259
1.23258
1.23256
1.23255
1.23254
1.23253
1.23252
1.23252
1.23251
1.23251
1.2325
1.2325
1.2325
1.2325
1.2325
1.2325
1.23251
1.23251
1.23251
1.23252
1.23253
1.23253
1.23254
1.23255
1.23256
1.23257
1.23258
1.23259
1.23261
1.23262
1.23264
1.23265
1.23267
1.23269
1.23271
1.23273
1.23275
1.23277
1.23279
1.23282
1.23284
1.23287
1.2329
1.23293
1.23296
1.233
1.23304
1.23308
1.23312
1.23316
1.23321
1.23326
1.23332
1.23338
1.23344
1.2335
1.23357
1.23365
1.23373
1.23381
1.2339
1.234
1.2341
1.23421
1.23432
1.23444
1.23457
1.2347
1.23485
1.235
1.23515
1.23532
1.23549
1.23567
1.23586
1.23606
1.23627
1.23649
1.23671
1.23695
1.23719
1.23744
1.2377
1.23798
1.23826
1.23854
1.23884
1.23915
1.23946
1.23978
1.24011
1.24045
1.24079
1.24114
1.24149
1.24185
1.24221
1.24257
1.24294
1.24331
1.24368
1.24405
1.24442
1.24479
1.24516
1.24552
1.24587
1.24623
1.24657
1.24691
1.24724
1.24757
1.24788
1.24818
1.24848
1.24876
1.24903
1.24929
1.24954
1.24978
1.25001
1.25022
1.25042
1.25062
1.2508
1.25097
1.25113
1.25128
1.25141
1.25155
1.25167
1.25178
1.25188
1.25198
1.25207
1.25215
1.25223
1.2523
1.25236
1.25242
1.25247
1.25252
1.25256
1.2526
1.25263
1.25266
1.25269
1.25271
1.25273
1.25275
1.25276
1.25277
1.25278
1.25278
1.25279
1.25279
1.25279
1.25279
1.25279
1.25279
1.25279
1.25279
1.25279
1.25279
1.2528
1.2528
1.25282
1.25283
1.25285
1.25288
1.25291
1.25296
1.253
1.25306
1.25313
1.25321
1.2533
1.2534
1.25352
1.25365
1.2538
1.25396
1.25414
1.25434
1.25456
1.2548
1.25506
1.25534
1.25565
1.25598
1.25634
1.25672
1.25713
1.25756
1.25803
1.25853
1.25905
1.25961
1.26021
1.26084
1.2615
1.2622
1.26295
1.26373
1.26456
1.26543
1.26635
1.26733
1.26836
1.26945
1.27061
1.27185
1.27317
1.27458
1.27611
1.27776
1.27956
1.28154
1.28375
1.28623
1.28907
1.29236
1.29631
1.30117
1.30731
1.31526
1.32686
1.34726
1.37971
1.19355
1.19165
1.19886
1.2049
1.20867
1.21139
1.21335
1.21474
1.21575
1.21652
1.21712
1.2176
1.21798
1.21829
1.21856
1.21878
1.21896
1.21912
1.21926
1.21937
1.21948
1.21956
1.21964
1.2197
1.21976
1.21981
1.21985
1.21988
1.21992
1.21994
1.21996
1.21998
1.21999
1.22
1.22001
1.22001
1.22002
1.22002
1.22002
1.22002
1.22001
1.22001
1.22001
1.22001
1.22001
1.22001
1.22001
1.22001
1.22002
1.22003
1.22004
1.22005
1.22007
1.22009
1.22012
1.22015
1.22019
1.22023
1.22028
1.22033
1.22039
1.22045
1.22053
1.22061
1.22069
1.22079
1.22089
1.221
1.22112
1.22124
1.22138
1.22152
1.22166
1.22182
1.22199
1.22216
1.22234
1.22252
1.22272
1.22292
1.22313
1.22335
1.22357
1.2238
1.22403
1.22427
1.22452
1.22477
1.22503
1.22529
1.22555
1.22582
1.22609
1.22636
1.22663
1.22691
1.22718
1.22746
1.22773
1.22801
1.22828
1.22855
1.22881
1.22907
1.22933
1.22958
1.22983
1.23007
1.2303
1.23052
1.23074
1.23095
1.23116
1.23135
1.23153
1.2317
1.23187
1.23202
1.23217
1.2323
1.23242
1.23254
1.23264
1.23274
1.23282
1.2329
1.23297
1.23302
1.23308
1.23312
1.23316
1.23319
1.23321
1.23323
1.23325
1.23326
1.23326
1.23326
1.23326
1.23325
1.23324
1.23323
1.23321
1.23319
1.23318
1.23316
1.23313
1.23311
1.23309
1.23306
1.23304
1.23301
1.23298
1.23296
1.23293
1.23291
1.23288
1.23285
1.23283
1.2328
1.23278
1.23276
1.23274
1.23271
1.23269
1.23267
1.23265
1.23264
1.23262
1.2326
1.23259
1.23257
1.23256
1.23255
1.23254
1.23253
1.23252
1.23251
1.23251
1.2325
1.2325
1.23249
1.23249
1.23249
1.23249
1.23249
1.23249
1.2325
1.2325
1.2325
1.23251
1.23252
1.23252
1.23253
1.23254
1.23255
1.23256
1.23257
1.23259
1.2326
1.23261
1.23263
1.23265
1.23266
1.23268
1.2327
1.23272
1.23274
1.23276
1.23279
1.23281
1.23284
1.23286
1.23289
1.23293
1.23296
1.23299
1.23303
1.23307
1.23311
1.23316
1.23321
1.23326
1.23331
1.23337
1.23344
1.2335
1.23357
1.23365
1.23373
1.23381
1.2339
1.234
1.2341
1.23421
1.23432
1.23444
1.23457
1.23471
1.23485
1.235
1.23516
1.23532
1.2355
1.23568
1.23587
1.23607
1.23628
1.2365
1.23672
1.23696
1.2372
1.23746
1.23772
1.23799
1.23827
1.23856
1.23886
1.23917
1.23948
1.2398
1.24013
1.24047
1.24081
1.24116
1.24151
1.24187
1.24223
1.2426
1.24297
1.24334
1.24371
1.24408
1.24445
1.24481
1.24518
1.24554
1.2459
1.24625
1.24659
1.24693
1.24726
1.24758
1.24789
1.2482
1.24849
1.24877
1.24904
1.2493
1.24955
1.24978
1.25001
1.25022
1.25042
1.25061
1.25079
1.25096
1.25112
1.25127
1.25141
1.25154
1.25166
1.25177
1.25187
1.25197
1.25206
1.25214
1.25222
1.25229
1.25235
1.25241
1.25246
1.25251
1.25255
1.25259
1.25262
1.25265
1.25268
1.2527
1.25272
1.25273
1.25275
1.25276
1.25277
1.25277
1.25277
1.25278
1.25278
1.25278
1.25278
1.25278
1.25278
1.25278
1.25278
1.25278
1.25279
1.2528
1.25281
1.25282
1.25285
1.25287
1.25291
1.25295
1.253
1.25306
1.25313
1.25321
1.2533
1.25341
1.25353
1.25366
1.25381
1.25397
1.25416
1.25436
1.25458
1.25482
1.25508
1.25537
1.25568
1.25601
1.25637
1.25675
1.25716
1.2576
1.25807
1.25857
1.2591
1.25967
1.26026
1.2609
1.26156
1.26227
1.26302
1.26381
1.26464
1.26551
1.26644
1.26742
1.26846
1.26956
1.27072
1.27197
1.27329
1.27472
1.27625
1.27792
1.27973
1.28173
1.28395
1.28645
1.2893
1.2926
1.29649
1.30119
1.30708
1.31471
1.32426
1.33464
1.34463
1.20157
1.2006
1.20287
1.20559
1.20857
1.21097
1.21274
1.21408
1.21512
1.21594
1.21659
1.21712
1.21755
1.21791
1.2182
1.21846
1.21867
1.21885
1.21901
1.21915
1.21926
1.21937
1.21945
1.21953
1.2196
1.21966
1.21971
1.21975
1.21979
1.21982
1.21985
1.21987
1.21989
1.2199
1.21991
1.21992
1.21993
1.21993
1.21994
1.21994
1.21994
1.21994
1.21994
1.21994
1.21994
1.21995
1.21995
1.21995
1.21996
1.21997
1.21999
1.22
1.22002
1.22004
1.22007
1.2201
1.22014
1.22019
1.22023
1.22029
1.22035
1.22042
1.22049
1.22057
1.22066
1.22076
1.22086
1.22097
1.22109
1.22122
1.22135
1.2215
1.22165
1.2218
1.22197
1.22214
1.22232
1.22251
1.22271
1.22291
1.22312
1.22334
1.22356
1.22379
1.22403
1.22427
1.22452
1.22477
1.22503
1.22529
1.22556
1.22582
1.22609
1.22637
1.22664
1.22692
1.22719
1.22747
1.22774
1.22802
1.22829
1.22856
1.22882
1.22908
1.22934
1.22959
1.22984
1.23007
1.23031
1.23053
1.23075
1.23096
1.23116
1.23135
1.23153
1.2317
1.23187
1.23202
1.23216
1.23229
1.23242
1.23253
1.23263
1.23272
1.23281
1.23288
1.23295
1.23301
1.23306
1.2331
1.23314
1.23317
1.23319
1.23321
1.23322
1.23323
1.23323
1.23323
1.23323
1.23322
1.23321
1.2332
1.23318
1.23317
1.23315
1.23313
1.2331
1.23308
1.23306
1.23303
1.23301
1.23298
1.23296
1.23293
1.23291
1.23288
1.23285
1.23283
1.23281
1.23278
1.23276
1.23273
1.23271
1.23269
1.23267
1.23265
1.23263
1.23262
1.2326
1.23258
1.23257
1.23256
1.23254
1.23253
1.23252
1.23251
1.2325
1.2325
1.23249
1.23249
1.23248
1.23248
1.23248
1.23248
1.23248
1.23248
1.23248
1.23248
1.23249
1.23249
1.2325
1.23251
1.23251
1.23252
1.23253
1.23254
1.23255
1.23256
1.23258
1.23259
1.2326
1.23262
1.23264
1.23265
1.23267
1.23269
1.23271
1.23273
1.23275
1.23278
1.2328
1.23283
1.23286
1.23288
1.23292
1.23295
1.23298
1.23302
1.23306
1.2331
1.23315
1.2332
1.23325
1.23331
1.23336
1.23343
1.23349
1.23356
1.23364
1.23372
1.2338
1.2339
1.23399
1.23409
1.2342
1.23432
1.23444
1.23457
1.2347
1.23484
1.235
1.23515
1.23532
1.23549
1.23568
1.23587
1.23607
1.23628
1.2365
1.23672
1.23696
1.23721
1.23746
1.23773
1.238
1.23828
1.23857
1.23887
1.23918
1.23949
1.23981
1.24014
1.24048
1.24082
1.24117
1.24153
1.24189
1.24225
1.24262
1.24299
1.24336
1.24373
1.2441
1.24447
1.24484
1.2452
1.24556
1.24592
1.24627
1.24661
1.24695
1.24728
1.2476
1.24791
1.24821
1.2485
1.24878
1.24905
1.24931
1.24956
1.24979
1.25001
1.25023
1.25043
1.25062
1.25079
1.25096
1.25112
1.25127
1.2514
1.25153
1.25165
1.25176
1.25187
1.25196
1.25205
1.25213
1.25221
1.25228
1.25234
1.2524
1.25245
1.2525
1.25254
1.25258
1.25261
1.25264
1.25267
1.25269
1.25271
1.25272
1.25274
1.25275
1.25275
1.25276
1.25276
1.25277
1.25277
1.25277
1.25277
1.25276
1.25276
1.25276
1.25276
1.25277
1.25277
1.25278
1.2528
1.25281
1.25283
1.25286
1.2529
1.25294
1.25299
1.25305
1.25312
1.2532
1.25329
1.2534
1.25352
1.25365
1.2538
1.25397
1.25415
1.25435
1.25458
1.25482
1.25508
1.25537
1.25568
1.25601
1.25637
1.25676
1.25717
1.25762
1.25809
1.25859
1.25912
1.25969
1.26029
1.26092
1.26159
1.2623
1.26305
1.26384
1.26467
1.26555
1.26648
1.26746
1.2685
1.2696
1.27076
1.272
1.27333
1.27475
1.27627
1.27793
1.27973
1.2817
1.28389
1.28633
1.28909
1.29226
1.29593
1.30023
1.30526
1.31111
1.3176
1.32288
1.32304
1.20593
1.20547
1.20605
1.20756
1.20944
1.21112
1.21257
1.21378
1.21476
1.21556
1.21621
1.21675
1.21721
1.21758
1.2179
1.21818
1.21841
1.21861
1.21878
1.21893
1.21907
1.21918
1.21928
1.21937
1.21945
1.21951
1.21957
1.21962
1.21966
1.2197
1.21973
1.21976
1.21978
1.2198
1.21982
1.21983
1.21984
1.21985
1.21985
1.21986
1.21986
1.21986
1.21987
1.21987
1.21987
1.21988
1.21988
1.21989
1.2199
1.21991
1.21993
1.21994
1.21996
1.21999
1.22002
1.22005
1.22009
1.22014
1.22019
1.22024
1.2203
1.22037
1.22045
1.22053
1.22062
1.22072
1.22082
1.22094
1.22106
1.22119
1.22132
1.22147
1.22162
1.22178
1.22195
1.22212
1.2223
1.22249
1.22269
1.22289
1.22311
1.22332
1.22355
1.22378
1.22402
1.22426
1.22451
1.22477
1.22502
1.22529
1.22555
1.22582
1.2261
1.22637
1.22665
1.22692
1.2272
1.22748
1.22775
1.22803
1.2283
1.22857
1.22883
1.22909
1.22935
1.2296
1.22985
1.23009
1.23032
1.23054
1.23076
1.23097
1.23117
1.23136
1.23154
1.23171
1.23187
1.23202
1.23216
1.23229
1.23241
1.23252
1.23263
1.23272
1.2328
1.23287
1.23293
1.23299
1.23304
1.23308
1.23312
1.23314
1.23317
1.23318
1.23319
1.2332
1.2332
1.2332
1.2332
1.23319
1.23318
1.23317
1.23315
1.23313
1.23311
1.23309
1.23307
1.23305
1.23303
1.233
1.23298
1.23295
1.23293
1.2329
1.23288
1.23285
1.23283
1.2328
1.23278
1.23275
1.23273
1.23271
1.23269
1.23267
1.23265
1.23263
1.23261
1.23259
1.23258
1.23256
1.23255
1.23254
1.23252
1.23251
1.2325
1.23249
1.23249
1.23248
1.23247
1.23247
1.23247
1.23246
1.23246
1.23246
1.23246
1.23246
1.23247
1.23247
1.23248
1.23248
1.23249
1.23249
1.2325
1.23251
1.23252
1.23253
1.23254
1.23255
1.23257
1.23258
1.23259
1.23261
1.23262
1.23264
1.23266
1.23268
1.2327
1.23272
1.23274
1.23276
1.23279
1.23281
1.23284
1.23287
1.2329
1.23294
1.23297
1.23301
1.23305
1.23309
1.23314
1.23318
1.23324
1.23329
1.23335
1.23341
1.23348
1.23355
1.23362
1.2337
1.23379
1.23388
1.23398
1.23408
1.23419
1.2343
1.23442
1.23455
1.23469
1.23483
1.23498
1.23514
1.23531
1.23548
1.23567
1.23586
1.23606
1.23627
1.23649
1.23672
1.23695
1.2372
1.23746
1.23772
1.23799
1.23828
1.23857
1.23887
1.23918
1.23949
1.23982
1.24015
1.24049
1.24083
1.24118
1.24154
1.2419
1.24226
1.24263
1.243
1.24337
1.24375
1.24412
1.24449
1.24486
1.24522
1.24559
1.24594
1.2463
1.24664
1.24698
1.24731
1.24763
1.24794
1.24824
1.24853
1.24881
1.24907
1.24933
1.24958
1.24981
1.25003
1.25024
1.25044
1.25063
1.2508
1.25097
1.25112
1.25127
1.25141
1.25153
1.25165
1.25176
1.25186
1.25196
1.25205
1.25213
1.2522
1.25227
1.25233
1.25239
1.25244
1.25249
1.25253
1.25257
1.2526
1.25263
1.25266
1.25268
1.2527
1.25271
1.25273
1.25274
1.25274
1.25275
1.25275
1.25275
1.25275
1.25275
1.25275
1.25275
1.25275
1.25275
1.25275
1.25275
1.25276
1.25277
1.25278
1.25279
1.25282
1.25284
1.25288
1.25292
1.25297
1.25303
1.2531
1.25318
1.25327
1.25338
1.2535
1.25363
1.25378
1.25395
1.25413
1.25433
1.25456
1.2548
1.25506
1.25535
1.25566
1.256
1.25636
1.25674
1.25716
1.2576
1.25807
1.25858
1.25911
1.25968
1.26028
1.26091
1.26158
1.26229
1.26304
1.26383
1.26466
1.26554
1.26646
1.26744
1.26847
1.26956
1.27072
1.27195
1.27326
1.27466
1.27617
1.27779
1.27955
1.28147
1.28357
1.28591
1.28851
1.29143
1.29471
1.29841
1.30247
1.30665
1.31039
1.31297
1.31228
1.20897
1.20844
1.20858
1.2094
1.21049
1.21166
1.21278
1.21378
1.21463
1.21536
1.21598
1.2165
1.21695
1.21733
1.21766
1.21794
1.21819
1.2184
1.21858
1.21874
1.21889
1.21901
1.21912
1.21922
1.2193
1.21937
1.21944
1.21949
1.21954
1.21959
1.21962
1.21965
1.21968
1.2197
1.21972
1.21974
1.21975
1.21976
1.21977
1.21978
1.21978
1.21979
1.21979
1.2198
1.2198
1.21981
1.21982
1.21982
1.21984
1.21985
1.21986
1.21988
1.2199
1.21993
1.21996
1.21999
1.22004
1.22008
1.22013
1.22019
1.22025
1.22032
1.2204
1.22048
1.22057
1.22067
1.22078
1.22089
1.22102
1.22114
1.22128
1.22143
1.22158
1.22174
1.22191
1.22209
1.22227
1.22246
1.22266
1.22287
1.22308
1.2233
1.22353
1.22376
1.224
1.22425
1.2245
1.22475
1.22501
1.22528
1.22555
1.22582
1.22609
1.22637
1.22665
1.22692
1.2272
1.22748
1.22776
1.22803
1.22831
1.22858
1.22884
1.2291
1.22936
1.22961
1.22986
1.2301
1.23033
1.23056
1.23077
1.23098
1.23118
1.23137
1.23155
1.23172
1.23188
1.23203
1.23217
1.2323
1.23242
1.23253
1.23262
1.23271
1.23279
1.23286
1.23292
1.23298
1.23303
1.23306
1.2331
1.23312
1.23314
1.23316
1.23317
1.23317
1.23318
1.23317
1.23317
1.23316
1.23315
1.23313
1.23312
1.2331
1.23308
1.23306
1.23304
1.23302
1.23299
1.23297
1.23294
1.23292
1.23289
1.23287
1.23284
1.23282
1.23279
1.23277
1.23275
1.23272
1.2327
1.23268
1.23266
1.23264
1.23262
1.2326
1.23258
1.23257
1.23255
1.23254
1.23252
1.23251
1.2325
1.23249
1.23248
1.23247
1.23247
1.23246
1.23246
1.23245
1.23245
1.23245
1.23245
1.23245
1.23245
1.23245
1.23245
1.23245
1.23246
1.23246
1.23247
1.23248
1.23249
1.23249
1.2325
1.23251
1.23253
1.23254
1.23255
1.23256
1.23258
1.23259
1.23261
1.23263
1.23264
1.23266
1.23268
1.2327
1.23272
1.23275
1.23277
1.2328
1.23283
1.23285
1.23288
1.23292
1.23295
1.23299
1.23303
1.23307
1.23312
1.23316
1.23322
1.23327
1.23333
1.23339
1.23346
1.23353
1.2336
1.23368
1.23377
1.23386
1.23395
1.23406
1.23416
1.23428
1.2344
1.23453
1.23467
1.23481
1.23496
1.23512
1.23528
1.23546
1.23564
1.23584
1.23604
1.23625
1.23647
1.2367
1.23693
1.23718
1.23744
1.2377
1.23798
1.23826
1.23855
1.23886
1.23916
1.23948
1.23981
1.24014
1.24048
1.24083
1.24118
1.24154
1.2419
1.24227
1.24264
1.24301
1.24338
1.24376
1.24413
1.24451
1.24488
1.24525
1.24561
1.24597
1.24632
1.24667
1.24701
1.24734
1.24766
1.24797
1.24827
1.24856
1.24883
1.2491
1.24936
1.2496
1.24983
1.25005
1.25026
1.25046
1.25064
1.25082
1.25098
1.25113
1.25128
1.25141
1.25154
1.25165
1.25176
1.25186
1.25196
1.25204
1.25212
1.2522
1.25226
1.25232
1.25238
1.25243
1.25248
1.25252
1.25256
1.25259
1.25262
1.25265
1.25267
1.25269
1.2527
1.25272
1.25273
1.25273
1.25274
1.25274
1.25274
1.25274
1.25274
1.25274
1.25274
1.25273
1.25273
1.25273
1.25274
1.25274
1.25275
1.25276
1.25277
1.25279
1.25282
1.25285
1.25289
1.25294
1.253
1.25307
1.25315
1.25324
1.25335
1.25346
1.2536
1.25375
1.25391
1.25409
1.2543
1.25452
1.25476
1.25503
1.25531
1.25562
1.25596
1.25632
1.2567
1.25712
1.25756
1.25803
1.25853
1.25907
1.25963
1.26023
1.26087
1.26153
1.26224
1.26299
1.26377
1.2646
1.26547
1.26639
1.26736
1.26838
1.26947
1.27061
1.27182
1.27311
1.27448
1.27594
1.27752
1.27921
1.28104
1.28304
1.28522
1.28761
1.29022
1.29306
1.29609
1.29919
1.30212
1.30437
1.30553
1.30526
1.21106
1.2105
1.21048
1.21089
1.21155
1.21235
1.21317
1.21396
1.21467
1.21531
1.21587
1.21635
1.21678
1.21715
1.21747
1.21775
1.218
1.21822
1.21841
1.21858
1.21873
1.21886
1.21897
1.21907
1.21916
1.21924
1.21931
1.21937
1.21943
1.21947
1.21951
1.21955
1.21958
1.21961
1.21963
1.21965
1.21966
1.21967
1.21969
1.2197
1.2197
1.21971
1.21972
1.21972
1.21973
1.21974
1.21975
1.21975
1.21977
1.21978
1.2198
1.21982
1.21984
1.21987
1.2199
1.21993
1.21997
1.22002
1.22007
1.22013
1.22019
1.22026
1.22034
1.22043
1.22052
1.22062
1.22073
1.22084
1.22097
1.2211
1.22124
1.22138
1.22154
1.2217
1.22187
1.22205
1.22224
1.22243
1.22263
1.22284
1.22305
1.22327
1.2235
1.22374
1.22398
1.22422
1.22448
1.22473
1.225
1.22526
1.22553
1.22581
1.22609
1.22636
1.22664
1.22692
1.2272
1.22748
1.22776
1.22804
1.22831
1.22859
1.22885
1.22912
1.22938
1.22963
1.22988
1.23012
1.23035
1.23057
1.23079
1.231
1.2312
1.23139
1.23157
1.23174
1.2319
1.23204
1.23218
1.23231
1.23242
1.23253
1.23263
1.23271
1.23279
1.23286
1.23292
1.23297
1.23301
1.23305
1.23308
1.2331
1.23312
1.23313
1.23314
1.23315
1.23315
1.23314
1.23314
1.23313
1.23312
1.2331
1.23308
1.23307
1.23305
1.23302
1.233
1.23298
1.23296
1.23293
1.23291
1.23288
1.23286
1.23283
1.23281
1.23278
1.23276
1.23274
1.23271
1.23269
1.23267
1.23265
1.23263
1.23261
1.23259
1.23257
1.23255
1.23254
1.23252
1.23251
1.2325
1.23249
1.23248
1.23247
1.23246
1.23245
1.23244
1.23244
1.23243
1.23243
1.23243
1.23243
1.23243
1.23243
1.23243
1.23243
1.23243
1.23244
1.23244
1.23245
1.23245
1.23246
1.23247
1.23248
1.23249
1.2325
1.23251
1.23252
1.23253
1.23255
1.23256
1.23258
1.23259
1.23261
1.23263
1.23264
1.23266
1.23268
1.23271
1.23273
1.23275
1.23278
1.2328
1.23283
1.23286
1.2329
1.23293
1.23297
1.23301
1.23305
1.23309
1.23314
1.23319
1.23324
1.2333
1.23336
1.23343
1.2335
1.23357
1.23365
1.23374
1.23383
1.23393
1.23403
1.23413
1.23425
1.23437
1.2345
1.23463
1.23478
1.23493
1.23509
1.23525
1.23543
1.23561
1.2358
1.23601
1.23622
1.23644
1.23667
1.2369
1.23715
1.23741
1.23768
1.23795
1.23824
1.23853
1.23883
1.23914
1.23946
1.23979
1.24013
1.24047
1.24082
1.24117
1.24153
1.2419
1.24227
1.24264
1.24301
1.24339
1.24377
1.24415
1.24452
1.2449
1.24527
1.24563
1.24599
1.24635
1.2467
1.24704
1.24737
1.24769
1.248
1.2483
1.24859
1.24887
1.24913
1.24939
1.24963
1.24986
1.25008
1.25028
1.25048
1.25066
1.25083
1.251
1.25115
1.25129
1.25142
1.25155
1.25166
1.25177
1.25187
1.25196
1.25204
1.25212
1.25219
1.25226
1.25232
1.25238
1.25243
1.25247
1.25251
1.25255
1.25258
1.25261
1.25264
1.25266
1.25268
1.25269
1.2527
1.25271
1.25272
1.25273
1.25273
1.25273
1.25273
1.25273
1.25272
1.25272
1.25272
1.25272
1.25271
1.25272
1.25272
1.25272
1.25273
1.25275
1.25277
1.25279
1.25282
1.25286
1.25291
1.25297
1.25303
1.25311
1.2532
1.2533
1.25342
1.25355
1.2537
1.25386
1.25405
1.25425
1.25447
1.25471
1.25497
1.25526
1.25556
1.2559
1.25626
1.25664
1.25705
1.25749
1.25796
1.25846
1.259
1.25956
1.26016
1.26079
1.26145
1.26215
1.2629
1.26368
1.2645
1.26536
1.26627
1.26723
1.26824
1.2693
1.27042
1.27161
1.27286
1.27419
1.27561
1.27712
1.27873
1.28046
1.28232
1.28432
1.28646
1.28875
1.29114
1.29358
1.2959
1.29792
1.29936
1.29992
1.29969
1.2125
1.21202
1.21192
1.2121
1.2125
1.21304
1.21364
1.21424
1.21483
1.21536
1.21585
1.21629
1.21668
1.21703
1.21734
1.21761
1.21786
1.21807
1.21826
1.21843
1.21858
1.21872
1.21884
1.21894
1.21904
1.21912
1.21919
1.21926
1.21932
1.21937
1.21941
1.21945
1.21948
1.21951
1.21954
1.21956
1.21958
1.21959
1.2196
1.21961
1.21962
1.21963
1.21964
1.21965
1.21966
1.21966
1.21967
1.21968
1.2197
1.21971
1.21973
1.21975
1.21977
1.2198
1.21983
1.21987
1.21991
1.21995
1.22001
1.22007
1.22013
1.2202
1.22028
1.22037
1.22046
1.22056
1.22067
1.22079
1.22091
1.22104
1.22118
1.22133
1.22149
1.22165
1.22182
1.222
1.22219
1.22238
1.22259
1.2228
1.22301
1.22324
1.22347
1.2237
1.22395
1.22419
1.22445
1.22471
1.22497
1.22524
1.22552
1.22579
1.22607
1.22635
1.22664
1.22692
1.2272
1.22748
1.22776
1.22804
1.22832
1.22859
1.22886
1.22913
1.22939
1.22964
1.22989
1.23013
1.23037
1.23059
1.23081
1.23102
1.23122
1.23141
1.23159
1.23176
1.23191
1.23206
1.2322
1.23232
1.23244
1.23254
1.23263
1.23272
1.23279
1.23286
1.23291
1.23296
1.233
1.23304
1.23306
1.23308
1.2331
1.23311
1.23312
1.23312
1.23312
1.23311
1.23311
1.23309
1.23308
1.23307
1.23305
1.23303
1.23301
1.23299
1.23296
1.23294
1.23292
1.23289
1.23287
1.23284
1.23282
1.23279
1.23277
1.23274
1.23272
1.2327
1.23268
1.23265
1.23263
1.23261
1.23259
1.23257
1.23256
1.23254
1.23252
1.23251
1.23249
1.23248
1.23247
1.23246
1.23245
1.23244
1.23243
1.23242
1.23242
1.23241
1.23241
1.23241
1.2324
1.2324
1.2324
1.2324
1.23241
1.23241
1.23241
1.23242
1.23242
1.23243
1.23243
1.23244
1.23245
1.23246
1.23247
1.23248
1.23249
1.2325
1.23251
1.23253
1.23254
1.23256
1.23257
1.23259
1.23261
1.23262
1.23264
1.23266
1.23268
1.23271
1.23273
1.23275
1.23278
1.23281
1.23284
1.23287
1.2329
1.23294
1.23298
1.23302
1.23306
1.23311
1.23316
1.23321
1.23327
1.23333
1.2334
1.23347
1.23354
1.23362
1.2337
1.23379
1.23389
1.23399
1.2341
1.23421
1.23433
1.23446
1.23459
1.23474
1.23489
1.23505
1.23521
1.23539
1.23557
1.23576
1.23597
1.23618
1.2364
1.23663
1.23686
1.23711
1.23737
1.23764
1.23791
1.2382
1.2385
1.2388
1.23911
1.23943
1.23976
1.2401
1.24045
1.2408
1.24115
1.24152
1.24189
1.24226
1.24263
1.24301
1.24339
1.24377
1.24415
1.24453
1.24491
1.24528
1.24565
1.24602
1.24638
1.24673
1.24707
1.2474
1.24772
1.24804
1.24834
1.24863
1.24891
1.24917
1.24942
1.24967
1.24989
1.25011
1.25031
1.25051
1.25069
1.25086
1.25102
1.25117
1.25131
1.25144
1.25156
1.25167
1.25178
1.25187
1.25196
1.25205
1.25212
1.25219
1.25226
1.25232
1.25237
1.25242
1.25247
1.25251
1.25254
1.25258
1.2526
1.25263
1.25265
1.25267
1.25268
1.2527
1.2527
1.25271
1.25272
1.25272
1.25272
1.25272
1.25271
1.25271
1.2527
1.2527
1.2527
1.25269
1.25269
1.25269
1.2527
1.25271
1.25272
1.25274
1.25276
1.25279
1.25282
1.25287
1.25292
1.25299
1.25306
1.25315
1.25325
1.25337
1.2535
1.25364
1.2538
1.25398
1.25418
1.2544
1.25464
1.2549
1.25518
1.25549
1.25582
1.25617
1.25656
1.25697
1.2574
1.25787
1.25837
1.2589
1.25945
1.26005
1.26067
1.26133
1.26203
1.26276
1.26354
1.26435
1.2652
1.2661
1.26704
1.26803
1.26907
1.27016
1.27132
1.27253
1.27381
1.27517
1.2766
1.27812
1.27974
1.28145
1.28326
1.28516
1.28712
1.28911
1.29104
1.29279
1.2942
1.29513
1.29545
1.29512
1.21356
1.21316
1.21301
1.21308
1.21332
1.21368
1.21411
1.21458
1.21504
1.21549
1.21591
1.21629
1.21665
1.21697
1.21725
1.21751
1.21775
1.21796
1.21814
1.21831
1.21846
1.2186
1.21872
1.21882
1.21892
1.21901
1.21908
1.21915
1.21921
1.21926
1.21931
1.21935
1.21939
1.21942
1.21944
1.21947
1.21949
1.2195
1.21952
1.21953
1.21954
1.21955
1.21956
1.21957
1.21958
1.21959
1.2196
1.21961
1.21962
1.21964
1.21966
1.21968
1.2197
1.21973
1.21976
1.2198
1.21984
1.21988
1.21994
1.22
1.22006
1.22013
1.22021
1.2203
1.22039
1.2205
1.22061
1.22072
1.22085
1.22098
1.22112
1.22127
1.22143
1.2216
1.22177
1.22195
1.22214
1.22234
1.22254
1.22275
1.22297
1.22319
1.22343
1.22366
1.22391
1.22416
1.22442
1.22468
1.22495
1.22522
1.22549
1.22577
1.22606
1.22634
1.22662
1.22691
1.2272
1.22748
1.22776
1.22805
1.22832
1.2286
1.22887
1.22914
1.2294
1.22966
1.22991
1.23015
1.23039
1.23061
1.23083
1.23104
1.23124
1.23143
1.23161
1.23178
1.23194
1.23208
1.23221
1.23234
1.23245
1.23255
1.23264
1.23272
1.23279
1.23285
1.23291
1.23295
1.23299
1.23302
1.23305
1.23307
1.23308
1.23309
1.23309
1.23309
1.23309
1.23308
1.23307
1.23306
1.23305
1.23303
1.23301
1.23299
1.23297
1.23295
1.23292
1.2329
1.23288
1.23285
1.23283
1.2328
1.23278
1.23275
1.23273
1.2327
1.23268
1.23266
1.23264
1.23261
1.23259
1.23257
1.23256
1.23254
1.23252
1.2325
1.23249
1.23247
1.23246
1.23245
1.23244
1.23243
1.23242
1.23241
1.2324
1.2324
1.23239
1.23239
1.23238
1.23238
1.23238
1.23238
1.23238
1.23238
1.23238
1.23239
1.23239
1.23239
1.2324
1.23241
1.23241
1.23242
1.23243
1.23244
1.23245
1.23246
1.23247
1.23248
1.23249
1.23251
1.23252
1.23253
1.23255
1.23257
1.23258
1.2326
1.23262
1.23264
1.23266
1.23268
1.2327
1.23273
1.23275
1.23278
1.23281
1.23284
1.23288
1.23291
1.23295
1.23299
1.23303
1.23308
1.23313
1.23318
1.23324
1.2333
1.23336
1.23343
1.2335
1.23358
1.23366
1.23375
1.23385
1.23395
1.23405
1.23417
1.23429
1.23441
1.23455
1.23469
1.23484
1.235
1.23516
1.23534
1.23552
1.23571
1.23592
1.23613
1.23635
1.23658
1.23681
1.23706
1.23732
1.23759
1.23787
1.23815
1.23845
1.23876
1.23907
1.23939
1.23973
1.24007
1.24041
1.24077
1.24113
1.24149
1.24187
1.24224
1.24262
1.243
1.24339
1.24377
1.24416
1.24454
1.24492
1.2453
1.24568
1.24604
1.2464
1.24676
1.2471
1.24744
1.24776
1.24808
1.24838
1.24867
1.24895
1.24921
1.24947
1.24971
1.24993
1.25015
1.25035
1.25054
1.25072
1.25089
1.25104
1.25119
1.25133
1.25145
1.25157
1.25168
1.25179
1.25188
1.25197
1.25205
1.25213
1.25219
1.25226
1.25232
1.25237
1.25242
1.25246
1.2525
1.25254
1.25257
1.2526
1.25262
1.25264
1.25266
1.25267
1.25269
1.25269
1.2527
1.2527
1.2527
1.2527
1.2527
1.2527
1.25269
1.25269
1.25268
1.25268
1.25267
1.25267
1.25267
1.25267
1.25268
1.25269
1.2527
1.25272
1.25275
1.25278
1.25282
1.25288
1.25294
1.25301
1.25309
1.25319
1.2533
1.25343
1.25357
1.25373
1.25391
1.2541
1.25432
1.25455
1.25481
1.25509
1.25539
1.25572
1.25607
1.25645
1.25686
1.25729
1.25775
1.25825
1.25877
1.25932
1.25991
1.26053
1.26118
1.26187
1.2626
1.26336
1.26416
1.265
1.26588
1.2668
1.26777
1.26878
1.26984
1.27096
1.27213
1.27335
1.27464
1.276
1.27742
1.27891
1.28047
1.28209
1.28375
1.28543
1.28706
1.28859
1.28991
1.29093
1.29154
1.29171
1.29135
1.21436
1.21402
1.21386
1.21387
1.21401
1.21425
1.21457
1.21492
1.21528
1.21565
1.216
1.21634
1.21665
1.21694
1.21721
1.21745
1.21767
1.21787
1.21805
1.21821
1.21836
1.21849
1.21861
1.21872
1.21882
1.2189
1.21898
1.21905
1.21911
1.21917
1.21922
1.21926
1.2193
1.21933
1.21936
1.21938
1.2194
1.21942
1.21944
1.21945
1.21946
1.21947
1.21948
1.21949
1.2195
1.21951
1.21952
1.21954
1.21955
1.21956
1.21958
1.2196
1.21963
1.21965
1.21969
1.21972
1.21977
1.21981
1.21987
1.21993
1.21999
1.22006
1.22014
1.22023
1.22033
1.22043
1.22054
1.22066
1.22078
1.22092
1.22106
1.22121
1.22137
1.22154
1.22171
1.22189
1.22208
1.22228
1.22249
1.2227
1.22292
1.22314
1.22338
1.22362
1.22387
1.22412
1.22438
1.22464
1.22491
1.22519
1.22547
1.22575
1.22603
1.22632
1.22661
1.2269
1.22719
1.22747
1.22776
1.22804
1.22833
1.2286
1.22888
1.22915
1.22941
1.22967
1.22992
1.23017
1.2304
1.23063
1.23085
1.23106
1.23127
1.23146
1.23163
1.2318
1.23196
1.2321
1.23224
1.23236
1.23247
1.23256
1.23265
1.23273
1.2328
1.23286
1.23291
1.23295
1.23298
1.23301
1.23303
1.23305
1.23306
1.23306
1.23307
1.23306
1.23306
1.23305
1.23304
1.23302
1.23301
1.23299
1.23297
1.23295
1.23293
1.2329
1.23288
1.23286
1.23283
1.23281
1.23278
1.23276
1.23273
1.23271
1.23269
1.23266
1.23264
1.23262
1.23259
1.23257
1.23255
1.23253
1.23252
1.2325
1.23248
1.23247
1.23245
1.23244
1.23243
1.23241
1.2324
1.23239
1.23239
1.23238
1.23237
1.23237
1.23236
1.23236
1.23235
1.23235
1.23235
1.23235
1.23235