# vtk DataFile Version 2.0
LBE mesh
ASCII
DATASET STRUCTURED_POINTS
DIMENSIONS 400 100 1
ASPECT_RATIO 1 1 1
ORIGIN 0 0 0
POINT_DATA 40000
SCALARS rho double 1
LOOKUP_TABLE default
1.1902
1.28721
1.31468
1.31927
1.32132
1.32336
1.32489
1.32588
1.32655
1.32704
1.32743
1.32773
1.32798
1.32818
1.32834
1.32848
1.32859
1.32868
1.32876
1.32882
1.32887
1.32891
1.32894
1.32896
1.32897
1.32897
1.32897
1.32896
1.32895
1.32893
1.3289
1.32887
1.32884
1.3288
1.32876
1.32872
1.32868
1.32863
1.32858
1.32853
1.32848
1.32842
1.32837
1.32832
1.32827
1.32821
1.32817
1.32812
1.32807
1.32803
1.32799
1.32795
1.32792
1.3279
1.32787
1.32786
1.32784
1.32784
1.32784
1.32785
1.32786
1.32788
1.32791
1.32795
1.32799
1.32805
1.32811
1.32818
1.32826
1.32834
1.32844
1.32854
1.32866
1.32878
1.32891
1.32905
1.3292
1.32935
1.32951
1.32968
1.32986
1.33005
1.33024
1.33044
1.33065
1.33086
1.33108
1.33131
1.33154
1.33178
1.33202
1.33226
1.33251
1.33276
1.33302
1.33327
1.33353
1.33379
1.33405
1.33431
1.33457
1.33482
1.33508
1.33533
1.33557
1.33582
1.33606
1.33629
1.33652
1.33674
1.33696
1.33716
1.33736
1.33756
1.33774
1.33791
1.33807
1.33823
1.33837
1.3385
1.33862
1.33873
1.33884
1.33893
1.33901
1.33908
1.33914
1.3392
1.33924
1.33928
1.33931
1.33933
1.33935
1.33935
1.33936
1.33936
1.33935
1.33934
1.33932
1.3393
1.33928
1.33925
1.33922
1.33919
1.33915
1.33911
1.33907
1.33903
1.33899
1.33895
1.3389
1.33885
1.33881
1.33876
1.33871
1.33866
1.33861
1.33856
1.33851
1.33845
1.3384
1.33835
1.33829
1.33824
1.33819
1.33813
1.33808
1.33802
1.33797
1.33791
1.33785
1.3378
1.33774
1.33768
1.33763
1.33757
1.33751
1.33746
1.3374
1.33734
1.33729
1.33723
1.33717
1.33712
1.33706
1.33701
1.33695
1.3369
1.33685
1.33679
1.33674
1.33669
1.33664
1.33659
1.33655
1.3365
1.33646
1.33641
1.33637
1.33633
1.33629
1.33626
1.33622
1.33619
1.33616
1.33614
1.33611
1.33609
1.33608
1.33606
1.33605
1.33604
1.33604
1.33603
1.33604
1.33604
1.33606
1.33607
1.33609
1.33612
1.33614
1.33618
1.33622
1.33626
1.33631
1.33637
1.33643
1.3365
1.33657
1.33665
1.33674
1.33683
1.33693
1.33704
1.33715
1.33728
1.3374
1.33754
1.33768
1.33784
1.338
1.33816
1.33834
1.33852
1.33871
1.33891
1.33912
1.33933
1.33956
1.33979
1.34003
1.34028
1.34053
1.3408
1.34107
1.34135
1.34163
1.34193
1.34223
1.34253
1.34284
1.34316
1.34348
1.34381
1.34414
1.34447
1.34481
1.34515
1.34549
1.34584
1.34618
1.34652
1.34686
1.3472
1.34754
1.34787
1.3482
1.34852
1.34884
1.34915
1.34945
1.34974
1.35003
1.3503
1.35057
1.35083
1.35107
1.35131
1.35153
1.35175
1.35195
1.35215
1.35233
1.3525
1.35267
1.35282
1.35297
1.35311
1.35324
1.35336
1.35348
1.35359
1.35369
1.35379
1.35388
1.35397
1.35405
1.35413
1.35421
1.35428
1.35435
1.35442
1.35448
1.35454
1.3546
1.35466
1.35472
1.35478
1.35483
1.35489
1.35494
1.35499
1.35505
1.3551
1.35515
1.3552
1.35525
1.3553
1.35535
1.35541
1.35546
1.35551
1.35557
1.35563
1.35569
1.35576
1.35583
1.3559
1.35598
1.35606
1.35615
1.35625
1.35635
1.35647
1.35659
1.35672
1.35686
1.35702
1.35718
1.35736
1.35755
1.35776
1.35799
1.35823
1.35849
1.35876
1.35906
1.35938
1.35971
1.36007
1.36046
1.36087
1.3613
1.36176
1.36224
1.36276
1.3633
1.36388
1.36449
1.36513
1.3658
1.36651
1.36726
1.36805
1.36889
1.36976
1.37069
1.37166
1.37269
1.37378
1.37494
1.37616
1.37747
1.37886
1.38036
1.38197
1.38371
1.38561
1.38769
1.39
1.39258
1.39552
1.39892
1.40294
1.40783
1.41414
1.42292
1.43527
1.45355
1.49105
1.27944
1.28726
1.30043
1.31233
1.31837
1.3213
1.32308
1.32438
1.32534
1.32606
1.3266
1.32703
1.32737
1.32765
1.32787
1.32806
1.32822
1.32835
1.32845
1.32854
1.32862
1.32867
1.32872
1.32876
1.32878
1.3288
1.32881
1.32881
1.3288
1.32879
1.32877
1.32875
1.32872
1.32869
1.32866
1.32862
1.32858
1.32854
1.32849
1.32844
1.3284
1.32835
1.3283
1.32825
1.3282
1.32815
1.32811
1.32806
1.32802
1.32798
1.32794
1.32791
1.32788
1.32786
1.32784
1.32782
1.32781
1.32781
1.32781
1.32782
1.32784
1.32786
1.3279
1.32793
1.32798
1.32804
1.3281
1.32817
1.32825
1.32834
1.32844
1.32855
1.32866
1.32878
1.32892
1.32906
1.3292
1.32936
1.32952
1.3297
1.32988
1.33006
1.33026
1.33046
1.33067
1.33088
1.3311
1.33133
1.33156
1.33179
1.33204
1.33228
1.33253
1.33278
1.33303
1.33329
1.33355
1.3338
1.33406
1.33432
1.33458
1.33483
1.33509
1.33534
1.33558
1.33582
1.33606
1.3363
1.33652
1.33674
1.33696
1.33716
1.33736
1.33755
1.33773
1.3379
1.33806
1.33821
1.33835
1.33848
1.3386
1.33871
1.33881
1.3389
1.33898
1.33905
1.33912
1.33917
1.33921
1.33925
1.33928
1.3393
1.33932
1.33932
1.33933
1.33933
1.33932
1.33931
1.33929
1.33927
1.33925
1.33922
1.33919
1.33916
1.33912
1.33909
1.33905
1.33901
1.33897
1.33892
1.33888
1.33883
1.33879
1.33874
1.33869
1.33864
1.33859
1.33854
1.33849
1.33844
1.33839
1.33833
1.33828
1.33823
1.33817
1.33812
1.33806
1.33801
1.33795
1.3379
1.33784
1.33778
1.33773
1.33767
1.33762
1.33756
1.3375
1.33745
1.33739
1.33733
1.33728
1.33722
1.33716
1.33711
1.33705
1.337
1.33695
1.33689
1.33684
1.33679
1.33674
1.33668
1.33664
1.33659
1.33654
1.33649
1.33645
1.33641
1.33637
1.33633
1.33629
1.33626
1.33622
1.33619
1.33616
1.33614
1.33611
1.33609
1.33608
1.33606
1.33605
1.33604
1.33604
1.33604
1.33604
1.33605
1.33606
1.33608
1.3361
1.33612
1.33615
1.33619
1.33623
1.33627
1.33632
1.33638
1.33644
1.33651
1.33659
1.33667
1.33675
1.33685
1.33695
1.33706
1.33717
1.33729
1.33742
1.33756
1.33771
1.33786
1.33802
1.33819
1.33836
1.33855
1.33874
1.33894
1.33915
1.33936
1.33959
1.33982
1.34006
1.34031
1.34057
1.34083
1.3411
1.34138
1.34167
1.34196
1.34226
1.34257
1.34288
1.34319
1.34352
1.34384
1.34417
1.34451
1.34485
1.34518
1.34553
1.34587
1.34621
1.34655
1.34689
1.34723
1.34756
1.34789
1.34822
1.34854
1.34885
1.34916
1.34946
1.34975
1.35004
1.35031
1.35057
1.35083
1.35107
1.35131
1.35153
1.35174
1.35195
1.35214
1.35232
1.35249
1.35266
1.35281
1.35296
1.35309
1.35322
1.35335
1.35346
1.35357
1.35367
1.35377
1.35386
1.35395
1.35403
1.35411
1.35419
1.35426
1.35433
1.3544
1.35447
1.35453
1.35459
1.35465
1.35471
1.35477
1.35482
1.35488
1.35493
1.35498
1.35503
1.35509
1.35514
1.35519
1.35524
1.35529
1.35534
1.3554
1.35545
1.35551
1.35557
1.35563
1.35569
1.35575
1.35582
1.3559
1.35598
1.35606
1.35615
1.35625
1.35636
1.35647
1.3566
1.35673
1.35687
1.35703
1.3572
1.35738
1.35758
1.35779
1.35801
1.35826
1.35852
1.3588
1.3591
1.35942
1.35976
1.36012
1.36051
1.36092
1.36136
1.36182
1.36231
1.36283
1.36338
1.36396
1.36457
1.36522
1.3659
1.36662
1.36737
1.36817
1.36901
1.36989
1.37083
1.37181
1.37285
1.37395
1.37512
1.37636
1.37769
1.3791
1.38062
1.38226
1.38404
1.38598
1.38813
1.39051
1.3932
1.39627
1.39985
1.40413
1.40941
1.41607
1.42475
1.43747
1.45966
1.49461
1.30107
1.29684
1.3051
1.31212
1.31637
1.31944
1.32167
1.32323
1.32436
1.32521
1.32587
1.3264
1.32682
1.32716
1.32744
1.32767
1.32787
1.32803
1.32816
1.32828
1.32837
1.32845
1.32851
1.32856
1.3286
1.32863
1.32865
1.32866
1.32866
1.32866
1.32865
1.32863
1.32861
1.32859
1.32856
1.32852
1.32849
1.32845
1.32841
1.32836
1.32832
1.32827
1.32823
1.32818
1.32814
1.32809
1.32805
1.328
1.32796
1.32793
1.32789
1.32786
1.32784
1.32781
1.3278
1.32778
1.32778
1.32778
1.32778
1.32779
1.32781
1.32784
1.32787
1.32791
1.32796
1.32802
1.32809
1.32816
1.32824
1.32833
1.32843
1.32854
1.32866
1.32878
1.32891
1.32906
1.32921
1.32936
1.32953
1.3297
1.32988
1.33007
1.33027
1.33047
1.33068
1.33089
1.33111
1.33134
1.33157
1.33181
1.33205
1.33229
1.33254
1.3328
1.33305
1.33331
1.33356
1.33382
1.33408
1.33434
1.33459
1.33485
1.3351
1.33535
1.33559
1.33584
1.33607
1.3363
1.33653
1.33675
1.33696
1.33717
1.33736
1.33755
1.33773
1.3379
1.33806
1.33821
1.33835
1.33847
1.33859
1.3387
1.3388
1.33889
1.33897
1.33904
1.3391
1.33915
1.33919
1.33923
1.33926
1.33928
1.33929
1.3393
1.3393
1.3393
1.33929
1.33928
1.33926
1.33924
1.33922
1.33919
1.33917
1.33913
1.3391
1.33906
1.33903
1.33899
1.33894
1.3389
1.33886
1.33881
1.33877
1.33872
1.33867
1.33862
1.33857
1.33852
1.33847
1.33842
1.33837
1.33831
1.33826
1.33821
1.33816
1.3381
1.33805
1.33799
1.33794
1.33788
1.33783
1.33777
1.33771
1.33766
1.3376
1.33755
1.33749
1.33743
1.33738
1.33732
1.33727
1.33721
1.33715
1.3371
1.33704
1.33699
1.33694
1.33688
1.33683
1.33678
1.33673
1.33668
1.33663
1.33658
1.33653
1.33649
1.33644
1.3364
1.33636
1.33632
1.33628
1.33625
1.33622
1.33619
1.33616
1.33613
1.33611
1.33609
1.33607
1.33606
1.33605
1.33604
1.33604
1.33604
1.33604
1.33605
1.33606
1.33608
1.3361
1.33612
1.33615
1.33619
1.33623
1.33627
1.33633
1.33638
1.33645
1.33652
1.33659
1.33667
1.33676
1.33686
1.33696
1.33707
1.33718
1.3373
1.33744
1.33757
1.33772
1.33787
1.33803
1.3382
1.33838
1.33856
1.33876
1.33896
1.33917
1.33938
1.33961
1.33984
1.34008
1.34033
1.34059
1.34086
1.34113
1.34141
1.34169
1.34199
1.34229
1.34259
1.34291
1.34322
1.34355
1.34387
1.34421
1.34454
1.34488
1.34522
1.34556
1.3459
1.34624
1.34658
1.34692
1.34726
1.34759
1.34792
1.34825
1.34856
1.34888
1.34918
1.34948
1.34977
1.35005
1.35033
1.35059
1.35084
1.35108
1.35132
1.35154
1.35175
1.35195
1.35214
1.35232
1.35249
1.35265
1.35281
1.35295
1.35309
1.35322
1.35334
1.35345
1.35356
1.35366
1.35376
1.35385
1.35394
1.35402
1.3541
1.35418
1.35425
1.35432
1.35439
1.35446
1.35452
1.35458
1.35464
1.3547
1.35475
1.35481
1.35486
1.35492
1.35497
1.35502
1.35508
1.35513
1.35518
1.35523
1.35528
1.35533
1.35539
1.35544
1.3555
1.35556
1.35562
1.35568
1.35575
1.35582
1.35589
1.35597
1.35606
1.35615
1.35625
1.35636
1.35647
1.3566
1.35673
1.35688
1.35703
1.3572
1.35739
1.35758
1.3578
1.35803
1.35827
1.35853
1.35882
1.35912
1.35944
1.35978
1.36015
1.36054
1.36096
1.3614
1.36186
1.36236
1.36288
1.36343
1.36401
1.36463
1.36528
1.36596
1.36668
1.36744
1.36824
1.36909
1.36998
1.37091
1.3719
1.37295
1.37406
1.37523
1.37648
1.37781
1.37923
1.38076
1.38241
1.38421
1.38616
1.38832
1.39072
1.39343
1.39651
1.4001
1.40432
1.40943
1.41583
1.42411
1.43452
1.44583
1.45639
1.30882
1.30757
1.31001
1.31287
1.31625
1.319
1.32099
1.32249
1.32365
1.32457
1.32529
1.32587
1.32634
1.32673
1.32705
1.32732
1.32755
1.32774
1.3279
1.32803
1.32815
1.32824
1.32832
1.32838
1.32843
1.32847
1.3285
1.32852
1.32853
1.32853
1.32853
1.32852
1.3285
1.32848
1.32846
1.32843
1.3284
1.32836
1.32832
1.32828
1.32824
1.3282
1.32816
1.32811
1.32807
1.32803
1.32798
1.32794
1.32791
1.32787
1.32784
1.32781
1.32779
1.32777
1.32775
1.32774
1.32773
1.32774
1.32774
1.32776
1.32778
1.32781
1.32784
1.32788
1.32794
1.32799
1.32806
1.32814
1.32822
1.32831
1.32842
1.32853
1.32864
1.32877
1.3289
1.32905
1.3292
1.32936
1.32952
1.3297
1.32988
1.33007
1.33027
1.33047
1.33068
1.3309
1.33112
1.33135
1.33158
1.33182
1.33206
1.33231
1.33256
1.33281
1.33306
1.33332
1.33358
1.33384
1.33409
1.33435
1.33461
1.33486
1.33512
1.33536
1.33561
1.33585
1.33609
1.33632
1.33654
1.33676
1.33697
1.33718
1.33737
1.33756
1.33774
1.3379
1.33806
1.33821
1.33835
1.33847
1.33859
1.3387
1.3388
1.33888
1.33896
1.33903
1.33909
1.33914
1.33918
1.33921
1.33924
1.33926
1.33927
1.33928
1.33928
1.33928
1.33927
1.33926
1.33924
1.33922
1.3392
1.33917
1.33914
1.33911
1.33908
1.33904
1.339
1.33896
1.33892
1.33888
1.33883
1.33879
1.33874
1.3387
1.33865
1.3386
1.33855
1.3385
1.33845
1.3384
1.33835
1.3383
1.33824
1.33819
1.33814
1.33808
1.33803
1.33797
1.33792
1.33787
1.33781
1.33775
1.3377
1.33764
1.33759
1.33753
1.33748
1.33742
1.33736
1.33731
1.33725
1.3372
1.33714
1.33709
1.33703
1.33698
1.33692
1.33687
1.33682
1.33677
1.33671
1.33666
1.33662
1.33657
1.33652
1.33648
1.33643
1.33639
1.33635
1.33631
1.33627
1.33624
1.33621
1.33618
1.33615
1.33612
1.3361
1.33608
1.33606
1.33605
1.33604
1.33603
1.33603
1.33603
1.33603
1.33604
1.33605
1.33607
1.33609
1.33612
1.33615
1.33618
1.33622
1.33627
1.33632
1.33638
1.33644
1.33651
1.33659
1.33667
1.33676
1.33686
1.33696
1.33707
1.33718
1.33731
1.33744
1.33758
1.33772
1.33788
1.33804
1.33821
1.33838
1.33857
1.33876
1.33897
1.33918
1.33939
1.33962
1.33985
1.3401
1.34035
1.34061
1.34087
1.34114
1.34142
1.34171
1.34201
1.34231
1.34262
1.34293
1.34325
1.34357
1.3439
1.34423
1.34457
1.3449
1.34524
1.34559
1.34593
1.34627
1.34661
1.34695
1.34729
1.34762
1.34795
1.34828
1.34859
1.34891
1.34921
1.34951
1.3498
1.35008
1.35035
1.35061
1.35086
1.3511
1.35133
1.35155
1.35176
1.35196
1.35215
1.35233
1.3525
1.35266
1.35281
1.35295
1.35309
1.35322
1.35334
1.35345
1.35356
1.35366
1.35375
1.35385
1.35393
1.35402
1.35409
1.35417
1.35424
1.35431
1.35438
1.35445
1.35451
1.35457
1.35463
1.35469
1.35474
1.3548
1.35486
1.35491
1.35496
1.35501
1.35507
1.35512
1.35517
1.35522
1.35527
1.35532
1.35538
1.35543
1.35549
1.35555
1.35561
1.35567
1.35574
1.35581
1.35588
1.35596
1.35605
1.35614
1.35624
1.35635
1.35646
1.35659
1.35672
1.35687
1.35702
1.3572
1.35738
1.35758
1.35779
1.35802
1.35827
1.35853
1.35882
1.35912
1.35944
1.35979
1.36016
1.36055
1.36096
1.36141
1.36187
1.36237
1.36289
1.36345
1.36403
1.36465
1.3653
1.36599
1.36671
1.36747
1.36827
1.36912
1.37001
1.37095
1.37194
1.37299
1.37409
1.37527
1.37652
1.37784
1.37926
1.38079
1.38243
1.38421
1.38615
1.38828
1.39065
1.3933
1.39629
1.39972
1.4037
1.40837
1.41384
1.42019
1.42722
1.43294
1.43306
1.31349
1.31306
1.31357
1.3152
1.31731
1.31918
1.32081
1.32217
1.32326
1.32415
1.32487
1.32547
1.32597
1.32638
1.32673
1.32702
1.32727
1.32748
1.32766
1.32781
1.32794
1.32804
1.32813
1.32821
1.32827
1.32832
1.32835
1.32838
1.3284
1.32841
1.32841
1.32841
1.3284
1.32838
1.32836
1.32833
1.32831
1.32827
1.32824
1.3282
1.32816
1.32812
1.32808
1.32804
1.328
1.32796
1.32792
1.32788
1.32785
1.32781
1.32778
1.32776
1.32773
1.32771
1.3277
1.32769
1.32769
1.32769
1.3277
1.32771
1.32774
1.32777
1.3278
1.32785
1.3279
1.32796
1.32803
1.32811
1.3282
1.32829
1.32839
1.3285
1.32862
1.32875
1.32889
1.32903
1.32919
1.32935
1.32951
1.32969
1.32987
1.33006
1.33026
1.33047
1.33068
1.3309
1.33112
1.33135
1.33158
1.33182
1.33207
1.33232
1.33257
1.33282
1.33308
1.33333
1.33359
1.33385
1.33411
1.33437
1.33463
1.33488
1.33513
1.33538
1.33563
1.33587
1.33611
1.33634
1.33656
1.33678
1.33699
1.3372
1.33739
1.33758
1.33775
1.33792
1.33808
1.33822
1.33836
1.33848
1.3386
1.3387
1.3388
1.33888
1.33896
1.33902
1.33908
1.33913
1.33917
1.3392
1.33923
1.33924
1.33926
1.33926
1.33926
1.33926
1.33925
1.33924
1.33922
1.3392
1.33917
1.33915
1.33912
1.33909
1.33905
1.33902
1.33898
1.33894
1.3389
1.33885
1.33881
1.33877
1.33872
1.33867
1.33863
1.33858
1.33853
1.33848
1.33843
1.33838
1.33833
1.33828
1.33822
1.33817
1.33812
1.33806
1.33801
1.33796
1.3379
1.33785
1.33779
1.33774
1.33768
1.33763
1.33757
1.33752
1.33746
1.3374
1.33735
1.33729
1.33724
1.33718
1.33713
1.33707
1.33702
1.33696
1.33691
1.33686
1.3368
1.33675
1.3367
1.33665
1.3366
1.33655
1.33651
1.33646
1.33642
1.33638
1.33634
1.3363
1.33626
1.33623
1.33619
1.33616
1.33614
1.33611
1.33609
1.33607
1.33605
1.33604
1.33603
1.33602
1.33602
1.33602
1.33602
1.33603
1.33604
1.33606
1.33608
1.33611
1.33614
1.33617
1.33621
1.33626
1.33631
1.33637
1.33644
1.33651
1.33658
1.33666
1.33675
1.33685
1.33695
1.33706
1.33718
1.3373
1.33743
1.33757
1.33772
1.33787
1.33803
1.3382
1.33838
1.33857
1.33876
1.33897
1.33918
1.3394
1.33962
1.33986
1.3401
1.34035
1.34061
1.34088
1.34115
1.34143
1.34172
1.34202
1.34232
1.34263
1.34295
1.34326
1.34359
1.34392
1.34425
1.34459
1.34493
1.34527
1.34561
1.34596
1.3463
1.34664
1.34698
1.34732
1.34766
1.34799
1.34831
1.34863
1.34894
1.34925
1.34955
1.34984
1.35011
1.35038
1.35065
1.35089
1.35113
1.35136
1.35158
1.35179
1.35199
1.35217
1.35235
1.35252
1.35268
1.35282
1.35297
1.3531
1.35322
1.35334
1.35345
1.35356
1.35366
1.35375
1.35384
1.35393
1.35401
1.35409
1.35417
1.35424
1.35431
1.35437
1.35444
1.3545
1.35456
1.35462
1.35468
1.35474
1.35479
1.35485
1.3549
1.35495
1.35501
1.35506
1.35511
1.35516
1.35521
1.35526
1.35531
1.35537
1.35542
1.35548
1.35553
1.35559
1.35565
1.35572
1.35579
1.35586
1.35594
1.35603
1.35612
1.35622
1.35633
1.35644
1.35657
1.3567
1.35685
1.357
1.35718
1.35736
1.35756
1.35777
1.358
1.35825
1.35851
1.3588
1.3591
1.35942
1.35977
1.36014
1.36053
1.36095
1.36139
1.36186
1.36235
1.36288
1.36343
1.36402
1.36464
1.36529
1.36598
1.3667
1.36746
1.36826
1.36911
1.36999
1.37093
1.37192
1.37296
1.37406
1.37523
1.37647
1.37778
1.37919
1.38069
1.38231
1.38406
1.38595
1.38802
1.3903
1.39283
1.39565
1.39881
1.40237
1.40638
1.41079
1.41532
1.41938
1.42216
1.42141
1.31694
1.31633
1.31642
1.31733
1.31851
1.31981
1.32107
1.32218
1.32313
1.32394
1.32462
1.3252
1.32569
1.32611
1.32647
1.32677
1.32703
1.32725
1.32745
1.32761
1.32775
1.32787
1.32797
1.32805
1.32812
1.32817
1.32822
1.32825
1.32828
1.32829
1.3283
1.3283
1.32829
1.32828
1.32827
1.32824
1.32822
1.32819
1.32816
1.32812
1.32809
1.32805
1.32801
1.32797
1.32793
1.32789
1.32786
1.32782
1.32779
1.32775
1.32773
1.3277
1.32768
1.32766
1.32765
1.32764
1.32764
1.32764
1.32765
1.32767
1.32769
1.32772
1.32776
1.32781
1.32786
1.32792
1.328
1.32807
1.32816
1.32826
1.32836
1.32848
1.3286
1.32873
1.32886
1.32901
1.32917
1.32933
1.3295
1.32967
1.32986
1.33005
1.33025
1.33046
1.33067
1.33089
1.33112
1.33135
1.33158
1.33183
1.33207
1.33232
1.33257
1.33283
1.33309
1.33334
1.33361
1.33387
1.33413
1.33439
1.33464
1.3349
1.33515
1.3354
1.33565
1.33589
1.33613
1.33636
1.33659
1.33681
1.33702
1.33722
1.33742
1.3376
1.33778
1.33794
1.3381
1.33824
1.33838
1.3385
1.33861
1.33872
1.33881
1.33889
1.33896
1.33903
1.33908
1.33913
1.33917
1.3392
1.33922
1.33924
1.33925
1.33925
1.33925
1.33924
1.33923
1.33922
1.3392
1.33918
1.33915
1.33913
1.3391
1.33906
1.33903
1.33899
1.33895
1.33891
1.33887
1.33883
1.33879
1.33874
1.3387
1.33865
1.3386
1.33855
1.33851
1.33846
1.33841
1.33836
1.33831
1.33825
1.3382
1.33815
1.3381
1.33804
1.33799
1.33794
1.33788
1.33783
1.33777
1.33772
1.33766
1.33761
1.33755
1.3375
1.33744
1.33739
1.33733
1.33728
1.33722
1.33716
1.33711
1.33705
1.337
1.33695
1.33689
1.33684
1.33679
1.33674
1.33669
1.33664
1.33659
1.33654
1.33649
1.33645
1.3364
1.33636
1.33632
1.33628
1.33625
1.33621
1.33618
1.33615
1.33612
1.3361
1.33607
1.33605
1.33604
1.33602
1.33601
1.336
1.336
1.336
1.33601
1.33601
1.33603
1.33604
1.33606
1.33609
1.33612
1.33616
1.3362
1.33625
1.3363
1.33636
1.33642
1.33649
1.33657
1.33665
1.33674
1.33683
1.33694
1.33705
1.33716
1.33729
1.33742
1.33756
1.3377
1.33786
1.33802
1.33819
1.33837
1.33856
1.33875
1.33896
1.33917
1.33939
1.33962
1.33985
1.3401
1.34035
1.34061
1.34088
1.34115
1.34144
1.34173
1.34202
1.34233
1.34264
1.34295
1.34328
1.3436
1.34393
1.34427
1.34461
1.34495
1.34529
1.34564
1.34598
1.34633
1.34667
1.34701
1.34735
1.34769
1.34802
1.34835
1.34867
1.34898
1.34929
1.34959
1.34988
1.35016
1.35043
1.35069
1.35093
1.35117
1.3514
1.35162
1.35182
1.35202
1.3522
1.35238
1.35254
1.3527
1.35284
1.35298
1.35311
1.35324
1.35335
1.35346
1.35357
1.35366
1.35376
1.35385
1.35393
1.35401
1.35409
1.35416
1.35423
1.3543
1.35437
1.35443
1.3545
1.35456
1.35462
1.35467
1.35473
1.35479
1.35484
1.35489
1.35494
1.355
1.35505
1.3551
1.35515
1.3552
1.35525
1.3553
1.35535
1.35541
1.35546
1.35552
1.35558
1.35564
1.3557
1.35577
1.35584
1.35592
1.35601
1.3561
1.3562
1.3563
1.35641
1.35654
1.35667
1.35682
1.35697
1.35714
1.35733
1.35752
1.35774
1.35797
1.35821
1.35848
1.35876
1.35906
1.35939
1.35973
1.3601
1.36049
1.36091
1.36135
1.36182
1.36231
1.36284
1.36339
1.36398
1.36459
1.36524
1.36593
1.36665
1.36741
1.3682
1.36904
1.36993
1.37086
1.37184
1.37287
1.37396
1.37512
1.37634
1.37763
1.37901
1.38048
1.38206
1.38375
1.38558
1.38756
1.38971
1.39207
1.39466
1.39749
1.40057
1.40386
1.40722
1.41039
1.41283
1.41407
1.41378
1.31928
1.31862
1.31858
1.31901
1.31973
1.32061
1.32153
1.32239
1.32319
1.3239
1.32451
1.32505
1.32552
1.32592
1.32627
1.32658
1.32684
1.32707
1.32727
1.32744
1.32758
1.32771
1.32782
1.32791
1.32798
1.32804
1.32809
1.32813
1.32816
1.32818
1.32819
1.3282
1.3282
1.32819
1.32818
1.32816
1.32814
1.32811
1.32808
1.32805
1.32801
1.32798
1.32794
1.3279
1.32787
1.32783
1.32779
1.32776
1.32772
1.32769
1.32766
1.32764
1.32762
1.3276
1.32759
1.32758
1.32758
1.32759
1.3276
1.32762
1.32764
1.32767
1.32771
1.32776
1.32782
1.32788
1.32795
1.32803
1.32812
1.32822
1.32833
1.32844
1.32856
1.3287
1.32884
1.32898
1.32914
1.3293
1.32948
1.32965
1.32984
1.33004
1.33024
1.33045
1.33066
1.33088
1.33111
1.33134
1.33158
1.33182
1.33207
1.33232
1.33258
1.33283
1.33309
1.33336
1.33362
1.33388
1.33414
1.3344
1.33466
1.33492
1.33518
1.33543
1.33568
1.33592
1.33616
1.33639
1.33662
1.33684
1.33705
1.33725
1.33745
1.33763
1.33781
1.33797
1.33813
1.33827
1.3384
1.33852
1.33864
1.33874
1.33883
1.33891
1.33898
1.33904
1.33909
1.33913
1.33917
1.3392
1.33922
1.33923
1.33924
1.33924
1.33924
1.33923
1.33922
1.3392
1.33918
1.33916
1.33913
1.3391
1.33907
1.33904
1.33901
1.33897
1.33893
1.33889
1.33885
1.33881
1.33876
1.33872
1.33867
1.33862
1.33858
1.33853
1.33848
1.33843
1.33838
1.33833
1.33828
1.33823
1.33818
1.33813
1.33808
1.33802
1.33797
1.33792
1.33786
1.33781
1.33775
1.3377
1.33764
1.33759
1.33753
1.33748
1.33742
1.33737
1.33731
1.33726
1.3372
1.33715
1.33709
1.33704
1.33698
1.33693
1.33688
1.33682
1.33677
1.33672
1.33667
1.33662
1.33657
1.33652
1.33648
1.33643
1.33639
1.33634
1.3363
1.33626
1.33623
1.33619
1.33616
1.33613
1.3361
1.33608
1.33605
1.33603
1.33602
1.336
1.33599
1.33598
1.33598
1.33598
1.33599
1.33599
1.33601
1.33602
1.33604
1.33607
1.3361
1.33614
1.33618
1.33622
1.33628
1.33633
1.3364
1.33647
1.33654
1.33663
1.33672
1.33681
1.33691
1.33702
1.33714
1.33727
1.3374
1.33754
1.33768
1.33784
1.338
1.33817
1.33835
1.33854
1.33874
1.33894
1.33915
1.33937
1.3396
1.33984
1.34008
1.34034
1.3406
1.34087
1.34114
1.34143
1.34172
1.34202
1.34233
1.34264
1.34296
1.34328
1.34361
1.34394
1.34428
1.34462
1.34497
1.34531
1.34566
1.34601
1.34635
1.3467
1.34705
1.34739
1.34773
1.34806
1.34839
1.34871
1.34903
1.34934
1.34964
1.34992
1.3502
1.35047
1.35073
1.35098
1.35122
1.35144
1.35166
1.35186
1.35206
1.35224
1.35241
1.35257
1.35273
1.35287
1.35301
1.35314
1.35326
1.35337
1.35348
1.35358
1.35368
1.35377
1.35385
1.35394
1.35402
1.35409
1.35416
1.35423
1.3543
1.35437
1.35443
1.35449
1.35455
1.35461
1.35467
1.35472
1.35478
1.35483
1.35489
1.35494
1.35499
1.35504
1.35509
1.35514
1.35519
1.35524
1.35529
1.35534
1.35539
1.35545
1.3555
1.35556
1.35562
1.35568
1.35575
1.35582
1.3559
1.35598
1.35607
1.35616
1.35627
1.35638
1.3565
1.35663
1.35678
1.35693
1.3571
1.35728
1.35748
1.35769
1.35792
1.35816
1.35842
1.35871
1.35901
1.35933
1.35967
1.36004
1.36043
1.36084
1.36128
1.36175
1.36224
1.36277
1.36332
1.3639
1.36451
1.36516
1.36584
1.36656
1.36731
1.36811
1.36894
1.36981
1.37074
1.3717
1.37273
1.3738
1.37493
1.37613
1.3774
1.37874
1.38017
1.38168
1.38331
1.38505
1.38691
1.38892
1.39108
1.39341
1.39588
1.39848
1.40111
1.40363
1.40582
1.40737
1.40798
1.40772
1.32088
1.32032
1.32019
1.32038
1.32082
1.32141
1.32207
1.32274
1.32338
1.32397
1.32451
1.325
1.32543
1.32581
1.32614
1.32644
1.3267
1.32692
1.32712
1.32729
1.32744
1.32757
1.32768
1.32778
1.32786
1.32793
1.32798
1.32802
1.32806
1.32808
1.3281
1.3281
1.32811
1.3281
1.32809
1.32808
1.32806
1.32803
1.328
1.32797
1.32794
1.32791
1.32787
1.32784
1.3278
1.32776
1.32773
1.32769
1.32766
1.32763
1.3276
1.32758
1.32756
1.32754
1.32753
1.32753
1.32753
1.32753
1.32754
1.32756
1.32759
1.32762
1.32766
1.32771
1.32777
1.32783
1.32791
1.32799
1.32808
1.32818
1.32829
1.3284
1.32853
1.32866
1.3288
1.32895
1.32911
1.32927
1.32945
1.32963
1.32982
1.33001
1.33022
1.33043
1.33064
1.33087
1.3311
1.33133
1.33157
1.33182
1.33207
1.33232
1.33258
1.33284
1.3331
1.33336
1.33363
1.33389
1.33416
1.33442
1.33468
1.33494
1.3352
1.33545
1.3357
1.33595
1.33619
1.33642
1.33665
1.33687
1.33708
1.33729
1.33748
1.33767
1.33784
1.33801
1.33816
1.3383
1.33844
1.33856
1.33866
1.33876
1.33885
1.33893
1.339
1.33905
1.3391
1.33914
1.33917
1.3392
1.33922
1.33923
1.33923
1.33923
1.33923
1.33922
1.3392
1.33919
1.33917
1.33914
1.33911
1.33908
1.33905
1.33902
1.33898
1.33894
1.33891
1.33887
1.33882
1.33878
1.33874
1.33869
1.33865
1.3386
1.33855
1.33851
1.33846
1.33841
1.33836
1.33831
1.33826
1.33821
1.33816
1.3381
1.33805
1.338
1.33795
1.33789
1.33784
1.33779
1.33773
1.33768
1.33762
1.33757
1.33751
1.33746
1.3374
1.33735
1.33729
1.33724
1.33718
1.33713
1.33707
1.33702
1.33696
1.33691
1.33686
1.3368
1.33675
1.3367
1.33665
1.3366
1.33655
1.3365
1.33646
1.33641
1.33637
1.33632
1.33628
1.33624
1.33621
1.33617
1.33614
1.33611
1.33608
1.33605
1.33603
1.33601
1.33599
1.33598
1.33597
1.33596
1.33596
1.33596
1.33596
1.33597
1.33598
1.336
1.33602
1.33604
1.33607
1.33611
1.33615
1.3362
1.33625
1.33631
1.33637
1.33644
1.33652
1.3366
1.33669
1.33678
1.33688
1.33699
1.33711
1.33724
1.33737
1.33751
1.33765
1.33781
1.33797
1.33814
1.33832
1.33851
1.33871
1.33891
1.33912
1.33935
1.33958
1.33981
1.34006
1.34031
1.34058
1.34085
1.34113
1.34141
1.34171
1.34201
1.34231
1.34263
1.34295
1.34328
1.34361
1.34394
1.34428
1.34463
1.34498
1.34532
1.34568
1.34603
1.34638
1.34673
1.34708
1.34742
1.34777
1.3481
1.34843
1.34876
1.34908
1.34939
1.34969
1.34998
1.35026
1.35053
1.35079
1.35104
1.35127
1.3515
1.35171
1.35191
1.3521
1.35228
1.35245
1.35261
1.35276
1.3529
1.35304
1.35316
1.35328
1.35339
1.3535
1.3536
1.35369
1.35378
1.35386
1.35394
1.35402
1.3541
1.35417
1.35424
1.3543
1.35437
1.35443
1.35449
1.35455
1.35461
1.35466
1.35472
1.35477
1.35483
1.35488
1.35493
1.35498
1.35503
1.35508
1.35513
1.35518
1.35523
1.35528
1.35533
1.35538
1.35543
1.35548
1.35554
1.3556
1.35566
1.35572
1.35579
1.35587
1.35595
1.35603
1.35613
1.35623
1.35634
1.35646
1.35659
1.35673
1.35688
1.35705
1.35723
1.35742
1.35763
1.35785
1.3581
1.35836
1.35864
1.35893
1.35925
1.3596
1.35996
1.36035
1.36076
1.3612
1.36166
1.36215
1.36267
1.36322
1.3638
1.36441
1.36505
1.36572
1.36643
1.36718
1.36796
1.36879
1.36965
1.37056
1.37152
1.37252
1.37357
1.37468
1.37585
1.37708
1.37838
1.37975
1.3812
1.38274
1.38438
1.38612
1.38797
1.38992
1.39198
1.39411
1.39626
1.39835
1.40024
1.40177
1.40278
1.40312
1.40276
1.32205
1.3216
1.32142
1.32148
1.32175
1.32214
1.32262
1.32313
1.32364
1.32413
1.32459
1.32502
1.3254
1.32575
1.32606
1.32634
1.32659
1.32681
1.32701
1.32718
1.32733
1.32746
1.32757
1.32767
1.32775
1.32782
1.32788
1.32792
1.32796
1.32799
1.328
1.32801
1.32802
1.32802
1.32801
1.32799
1.32798
1.32795
1.32793
1.3279
1.32787
1.32784
1.3278
1.32777
1.32773
1.3277
1.32766
1.32763
1.3276
1.32757
1.32754
1.32752
1.3275
1.32748
1.32747
1.32747
1.32747
1.32747
1.32749
1.32751
1.32753
1.32757
1.32761
1.32766
1.32772
1.32778
1.32786
1.32794
1.32803
1.32813
1.32824
1.32836
1.32849
1.32862
1.32876
1.32892
1.32908
1.32924
1.32942
1.3296
1.32979
1.32999
1.33019
1.3304
1.33062
1.33085
1.33108
1.33132
1.33156
1.33181
1.33206
1.33232
1.33258
1.33284
1.3331
1.33337
1.33364
1.3339
1.33417
1.33444
1.3347
1.33496
1.33522
1.33548
1.33573
1.33598
1.33622
1.33645
1.33668
1.33691
1.33712
1.33733
1.33752
1.33771
1.33788
1.33805
1.3382
1.33834
1.33847
1.33859
1.3387
1.33879
1.33888
1.33895
1.33902
1.33907
1.33912
1.33915
1.33918
1.3392
1.33922
1.33923
1.33923
1.33923
1.33922
1.33921
1.33919
1.33917
1.33915
1.33912
1.3391
1.33906
1.33903
1.339
1.33896
1.33892
1.33888
1.33884
1.3388
1.33875
1.33871
1.33867
1.33862
1.33857
1.33853
1.33848
1.33843
1.33838
1.33833
1.33828
1.33823
1.33818
1.33813
1.33808
1.33803
1.33798
1.33792
1.33787
1.33782
1.33776
1.33771
1.33766
1.3376
1.33755
1.33749
1.33744
1.33738
1.33733
1.33727
1.33722
1.33716
1.33711
1.33705
1.337
1.33694
1.33689
1.33684
1.33678
1.33673
1.33668
1.33663
1.33658
1.33653
1.33648
1.33643
1.33639
1.33634
1.3363
1.33626
1.33622
1.33618
1.33615
1.33612
1.33608
1.33606
1.33603
1.33601
1.33599
1.33597
1.33595
1.33594
1.33593
1.33593
1.33593
1.33593
1.33594
1.33595
1.33597
1.33599
1.33601
1.33604
1.33608
1.33612
1.33616
1.33622
1.33627
1.33634
1.3364
1.33648
1.33656
1.33665
1.33675
1.33685
1.33696
1.33707
1.3372
1.33733
1.33747
1.33762
1.33777
1.33794
1.33811
1.33829
1.33847
1.33867
1.33888
1.33909
1.33931
1.33954
1.33978
1.34003
1.34028
1.34055
1.34082
1.3411
1.34139
1.34168
1.34199
1.3423
1.34261
1.34294
1.34327
1.3436
1.34394
1.34428
1.34463
1.34498
1.34533
1.34569
1.34604
1.3464
1.34675
1.34711
1.34746
1.3478
1.34814
1.34848
1.34881
1.34913
1.34944
1.34974
1.35004
1.35032
1.35059
1.35085
1.3511
1.35133
1.35156
1.35177
1.35197
1.35216
1.35233
1.3525
1.35266
1.35281
1.35294
1.35307
1.3532
1.35331
1.35342
1.35352
1.35362
1.35371
1.3538
1.35388
1.35396
1.35403
1.3541
1.35417
1.35424
1.35431
1.35437
1.35443
1.35449
1.35455
1.35461
1.35466
1.35472
1.35477
1.35482
1.35488
1.35493
1.35498
1.35503
1.35507
1.35512
1.35517
1.35522
1.35527
1.35531
1.35536
1.35541
1.35546
1.35552
1.35557
1.35563
1.3557
1.35576
1.35584
1.35591
1.356
1.35609
1.35619
1.35629
1.35641
1.35654
1.35667
1.35682
1.35699
1.35716
1.35735
1.35756
1.35778
1.35802
1.35828
1.35855
1.35885
1.35916
1.3595
1.35986
1.36025
1.36065
1.36109
1.36155
1.36203
1.36255
1.36309
1.36366
1.36427
1.3649
1.36557
1.36627
1.36701
1.36778
1.3686
1.36945
1.37034
1.37128
1.37226
1.37328
1.37436
1.37549
1.37668
1.37793
1.37925
1.38063
1.38208
1.38361
1.38522
1.3869
1.38865
1.39045
1.39226
1.39403
1.39569
1.39712
1.39821
1.39888
1.39905
1.39866
1.32295
1.32257
1.32239
1.32238
1.32253
1.3228
1.32314
1.32353
1.32393
1.32433
1.32472
1.32509
1.32543
1.32574
1.32603
1.32629
1.32652
1.32673
1.32692
1.32709
1.32723
1.32736
1.32747
1.32757
1.32765
1.32772
1.32778
1.32783
1.32787
1.3279
1.32792
1.32793
1.32794
1.32794
1.32793
1.32792
1.3279
1.32788
1.32786
1.32783
1.3278
1.32777
1.32774
1.3277
1.32767
1.32764
1.3276
1.32757
1.32754
1.32751
1.32748
1.32746
1.32744
1.32743
1.32742
1.32741
1.32741
1.32742
1.32743
1.32745
1.32748
1.32751
1.32755
1.3276
1.32766
1.32773
1.3278
1.32789
1.32798
1.32808
1.3282
1.32831
1.32844
1.32858
1.32872
1.32888
1.32904
1.32921
1.32938
1.32957
1.32976
1.32996
1.33016
1.33038
1.3306
1.33082
1.33106
1.3313
1.33154
1.33179
1.33205
1.33231
1.33257
1.33284
1.33311
1.33337
1.33364
1.33391
1.33418
1.33445
1.33472
1.33498
1.33524
1.3355
1.33576
1.33601
1.33625
1.33649
1.33672
1.33694
1.33716
1.33737
1.33756
1.33775
1.33793
1.33809
1.33825
1.33839
1.33851
1.33863
1.33874
1.33883
1.33891
1.33898
1.33904
1.33909
1.33914
1.33917
1.3392
1.33921
1.33923
1.33923
1.33923
1.33923
1.33922
1.3392
1.33918
1.33916
1.33914
1.33911
1.33908
1.33905
1.33901
1.33897
1.33894
1.3389
1.33886
1.33882
1.33877
1.33873
1.33868
1.33864
1.33859
1.33855
1.3385
1.33845
1.3384
1.33836
1.33831
1.33826
1.33821
1.33816
1.33811
1.33805
1.338
1.33795
1.3379
1.33785
1.33779
1.33774
1.33769
1.33763
1.33758
1.33752
1.33747