# vtk DataFile Version 2.0
LBE mesh
ASCII
DATASET STRUCTURED_POINTS
DIMENSIONS 400 100 1
ASPECT_RATIO 1 1 1
ORIGIN 0 0 0
POINT_DATA 40000
SCALARS rho double 1
LOOKUP_TABLE default
0.936385
0.964767
0.973829
0.977614
0.979988
0.981603
0.982731
0.983572
0.984273
0.984894
0.98548
0.986036
0.98658
0.987103
0.987616
0.988106
0.988583
0.989037
0.989481
0.989907
0.990332
0.990752
0.991184
0.991623
0.992089
0.992576
0.993098
0.993647
0.994236
0.99485
0.995498
0.996162
0.996846
0.997529
0.998214
0.998878
0.999525
1.00013
1.00071
1.00124
1.00172
1.00215
1.00253
1.00286
1.00315
1.00339
1.00359
1.00376
1.0039
1.00401
1.00409
1.00416
1.00422
1.00425
1.00428
1.00429
1.0043
1.0043
1.00428
1.00426
1.00422
1.00418
1.00412
1.00406
1.00398
1.00389
1.00379
1.00368
1.00357
1.00344
1.00332
1.00319
1.00306
1.00294
1.00282
1.00272
1.00263
1.00255
1.00249
1.00245
1.00243
1.00244
1.00246
1.00252
1.0026
1.0027
1.00283
1.00299
1.00316
1.00337
1.00359
1.00383
1.0041
1.00438
1.00468
1.00499
1.0053
1.00563
1.00595
1.00627
1.00659
1.00689
1.00718
1.00745
1.00771
1.00794
1.00815
1.00834
1.0085
1.00865
1.00878
1.00889
1.00899
1.00908
1.00916
1.00924
1.00932
1.00941
1.00949
1.00959
1.00969
1.00981
1.00994
1.01008
1.01023
1.01039
1.01056
1.01074
1.01093
1.01113
1.01133
1.01153
1.01173
1.01192
1.01211
1.01229
1.01247
1.01263
1.01279
1.01293
1.01306
1.01318
1.01329
1.01339
1.01348
1.01356
1.01363
1.0137
1.01376
1.01381
1.01386
1.0139
1.01393
1.01396
1.01397
1.01397
1.01396
1.01392
1.01386
1.01378
1.01366
1.01352
1.01333
1.01311
1.01285
1.01256
1.01222
1.01186
1.01146
1.01104
1.01061
1.01017
1.00973
1.0093
1.00889
1.0085
1.00813
1.0078
1.0075
1.00723
1.007
1.0068
1.00662
1.00647
1.00635
1.00624
1.00615
1.00608
1.00601
1.00596
1.00591
1.00587
1.00585
1.00583
1.00584
1.00586
1.00591
1.00599
1.00611
1.00625
1.00644
1.00667
1.00695
1.00726
1.00762
1.00802
1.00845
1.00891
1.00939
1.00988
1.01038
1.01087
1.01135
1.01181
1.01224
1.01263
1.013
1.01332
1.01361
1.01387
1.0141
1.01431
1.0145
1.01468
1.01486
1.01504
1.01522
1.01541
1.01561
1.01583
1.01606
1.0163
1.01655
1.01681
1.01707
1.01735
1.01762
1.01789
1.01817
1.01843
1.0187
1.01896
1.01921
1.01946
1.01969
1.01993
1.02015
1.02037
1.02058
1.02078
1.02097
1.02115
1.02132
1.02148
1.02161
1.02173
1.02183
1.02191
1.02197
1.022
1.022
1.02198
1.02194
1.02188
1.02179
1.02169
1.02158
1.02145
1.02131
1.02117
1.02102
1.02088
1.02073
1.02059
1.02046
1.02033
1.02021
1.0201
1.01999
1.0199
1.01981
1.01972
1.01965
1.01958
1.01951
1.01946
1.0194
1.01935
1.01931
1.01927
1.01923
1.0192
1.01917
1.01915
1.01914
1.01914
1.01914
1.01916
1.0192
1.01926
1.01935
1.01946
1.01961
1.0198
1.02002
1.02029
1.0206
1.02096
1.02135
1.02177
1.02222
1.02269
1.02317
1.02365
1.02412
1.02457
1.02499
1.02539
1.02575
1.02607
1.02636
1.02663
1.02686
1.02707
1.02727
1.02746
1.02763
1.02781
1.02799
1.02817
1.02835
1.02854
1.02874
1.02895
1.02916
1.02937
1.02958
1.02978
1.02999
1.03018
1.03036
1.03053
1.03069
1.03083
1.03095
1.03106
1.03115
1.03122
1.03128
1.03133
1.03136
1.03139
1.03141
1.03143
1.03144
1.03145
1.03146
1.03148
1.03149
1.0315
1.03152
1.03154
1.03155
1.03157
1.03159
1.03161
1.03163
1.03165
1.03168
1.03171
1.03175
1.03179
1.03185
1.03193
1.03202
1.03213
1.03226
1.03243
1.03262
1.03285
1.03311
1.03341
1.03376
1.03417
1.03463
1.03517
1.0358
1.03654
1.03742
1.03848
1.03976
1.04132
1.04326
1.04571
1.04884
1.05308
1.05922
1.06807
1.0807
1.1054
0.946036
0.960276
0.969666
0.975169
0.978252
0.980198
0.981593
0.982663
0.983545
0.984299
0.984989
0.985624
0.986233
0.986806
0.987362
0.987886
0.988395
0.988874
0.989344
0.989792
0.99024
0.990678
0.991131
0.991586
0.992071
0.992569
0.993105
0.993661
0.994258
0.994873
0.995523
0.99618
0.996859
0.99753
0.998206
0.998856
0.999492
1.00009
1.00065
1.00117
1.00164
1.00206
1.00245
1.00277
1.00306
1.0033
1.00351
1.00368
1.00383
1.00394
1.00404
1.00411
1.00417
1.00421
1.00424
1.00425
1.00426
1.00426
1.00424
1.00422
1.00419
1.00414
1.00408
1.00401
1.00394
1.00385
1.00375
1.00364
1.00353
1.00341
1.00329
1.00317
1.00305
1.00293
1.00282
1.00273
1.00264
1.00257
1.00252
1.00249
1.00248
1.00249
1.00252
1.00258
1.00266
1.00277
1.0029
1.00305
1.00323
1.00343
1.00365
1.00389
1.00415
1.00442
1.00472
1.00502
1.00533
1.00565
1.00597
1.00629
1.0066
1.00691
1.0072
1.00747
1.00773
1.00796
1.00817
1.00836
1.00853
1.00868
1.00881
1.00893
1.00903
1.00912
1.00921
1.00929
1.00937
1.00945
1.00954
1.00964
1.00974
1.00985
1.00997
1.01011
1.01025
1.01041
1.01058
1.01075
1.01094
1.01113
1.01132
1.01151
1.01171
1.0119
1.01209
1.01227
1.01244
1.01261
1.01276
1.0129
1.01303
1.01316
1.01327
1.01337
1.01346
1.01354
1.01361
1.01368
1.01374
1.01379
1.01384
1.01388
1.01391
1.01394
1.01395
1.01395
1.01393
1.01389
1.01383
1.01375
1.01363
1.01349
1.01331
1.01309
1.01284
1.01255
1.01222
1.01186
1.01147
1.01106
1.01064
1.01021
1.00977
1.00935
1.00893
1.00854
1.00818
1.00784
1.00754
1.00727
1.00703
1.00682
1.00665
1.0065
1.00637
1.00626
1.00617
1.00609
1.00603
1.00598
1.00593
1.0059
1.00587
1.00586
1.00587
1.0059
1.00595
1.00603
1.00614
1.00629
1.00647
1.0067
1.00696
1.00727
1.00762
1.00801
1.00844
1.00889
1.00936
1.00984
1.01034
1.01082
1.0113
1.01175
1.01218
1.01258
1.01295
1.01328
1.01358
1.01385
1.01409
1.0143
1.0145
1.01469
1.01487
1.01506
1.01524
1.01544
1.01564
1.01586
1.01609
1.01633
1.01657
1.01683
1.0171
1.01736
1.01763
1.0179
1.01817
1.01844
1.0187
1.01896
1.01921
1.01945
1.01969
1.01992
1.02015
1.02037
1.02057
1.02077
1.02096
1.02114
1.02131
1.02146
1.02159
1.02171
1.02181
1.02188
1.02193
1.02196
1.02196
1.02195
1.0219
1.02184
1.02176
1.02166
1.02154
1.02142
1.02129
1.02115
1.02101
1.02087
1.02073
1.02059
1.02046
1.02033
1.02021
1.0201
1.02
1.0199
1.01981
1.01973
1.01965
1.01958
1.01952
1.01946
1.01941
1.01936
1.01931
1.01927
1.01923
1.0192
1.01918
1.01916
1.01914
1.01914
1.01915
1.01918
1.01922
1.01928
1.01937
1.01949
1.01965
1.01984
1.02007
1.02035
1.02066
1.02102
1.02141
1.02183
1.02228
1.02274
1.02321
1.02368
1.02414
1.02458
1.02499
1.02538
1.02573
1.02605
1.02634
1.0266
1.02683
1.02705
1.02725
1.02743
1.02761
1.02779
1.02797
1.02815
1.02834
1.02853
1.02873
1.02894
1.02914
1.02935
1.02956
1.02977
1.02997
1.03017
1.03035
1.03052
1.03068
1.03082
1.03095
1.03106
1.03116
1.03124
1.0313
1.03135
1.0314
1.03143
1.03146
1.03148
1.0315
1.03151
1.03153
1.03155
1.03156
1.03158
1.0316
1.03162
1.03164
1.03166
1.03168
1.0317
1.03172
1.03174
1.03177
1.0318
1.03184
1.03189
1.03195
1.03202
1.03211
1.03222
1.03236
1.03252
1.03272
1.03294
1.03321
1.03352
1.03387
1.03429
1.03476
1.03532
1.03598
1.03675
1.03767
1.03879
1.04014
1.04181
1.04389
1.04653
1.04997
1.05447
1.06048
1.06943
1.08551
1.11148
0.96202
0.96519
0.970336
0.9744
0.977229
0.979273
0.980794
0.981976
0.982953
0.983795
0.984555
0.985252
0.98591
0.986527
0.987117
0.987674
0.98821
0.988716
0.98921
0.989682
0.990151
0.990612
0.991084
0.991559
0.992059
0.992572
0.993119
0.993684
0.994283
0.994899
0.995543
0.996193
0.996859
0.997517
0.998175
0.998809
0.999428
1.00001
1.00056
1.00106
1.00153
1.00195
1.00233
1.00266
1.00295
1.0032
1.00341
1.00359
1.00374
1.00387
1.00397
1.00405
1.00411
1.00416
1.00419
1.00421
1.00422
1.00422
1.0042
1.00418
1.00414
1.00409
1.00403
1.00396
1.00389
1.0038
1.0037
1.0036
1.00349
1.00337
1.00326
1.00315
1.00304
1.00294
1.00284
1.00276
1.00269
1.00263
1.00259
1.00257
1.00257
1.00259
1.00263
1.0027
1.00278
1.00289
1.00302
1.00317
1.00334
1.00354
1.00376
1.00399
1.00425
1.00452
1.00481
1.0051
1.00541
1.00573
1.00605
1.00636
1.00667
1.00698
1.00727
1.00754
1.0078
1.00803
1.00825
1.00844
1.00861
1.00876
1.0089
1.00902
1.00912
1.00922
1.0093
1.00939
1.00947
1.00955
1.00963
1.00973
1.00982
1.00993
1.01005
1.01017
1.01031
1.01046
1.01062
1.01078
1.01096
1.01114
1.01132
1.01151
1.0117
1.01189
1.01207
1.01225
1.01242
1.01258
1.01273
1.01288
1.01301
1.01313
1.01325
1.01335
1.01344
1.01352
1.0136
1.01367
1.01373
1.01378
1.01383
1.01386
1.01389
1.01391
1.01392
1.01392
1.0139
1.01386
1.0138
1.01371
1.0136
1.01346
1.01328
1.01307
1.01282
1.01253
1.01221
1.01186
1.01148
1.01108
1.01066
1.01024
1.00981
1.00938
1.00897
1.00858
1.00822
1.00788
1.00757
1.0073
1.00706
1.00685
1.00667
1.00651
1.00638
1.00628
1.00619
1.00611
1.00605
1.006
1.00596
1.00593
1.00591
1.0059
1.00591
1.00594
1.00599
1.00607
1.00618
1.00633
1.00651
1.00673
1.00699
1.00729
1.00763
1.00801
1.00843
1.00887
1.00934
1.00981
1.0103
1.01078
1.01126
1.01171
1.01214
1.01255
1.01292
1.01326
1.01356
1.01384
1.01408
1.01431
1.01451
1.01471
1.0149
1.01509
1.01528
1.01547
1.01568
1.01589
1.01612
1.01636
1.0166
1.01685
1.01711
1.01738
1.01764
1.01791
1.01817
1.01844
1.0187
1.01895
1.0192
1.01944
1.01968
1.01991
1.02014
1.02035
1.02056
1.02076
1.02095
1.02112
1.02129
1.02143
1.02156
1.02168
1.02177
1.02184
1.02189
1.02192
1.02192
1.0219
1.02186
1.0218
1.02172
1.02163
1.02152
1.0214
1.02127
1.02114
1.021
1.02087
1.02073
1.0206
1.02047
1.02035
1.02023
1.02013
1.02002
1.01993
1.01984
1.01975
1.01968
1.01961
1.01954
1.01948
1.01943
1.01938
1.01933
1.01929
1.01925
1.01922
1.01919
1.01918
1.01916
1.01916
1.01918
1.0192
1.01925
1.01932
1.01942
1.01954
1.0197
1.0199
1.02014
1.02042
1.02074
1.02109
1.02148
1.0219
1.02234
1.0228
1.02326
1.02372
1.02417
1.02459
1.025
1.02538
1.02572
1.02604
1.02632
1.02658
1.02682
1.02703
1.02723
1.02742
1.0276
1.02778
1.02797
1.02815
1.02834
1.02853
1.02873
1.02894
1.02914
1.02935
1.02956
1.02977
1.02997
1.03017
1.03035
1.03053
1.03069
1.03084
1.03097
1.03109
1.03119
1.03128
1.03135
1.03141
1.03146
1.0315
1.03154
1.03157
1.0316
1.03162
1.03164
1.03166
1.03168
1.0317
1.03173
1.03175
1.03177
1.03179
1.03181
1.03183
1.03185
1.03188
1.0319
1.03194
1.03197
1.03202
1.03207
1.03214
1.03223
1.03234
1.03247
1.03263
1.03282
1.03304
1.03331
1.03361
1.03396
1.03437
1.03485
1.03541
1.03607
1.03685
1.03778
1.0389
1.04027
1.04196
1.04404
1.04666
1.04998
1.05432
1.06012
1.06754
1.07564
1.08356
0.970786
0.970503
0.972567
0.975045
0.977256
0.979018
0.980422
0.981578
0.982566
0.983435
0.984224
0.984951
0.985636
0.986281
0.986895
0.987477
0.988035
0.988565
0.98908
0.989575
0.990065
0.990548
0.991039
0.991533
0.992048
0.992576
0.993131
0.993703
0.994302
0.994915
0.995549
0.996188
0.996837
0.997477
0.998114
0.998729
0.999326
0.99989
1.00043
1.00092
1.00138
1.00179
1.00217
1.0025
1.0028
1.00306
1.00328
1.00347
1.00363
1.00377
1.00388
1.00397
1.00404
1.00409
1.00413
1.00415
1.00416
1.00416
1.00414
1.00412
1.00408
1.00403
1.00397
1.0039
1.00382
1.00373
1.00364
1.00354
1.00343
1.00333
1.00323
1.00313
1.00303
1.00295
1.00287
1.00281
1.00275
1.00271
1.00269
1.00269
1.0027
1.00273
1.00278
1.00285
1.00294
1.00304
1.00317
1.00332
1.0035
1.00369
1.0039
1.00413
1.00438
1.00465
1.00493
1.00522
1.00553
1.00584
1.00615
1.00647
1.00678
1.00708
1.00737
1.00764
1.0079
1.00814
1.00836
1.00855
1.00873
1.00888
1.00902
1.00914
1.00925
1.00935
1.00943
1.00952
1.0096
1.00968
1.00976
1.00984
1.00994
1.01004
1.01014
1.01026
1.01039
1.01052
1.01067
1.01082
1.01098
1.01115
1.01133
1.0115
1.01168
1.01186
1.01204
1.01221
1.01238
1.01254
1.0127
1.01284
1.01298
1.0131
1.01321
1.01332
1.01341
1.0135
1.01358
1.01364
1.0137
1.01376
1.0138
1.01384
1.01387
1.01388
1.01389
1.01388
1.01386
1.01382
1.01376
1.01367
1.01355
1.01341
1.01323
1.01302
1.01278
1.0125
1.01219
1.01185
1.01147
1.01108
1.01067
1.01025
1.00983
1.00941
1.009
1.00861
1.00824
1.0079
1.00759
1.00731
1.00706
1.00685
1.00667
1.00651
1.00638
1.00628
1.00619
1.00612
1.00606
1.00601
1.00598
1.00595
1.00594
1.00594
1.00595
1.00598
1.00604
1.00611
1.00622
1.00636
1.00654
1.00675
1.00701
1.0073
1.00764
1.00801
1.00842
1.00885
1.00931
1.00978
1.01026
1.01074
1.01121
1.01167
1.0121
1.01251
1.01288
1.01323
1.01354
1.01382
1.01408
1.01431
1.01453
1.01473
1.01492
1.01511
1.01531
1.01551
1.01571
1.01592
1.01615
1.01638
1.01662
1.01686
1.01712
1.01737
1.01763
1.01789
1.01815
1.01841
1.01867
1.01892
1.01917
1.01941
1.01965
1.01988
1.02011
1.02032
1.02053
1.02073
1.02091
1.02108
1.02124
1.02139
1.02152
1.02163
1.02171
1.02178
1.02183
1.02186
1.02186
1.02184
1.0218
1.02175
1.02167
1.02158
1.02148
1.02137
1.02125
1.02113
1.021
1.02087
1.02074
1.02062
1.02049
1.02037
1.02026
1.02015
1.02005
1.01995
1.01987
1.01978
1.01971
1.01963
1.01957
1.01951
1.01945
1.0194
1.01935
1.01931
1.01927
1.01924
1.01922
1.0192
1.01919
1.01919
1.01921
1.01924
1.01929
1.01936
1.01946
1.0196
1.01976
1.01997
1.02021
1.02049
1.02081
1.02117
1.02156
1.02197
1.02241
1.02285
1.0233
1.02375
1.02419
1.0246
1.025
1.02537
1.02571
1.02602
1.0263
1.02656
1.02679
1.02701
1.02721
1.0274
1.02759
1.02777
1.02796
1.02814
1.02834
1.02853
1.02873
1.02893
1.02914
1.02935
1.02956
1.02977
1.02997
1.03017
1.03036
1.03053
1.0307
1.03086
1.031
1.03112
1.03123
1.03133
1.03142
1.03149
1.03155
1.0316
1.03165
1.03169
1.03172
1.03175
1.03178
1.03181
1.03184
1.03186
1.03189
1.03191
1.03193
1.03195
1.03198
1.032
1.03202
1.03204
1.03206
1.03209
1.03212
1.03216
1.03221
1.03228
1.03236
1.03246
1.03259
1.03274
1.03292
1.03314
1.03339
1.03368
1.03403
1.03443
1.03489
1.03544
1.03608
1.03684
1.03775
1.03885
1.04017
1.0418
1.04379
1.04625
1.04929
1.05301
1.05746
1.06252
1.0666
1.06651
0.974675
0.974214
0.975049
0.976393
0.977868
0.979228
0.980428
0.981477
0.982408
0.98325
0.98403
0.984758
0.985449
0.986103
0.98673
0.987326
0.9879
0.988448
0.988981
0.989496
0.990006
0.990508
0.991017
0.991529
0.992057
0.992597
0.993158
0.993733
0.99433
0.994936
0.995558
0.996181
0.99681
0.997429
0.998042
0.998634
0.999209
0.999754
1.00027
1.00076
1.00121
1.00162
1.002
1.00234
1.00264
1.00291
1.00314
1.00334
1.00352
1.00366
1.00378
1.00388
1.00396
1.00402
1.00407
1.00409
1.00411
1.0041
1.00409
1.00406
1.00402
1.00397
1.00391
1.00383
1.00376
1.00367
1.00358
1.00349
1.00339
1.0033
1.00321
1.00313
1.00305
1.00299
1.00293
1.00288
1.00285
1.00283
1.00283
1.00284
1.00286
1.00291
1.00296
1.00304
1.00313
1.00325
1.00338
1.00352
1.00369
1.00388
1.00409
1.00431
1.00456
1.00482
1.00509
1.00538
1.00568
1.00599
1.00631
1.00662
1.00693
1.00723
1.00752
1.0078
1.00806
1.0083
1.00852
1.00872
1.00889
1.00905
1.00919
1.00931
1.00942
1.00952
1.00961
1.00969
1.00977
1.00985
1.00993
1.01001
1.01009
1.01018
1.01028
1.01038
1.0105
1.01062
1.01075
1.01089
1.01103
1.01119
1.01135
1.01151
1.01168
1.01185
1.01202
1.01219
1.01235
1.01251
1.01266
1.01281
1.01295
1.01307
1.01319
1.0133
1.01339
1.01348
1.01356
1.01363
1.01369
1.01374
1.01379
1.01382
1.01385
1.01386
1.01386
1.01385
1.01382
1.01378
1.01371
1.01362
1.01351
1.01336
1.01319
1.01298
1.01274
1.01247
1.01216
1.01183
1.01147
1.01108
1.01068
1.01026
1.00984
1.00943
1.00902
1.00863
1.00826
1.00792
1.0076
1.00732
1.00707
1.00686
1.00667
1.00652
1.00639
1.00628
1.0062
1.00613
1.00608
1.00604
1.00601
1.00599
1.00598
1.00599
1.006
1.00604
1.00609
1.00617
1.00628
1.00642
1.00659
1.0068
1.00705
1.00733
1.00766
1.00802
1.00842
1.00885
1.0093
1.00976
1.01024
1.01071
1.01118
1.01164
1.01207
1.01248
1.01286
1.01321
1.01353
1.01382
1.01409
1.01433
1.01455
1.01476
1.01496
1.01515
1.01535
1.01555
1.01575
1.01596
1.01618
1.0164
1.01664
1.01688
1.01712
1.01737
1.01762
1.01788
1.01814
1.01839
1.01865
1.0189
1.01914
1.01939
1.01962
1.01985
1.02008
1.02029
1.0205
1.02069
1.02088
1.02105
1.0212
1.02134
1.02147
1.02157
1.02166
1.02173
1.02177
1.0218
1.0218
1.02179
1.02175
1.0217
1.02164
1.02156
1.02146
1.02136
1.02125
1.02114
1.02102
1.02089
1.02077
1.02065
1.02053
1.02042
1.02031
1.0202
1.0201
1.02001
1.01992
1.01983
1.01976
1.01968
1.01962
1.01956
1.0195
1.01945
1.0194
1.01935
1.01932
1.01928
1.01926
1.01924
1.01923
1.01924
1.01925
1.01929
1.01935
1.01943
1.01953
1.01967
1.01984
1.02005
1.0203
1.02058
1.02091
1.02126
1.02164
1.02205
1.02248
1.02292
1.02336
1.02379
1.02422
1.02463
1.02501
1.02538
1.02571
1.02602
1.0263
1.02655
1.02679
1.02701
1.02721
1.02741
1.0276
1.02778
1.02797
1.02816
1.02835
1.02855
1.02875
1.02895
1.02916
1.02937
1.02958
1.02979
1.02999
1.03019
1.03038
1.03057
1.03074
1.0309
1.03105
1.03119
1.03131
1.03142
1.03151
1.0316
1.03167
1.03174
1.03179
1.03184
1.03189
1.03193
1.03196
1.032
1.03203
1.03206
1.03208
1.03211
1.03213
1.03215
1.03217
1.03219
1.03221
1.03222
1.03224
1.03227
1.0323
1.03233
1.03238
1.03244
1.03251
1.0326
1.03272
1.03286
1.03303
1.03324
1.03348
1.03376
1.03409
1.03447
1.03492
1.03544
1.03606
1.03679
1.03765
1.03869
1.03995
1.04146
1.04329
1.0455
1.04812
1.05114
1.05434
1.05724
1.05915
1.0583
0.977111
0.976816
0.977121
0.97785
0.978799
0.979791
0.980745
0.981635
0.982464
0.98324
0.983976
0.984677
0.985351
0.985998
0.986622
0.987221
0.987801
0.988361
0.988906
0.989436
0.989961
0.99048
0.991004
0.991531
0.99207
0.992618
0.993183
0.993758
0.994349
0.994946
0.995552
0.996156
0.996762
0.997356
0.997943
0.998511
0.999062
0.999587
1.00009
1.00056
1.001
1.00141
1.00179
1.00213
1.00245
1.00272
1.00297
1.00318
1.00337
1.00353
1.00367
1.00378
1.00387
1.00393
1.00398
1.00401
1.00403
1.00403
1.00401
1.00398
1.00394
1.00389
1.00383
1.00375
1.00368
1.00359
1.00351
1.00343
1.00334
1.00326
1.00319
1.00313
1.00307
1.00302
1.00299
1.00296
1.00295
1.00295
1.00297
1.00299
1.00304
1.00309
1.00316
1.00324
1.00334
1.00345
1.00358
1.00373
1.0039
1.00408
1.00429
1.00451
1.00475
1.005
1.00528
1.00556
1.00586
1.00617
1.00648
1.00679
1.0071
1.0074
1.0077
1.00797
1.00824
1.00848
1.0087
1.0089
1.00908
1.00924
1.00938
1.0095
1.00961
1.00971
1.0098
1.00988
1.00996
1.01004
1.01011
1.01018
1.01026
1.01034
1.01042
1.01052
1.01061
1.01072
1.01083
1.01095
1.01108
1.01122
1.01136
1.01151
1.01167
1.01182
1.01198
1.01215
1.01231
1.01246
1.01261
1.01276
1.0129
1.01303
1.01315
1.01326
1.01336
1.01345
1.01353
1.0136
1.01366
1.01371
1.01375
1.01379
1.01381
1.01382
1.01382
1.0138
1.01377
1.01372
1.01365
1.01356
1.01344
1.01329
1.01312
1.01291
1.01268
1.01241
1.01211
1.01179
1.01143
1.01106
1.01066
1.01025
1.00984
1.00943
1.00903
1.00863
1.00826
1.00792
1.0076
1.00732
1.00706
1.00684
1.00666
1.0065
1.00637
1.00627
1.00619
1.00613
1.00609
1.00605
1.00603
1.00602
1.00602
1.00603
1.00605
1.00609
1.00615
1.00622
1.00633
1.00646
1.00663
1.00684
1.00708
1.00736
1.00767
1.00803
1.00842
1.00883
1.00928
1.00973
1.0102
1.01067
1.01114
1.0116
1.01203
1.01245
1.01283
1.01319
1.01352
1.01382
1.01409
1.01434
1.01457
1.01478
1.01498
1.01518
1.01538
1.01558
1.01578
1.01598
1.01619
1.01641
1.01664
1.01687
1.01711
1.01735
1.0176
1.01784
1.0181
1.01835
1.0186
1.01884
1.01909
1.01933
1.01957
1.0198
1.02002
1.02023
1.02044
1.02063
1.02082
1.02098
1.02114
1.02128
1.0214
1.0215
1.02158
1.02165
1.02169
1.02172
1.02173
1.02172
1.02169
1.02164
1.02158
1.02151
1.02143
1.02134
1.02124
1.02113
1.02102
1.02091
1.0208
1.02068
1.02057
1.02046
1.02035
1.02025
1.02015
1.02006
1.01997
1.01988
1.0198
1.01973
1.01966
1.0196
1.01954
1.01949
1.01944
1.01939
1.01936
1.01932
1.0193
1.01928
1.01927
1.01928
1.0193
1.01934
1.0194
1.01948
1.0196
1.01974
1.01992
1.02013
1.02038
1.02067
1.02099
1.02134
1.02172
1.02213
1.02254
1.02297
1.0234
1.02383
1.02424
1.02464
1.02502
1.02537
1.0257
1.02601
1.02628
1.02654
1.02678
1.027
1.02721
1.02741
1.0276
1.02779
1.02798
1.02817
1.02836
1.02856
1.02876
1.02896
1.02917
1.02938
1.02959
1.0298
1.03001
1.03021
1.03041
1.0306
1.03078
1.03095
1.03111
1.03126
1.03139
1.03151
1.03162
1.03172
1.0318
1.03188
1.03195
1.03201
1.03206
1.03211
1.03215
1.03219
1.03223
1.03226
1.03229
1.03231
1.03233
1.03235
1.03237
1.03238
1.03239
1.03241
1.03242
1.03244
1.03246
1.03249
1.03253
1.03258
1.03265
1.03273
1.03284
1.03297
1.03313
1.03332
1.03355
1.03381
1.03412
1.03449
1.03491
1.0354
1.03598
1.03667
1.03748
1.03845
1.0396
1.04099
1.04262
1.04454
1.0467
1.04903
1.05129
1.05301
1.05376
1.05322
0.978973
0.978683
0.978771
0.979188
0.979799
0.980505
0.981241
0.981973
0.982687
0.98338
0.984056
0.984713
0.985356
0.985982
0.986593
0.987187
0.987767
0.988331
0.988883
0.989425
0.989961
0.990494
0.991029
0.991567
0.992113
0.992667
0.993232
0.993804
0.994386
0.994969
0.995557
0.99614
0.996721
0.99729
0.997849
0.998391
0.998917
0.999422
0.999906
1.00036
1.0008
1.00121
1.00158
1.00193
1.00225
1.00254
1.0028
1.00303
1.00323
1.0034
1.00355
1.00367
1.00377
1.00385
1.00391
1.00394
1.00396
1.00396
1.00395
1.00392
1.00388
1.00382
1.00376
1.00369
1.00362
1.00354
1.00346
1.00339
1.00332
1.00325
1.0032
1.00315
1.00312
1.00309
1.00308
1.00308
1.00309
1.00311
1.00314
1.00318
1.00324
1.0033
1.00338
1.00347
1.00358
1.00369
1.00383
1.00397
1.00414
1.00432
1.00452
1.00474
1.00497
1.00523
1.0055
1.00578
1.00608
1.00639
1.0067
1.00701
1.00732
1.00762
1.00792
1.0082
1.00846
1.0087
1.00893
1.00913
1.00931
1.00947
1.00961
1.00974
1.00985
1.00994
1.01003
1.01011
1.01019
1.01026
1.01033
1.01039
1.01046
1.01053
1.0106
1.01068
1.01076
1.01085
1.01094
1.01105
1.01116
1.01127
1.0114
1.01153
1.01167
1.01182
1.01197
1.01212
1.01227
1.01242
1.01257
1.01272
1.01286
1.01299
1.01311
1.01323
1.01333
1.01343
1.01351
1.01358
1.01364
1.01369
1.01373
1.01376
1.01378
1.01379
1.01378
1.01376
1.01372
1.01366
1.01359
1.01349
1.01337
1.01322
1.01305
1.01285
1.01261
1.01235
1.01206
1.01175
1.0114
1.01104
1.01065
1.01025
1.00985
1.00944
1.00904
1.00865
1.00828
1.00793
1.00761
1.00732
1.00706
1.00684
1.00665
1.0065
1.00637
1.00627
1.0062
1.00614
1.00611
1.00608
1.00607
1.00607
1.00608
1.00609
1.00612
1.00616
1.00622
1.0063
1.00641
1.00654
1.0067
1.0069
1.00714
1.00741
1.00772
1.00806
1.00844
1.00885
1.00928
1.00973
1.01019
1.01066
1.01112
1.01157
1.01201
1.01243
1.01282
1.01318
1.01352
1.01382
1.0141
1.01436
1.0146
1.01482
1.01502
1.01523
1.01542
1.01562
1.01582
1.01602
1.01622
1.01643
1.01665
1.01687
1.0171
1.01734
1.01758
1.01782
1.01806
1.01831
1.01856
1.0188
1.01904
1.01928
1.01952
1.01975
1.01997
1.02019
1.02039
1.02058
1.02076
1.02093
1.02108
1.02122
1.02134
1.02144
1.02152
1.02158
1.02163
1.02165
1.02167
1.02166
1.02164
1.0216
1.02155
1.02149
1.02142
1.02134
1.02125
1.02116
1.02106
1.02095
1.02085
1.02074
1.02063
1.02053
1.02042
1.02032
1.02023
1.02013
1.02004
1.01996
1.01988
1.01981
1.01974
1.01967
1.01961
1.01956
1.01951
1.01946
1.01942
1.01939
1.01936
1.01935
1.01934
1.01935
1.01937
1.01941
1.01948
1.01957
1.01969
1.01984
1.02002
1.02024
1.02049
1.02078
1.0211
1.02145
1.02182
1.02222
1.02263
1.02305
1.02347
1.02388
1.02429
1.02468
1.02505
1.0254
1.02572
1.02602
1.0263
1.02656
1.02679
1.02702
1.02723
1.02743
1.02763
1.02782
1.02801
1.02821
1.0284
1.0286
1.0288
1.02901
1.02921
1.02942
1.02963
1.02984
1.03005
1.03026
1.03046
1.03066
1.03085
1.03103
1.0312
1.03136
1.03151
1.03164
1.03176
1.03187
1.03197
1.03206
1.03214
1.03221
1.03227
1.03233
1.03237
1.03242
1.03245
1.03248
1.03251
1.03253
1.03255
1.03256
1.03257
1.03258
1.03259
1.0326
1.03261
1.03262
1.03263
1.03265
1.03269
1.03273
1.03279
1.03287
1.03296
1.03308
1.03323
1.03341
1.03362
1.03387
1.03417
1.03451
1.03491
1.03537
1.03592
1.03656
1.03732
1.03821
1.03927
1.04051
1.04195
1.04357
1.04533
1.04709
1.04865
1.0497
1.04994
1.0494
0.980448
0.980167
0.980167
0.980401
0.980797
0.981298
0.981856
0.982441
0.983039
0.98364
0.984243
0.984845
0.985443
0.986038
0.986626
0.987205
0.987777
0.988339
0.988893
0.98944
0.989984
0.990525
0.991067
0.991612
0.992163
0.992718
0.99328
0.993845
0.994414
0.994982
0.995549
0.996109
0.996663
0.997204
0.997735
0.99825
0.998751
0.999234
0.9997
1.00014
1.00057
1.00097
1.00135
1.0017
1.00203
1.00233
1.0026
1.00284
1.00306
1.00324
1.00341
1.00354
1.00365
1.00374
1.0038
1.00385
1.00387
1.00387
1.00386
1.00383
1.00379
1.00373
1.00367
1.00361
1.00354
1.00347
1.0034
1.00334
1.00328
1.00324
1.0032
1.00317
1.00316
1.00315
1.00316
1.00318
1.00321
1.00325
1.0033
1.00336
1.00343
1.0035
1.00359
1.00369
1.0038
1.00392
1.00405
1.0042
1.00436
1.00454
1.00474
1.00496
1.00519
1.00545
1.00572
1.006
1.0063
1.00661
1.00692
1.00723
1.00755
1.00785
1.00815
1.00843
1.00869
1.00893
1.00915
1.00936
1.00954
1.0097
1.00984
1.00996
1.01007
1.01017
1.01026
1.01033
1.01041
1.01047
1.01053
1.01059
1.01065
1.01071
1.01077
1.01083
1.0109
1.01097
1.01104
1.01113
1.01122
1.01131
1.01142
1.01154
1.01166
1.01179
1.01193
1.01207
1.01222
1.01236
1.01251
1.01266
1.0128
1.01293
1.01306
1.01318
1.01328
1.01338
1.01347
1.01354
1.0136
1.01365
1.01369
1.01372
1.01373
1.01373
1.01372
1.01369
1.01364
1.01358
1.0135
1.01339
1.01327
1.01312
1.01294
1.01274
1.01252
1.01226
1.01198
1.01167
1.01134
1.01098
1.01061
1.01022
1.00982
1.00942
1.00902
1.00864
1.00826
1.00791
1.00759
1.0073
1.00704
1.00682
1.00663
1.00647
1.00635
1.00626
1.00619
1.00614
1.00611
1.0061
1.00609
1.0061
1.00612
1.00614
1.00618
1.00623
1.00629
1.00637
1.00648
1.00661
1.00677
1.00696
1.00719
1.00745
1.00775
1.00808
1.00845
1.00884
1.00926
1.00971
1.01016
1.01062
1.01108
1.01153
1.01197
1.01239
1.01278
1.01315
1.01349
1.01381
1.0141
1.01436
1.01461
1.01483
1.01504
1.01525
1.01545
1.01564
1.01583
1.01603
1.01623
1.01643
1.01664
1.01685
1.01707
1.0173
1.01753
1.01777
1.018
1.01825
1.01849
1.01873
1.01897
1.01921
1.01944
1.01967
1.01989
1.02011
1.02031
1.0205
1.02068
1.02085
1.021
1.02113
1.02125
1.02134
1.02143
1.02149
1.02154
1.02157
1.02158
1.02158
1.02157
1.02154
1.0215
1.02145
1.02139
1.02132
1.02124
1.02116
1.02107
1.02098
1.02088
1.02078
1.02068
1.02058
1.02048
1.02038
1.02029
1.0202
1.02011
1.02003
1.01995
1.01987
1.0198
1.01974
1.01967
1.01962
1.01956
1.01952
1.01948
1.01944
1.01942
1.0194
1.0194
1.01941
1.01943
1.01948
1.01955
1.01964
1.01976
1.01992
1.0201
1.02033
1.02058
1.02087
1.02119
1.02154
1.02191
1.0223
1.0227
1.02311
1.02352
1.02393
1.02432
1.0247
1.02507
1.02541
1.02573
1.02603
1.0263
1.02656
1.0268
1.02703
1.02724
1.02745
1.02765
1.02784
1.02804
1.02823
1.02843
1.02863
1.02883
1.02904
1.02924
1.02946
1.02967
1.02988
1.03009
1.03031
1.03052
1.03072
1.03092
1.03111
1.03129
1.03146
1.03162
1.03177
1.03191
1.03203
1.03214
1.03224
1.03233
1.0324
1.03247
1.03253
1.03258
1.03262
1.03266
1.03269
1.03271
1.03273
1.03274
1.03275
1.03275
1.03275
1.03275
1.03275
1.03276
1.03276
1.03277
1.03279
1.03281
1.03285
1.0329
1.03297
1.03305
1.03316
1.0333
1.03347
1.03367
1.0339
1.03418
1.0345
1.03488
1.03531
1.03582
1.03642
1.03712
1.03794
1.03889
1.04
1.04124
1.0426
1.04401
1.04534
1.04641
1.04704
1.04706
1.04646
0.981665
0.981404
0.981349
0.98147
0.981728
0.982083
0.982504
0.982969
0.983463
0.983978
0.98451
0.985054
0.985607
0.986165
0.986727
0.987288
0.987848
0.988405
0.988958
0.989508
0.990055
0.990602
0.991149
0.991698
0.992249
0.992803
0.993358
0.993914
0.994468
0.995018
0.995562
0.996097
0.996623
0.997137
0.997639
0.998127
0.998603
0.999064
0.999511
0.999941
1.00036
1.00075
1.00113
1.00148
1.00182
1.00212
1.00241
1.00266
1.00289
1.00309
1.00327
1.00342
1.00354
1.00364
1.00371
1.00376
1.00379
1.00379
1.00378
1.00376
1.00372
1.00367
1.00361
1.00355
1.00349
1.00343
1.00337
1.00332
1.00328
1.00325
1.00323
1.00323
1.00323
1.00325
1.00327
1.00331
1.00336
1.00342
1.00348
1.00356
1.00364
1.00373
1.00382
1.00392
1.00404
1.00416
1.0043
1.00445
1.00461
1.00479
1.00499
1.00521
1.00545
1.0057
1.00597
1.00626
1.00656
1.00687
1.00718
1.0075
1.00781
1.00812
1.00842
1.0087
1.00896
1.0092
1.00942
1.00962
1.0098
1.00996
1.0101
1.01022
1.01033
1.01042
1.01051
1.01058
1.01065
1.01071
1.01077
1.01082
1.01087
1.01092
1.01097
1.01101
1.01106
1.01112
1.01117
1.01124
1.01131
1.01138
1.01147
1.01157
1.01167
1.01179
1.01191
1.01205
1.01218
1.01233
1.01247
1.01261
1.01276
1.01289
1.01302
1.01314
1.01325
1.01335
1.01344
1.01352
1.01358
1.01363
1.01366
1.01368
1.01369
1.01369
1.01366
1.01363
1.01357
1.0135
1.01341
1.0133
1.01317
1.01302
1.01284
1.01264
1.01242
1.01217
1.0119
1.0116
1.01128
1.01094
1.01058
1.0102
1.00981
1.00942
1.00903
1.00864
1.00827
1.00792
1.00759
1.0073
1.00704
1.00681
1.00663
1.00647
1.00635
1.00626
1.0062
1.00616
1.00614
1.00613
1.00614
1.00616
1.00619
1.00622
1.00627
1.00632
1.00639
1.00648
1.00658
1.00671
1.00687
1.00705
1.00727
1.00752
1.00781
1.00813
1.00849
1.00887
1.00928
1.00971
1.01015
1.01061
1.01106
1.01151
1.01195
1.01237
1.01277
1.01314
1.01349
1.01381
1.01411
1.01438
1.01463
1.01487
1.01508
1.01529
1.01549
1.01568
1.01587
1.01606
1.01625
1.01645
1.01665
1.01685
1.01706
1.01728
1.0175
1.01773
1.01796
1.0182
1.01843
1.01867
1.01891
1.01915
1.01938
1.01961
1.01983
1.02004
1.02024
1.02044
1.02061
1.02078
1.02093
1.02106
1.02117
1.02127
1.02135
1.02142
1.02146
1.0215
1.02152
1.02152
1.02152
1.0215
1.02147
1.02143
1.02138
1.02133
1.02126
1.02119
1.02111
1.02103
1.02094
1.02085
1.02076
1.02067
1.02057
1.02048
1.02039
1.0203
1.02021
1.02013
1.02005
1.01997
1.0199
1.01983
1.01977
1.01971
1.01966
1.01961
1.01957
1.01953
1.0195
1.01949
1.01949
1.0195
1.01953
1.01957
1.01965
1.01974
1.01987
1.02003
1.02022
1.02044
1.0207
1.02099
1.02131
1.02165
1.02202
1.0224
1.0228
1.0232
1.0236
1.024
1.02439
1.02476
1.02512
1.02545
1.02577
1.02607
1.02634
1.0266
1.02685
1.02707
1.02729
1.0275
1.0277
1.0279
1.0281
1.0283
1.0285
1.0287
1.0289
1.0291
1.02931
1.02953
1.02974
1.02996
1.03017
1.03039
1.03061
1.03082
1.03103
1.03123
1.03142
1.0316
1.03178
1.03194
1.03209
1.03222
1.03234
1.03245
1.03254
1.03262
1.03269
1.03275
1.0328
1.03284
1.03287
1.0329
1.03291
1.03292
1.03293
1.03293
1.03293
1.03292
1.03291
1.03291
1.0329
1.0329
1.0329
1.03291
1.03293
1.03296
1.03301
1.03307
1.03315
1.03325
1.03338
1.03354
1.03372
1.03395
1.03421
1.03451
1.03487
1.03528
1.03576
1.03632
1.03697
1.03772
1.03858
1.03956
1.04062
1.04175
1.04286
1.04386
1.04459
1.04494
1.04483
1.0442
0.982707
0.982475
0.982395
0.982447
0.98261
0.982858
0.983171
0.983534
0.983935
0.98437
0.984831
0.985315
0.985818
0.986338
0.986869
0.987408
0.987952
0.9885
0.989048
0.989597
0.990145
0.990693
0.991242
0.99179
0.992339
0.992887
0.993434
0.993976
0.994514
0.995043
0.995563
0.996072
0.996569
0.997054
0.997527
0.997988
0.998438
0.998876
0.999303
0.999718
1.00012
1.00051
1.00088
1.00124
1.00158
1.00189
1.00218
1.00245
1.00269
1.00291
1.0031
1.00326
1.00339
1.0035
1.00358
1.00364
1.00367
1.00368
1.00368
1.00365
1.00362
1.00357
1.00352
1.00347
1.00342
1.00337
1.00333
1.00329
1.00327
1.00325
1.00325
1.00327
1.00329
1.00332
1.00337
1.00343
1.00349
1.00356
1.00364
1.00373
1.00382
1.00391
1.00402
1.00413
1.00425
1.00437
1.00451
1.00467
1.00483
1.00502
1.00522
1.00544
1.00568
1.00594
1.00621
1.0065
1.00681
1.00712
1.00744
1.00776
1.00807
1.00838
1.00868
1.00896
1.00922
1.00946
1.00968
1.00988
1.01005
1.01021
1.01034
1.01046
1.01056
1.01065
1.01073
1.0108
1.01087
1.01092
1.01097
1.01102
1.01106
1.0111
1.01113
1.01117
1.0112
1.01124
1.01128
1.01132
1.01137
1.01143