# vtk DataFile Version 2.0
LBE mesh
ASCII
DATASET STRUCTURED_POINTS
DIMENSIONS 400 100 1
ASPECT_RATIO 1 1 1
ORIGIN 0 0 0
POINT_DATA 40000
SCALARS rho double 1
LOOKUP_TABLE default
1.01795
1.06782
1.0829
1.087
1.08923
1.0909
1.09207
1.09283
1.09335
1.09373
1.09401
1.09422
1.09438
1.0945
1.09458
1.09463
1.09467
1.09468
1.09468
1.09466
1.09463
1.09459
1.09454
1.09448
1.09441
1.09433
1.09425
1.09416
1.09406
1.09396
1.09385
1.09374
1.09362
1.0935
1.09337
1.09325
1.09312
1.09298
1.09285
1.09271
1.09258
1.09244
1.0923
1.09217
1.09203
1.0919
1.09177
1.09163
1.09151
1.09138
1.09126
1.09114
1.09103
1.09092
1.09082
1.09072
1.09063
1.09054
1.09047
1.09039
1.09032
1.09026
1.09021
1.09017
1.09013
1.0901
1.09007
1.09006
1.09005
1.09005
1.09005
1.09007
1.09009
1.09012
1.09015
1.0902
1.09025
1.0903
1.09037
1.09044
1.09052
1.0906
1.09069
1.09078
1.09088
1.09098
1.09109
1.0912
1.09132
1.09144
1.09156
1.09168
1.09181
1.09194
1.09206
1.09219
1.09232
1.09245
1.09257
1.09269
1.09281
1.09293
1.09304
1.09315
1.09325
1.09335
1.09344
1.09353
1.0936
1.09367
1.09373
1.09378
1.09383
1.09386
1.09388
1.09389
1.0939
1.09389
1.09387
1.09384
1.09381
1.09376
1.09371
1.09364
1.09357
1.09349
1.09341
1.09331
1.09322
1.09312
1.09301
1.09291
1.0928
1.09269
1.09258
1.09247
1.09236
1.09225
1.09215
1.09204
1.09195
1.09185
1.09176
1.09167
1.09159
1.09152
1.09145
1.09138
1.09133
1.09127
1.09123
1.09119
1.09115
1.09112
1.0911
1.09109
1.09108
1.09107
1.09107
1.09107
1.09108
1.0911
1.09112
1.09114
1.09116
1.09119
1.09122
1.09125
1.09129
1.09132
1.09136
1.0914
1.09144
1.09149
1.09153
1.09157
1.09161
1.09165
1.0917
1.09174
1.09178
1.09182
1.09186
1.0919
1.09194
1.09198
1.09201
1.09205
1.09209
1.09212
1.09216
1.09219
1.09222
1.09226
1.09229
1.09232
1.09235
1.09238
1.09241
1.09245
1.09248
1.0925
1.09253
1.09256
1.09259
1.09262
1.09264
1.09267
1.0927
1.09272
1.09275
1.09277
1.09279
1.09281
1.09283
1.09285
1.09287
1.09288
1.0929
1.09291
1.09293
1.09294
1.09294
1.09295
1.09296
1.09296
1.09297
1.09297
1.09297
1.09297
1.09297
1.09296
1.09296
1.09296
1.09295
1.09295
1.09294
1.09294
1.09293
1.09293
1.09293
1.09293
1.09293
1.09293
1.09294
1.09295
1.09296
1.09298
1.093
1.09302
1.09305
1.09308
1.09312
1.09316
1.09321
1.09327
1.09333
1.0934
1.09347
1.09355
1.09364
1.09373
1.09383
1.09393
1.09404
1.09415
1.09427
1.0944
1.09453
1.09466
1.09479
1.09493
1.09507
1.09521
1.09536
1.0955
1.09565
1.09579
1.09593
1.09608
1.09622
1.09635
1.09649
1.09662
1.09675
1.09687
1.09699
1.09711
1.09722
1.09733
1.09744
1.09754
1.09764
1.09773
1.09782
1.09791
1.09799
1.09807
1.09815
1.09822
1.0983
1.09836
1.09843
1.09849
1.09855
1.09861
1.09866
1.09871
1.09875
1.09879
1.09883
1.09886
1.09889
1.09891
1.09893
1.09894
1.09895
1.09895
1.09894
1.09893
1.09891
1.09889
1.09886
1.09882
1.09878
1.09874
1.09869
1.09863
1.09857
1.09851
1.09844
1.09837
1.0983
1.09823
1.09816
1.09809
1.09802
1.09795
1.09788
1.09781
1.09775
1.09769
1.09763
1.09758
1.09754
1.0975
1.09747
1.09745
1.09744
1.09743
1.09744
1.09745
1.09748
1.09752
1.09757
1.09764
1.09772
1.09782
1.09793
1.09806
1.09821
1.09839
1.09858
1.0988
1.09904
1.09931
1.0996
1.09992
1.10028
1.10066
1.10108
1.10153
1.10202
1.10255
1.10311
1.10373
1.10438
1.10509
1.10584
1.10665
1.10752
1.10846
1.10946
1.11054
1.11171
1.11297
1.11435
1.11585
1.11751
1.11935
1.12142
1.12377
1.1265
1.12973
1.13368
1.1388
1.14586
1.15576
1.17141
1.20524
1.05299
1.06506
1.07559
1.08308
1.08707
1.08927
1.09069
1.0917
1.09244
1.09297
1.09337
1.09367
1.0939
1.09408
1.09421
1.0943
1.09437
1.09441
1.09444
1.09444
1.09443
1.0944
1.09437
1.09432
1.09426
1.09419
1.09412
1.09403
1.09395
1.09385
1.09375
1.09364
1.09353
1.09341
1.09329
1.09317
1.09305
1.09292
1.09279
1.09266
1.09252
1.09239
1.09226
1.09212
1.09199
1.09186
1.09173
1.0916
1.09148
1.09135
1.09124
1.09112
1.09101
1.0909
1.0908
1.09071
1.09062
1.09053
1.09046
1.09038
1.09032
1.09026
1.09021
1.09017
1.09013
1.0901
1.09008
1.09006
1.09006
1.09006
1.09007
1.09008
1.0901
1.09013
1.09017
1.09022
1.09027
1.09033
1.09039
1.09046
1.09054
1.09062
1.09071
1.0908
1.0909
1.09101
1.09112
1.09123
1.09135
1.09147
1.09159
1.09171
1.09184
1.09196
1.09209
1.09222
1.09235
1.09247
1.0926
1.09272
1.09284
1.09295
1.09306
1.09317
1.09327
1.09337
1.09345
1.09354
1.09361
1.09368
1.09374
1.09379
1.09383
1.09386
1.09388
1.09389
1.09389
1.09388
1.09387
1.09384
1.0938
1.09375
1.0937
1.09363
1.09356
1.09348
1.09339
1.0933
1.09321
1.09311
1.093
1.0929
1.09279
1.09268
1.09257
1.09246
1.09235
1.09225
1.09214
1.09204
1.09195
1.09185
1.09176
1.09168
1.0916
1.09152
1.09146
1.09139
1.09133
1.09128
1.09124
1.0912
1.09117
1.09114
1.09112
1.0911
1.09109
1.09109
1.09109
1.09109
1.0911
1.09111
1.09113
1.09115
1.09118
1.09121
1.09124
1.09127
1.0913
1.09134
1.09138
1.09142
1.09146
1.0915
1.09154
1.09158
1.09163
1.09167
1.09171
1.09175
1.09179
1.09183
1.09187
1.09191
1.09195
1.09199
1.09203
1.09206
1.0921
1.09214
1.09217
1.09221
1.09224
1.09227
1.0923
1.09234
1.09237
1.0924
1.09243
1.09246
1.09249
1.09252
1.09255
1.09258
1.09261
1.09263
1.09266
1.09269
1.09271
1.09274
1.09276
1.09278
1.09281
1.09283
1.09285
1.09286
1.09288
1.0929
1.09291
1.09293
1.09294
1.09295
1.09296
1.09296
1.09297
1.09298
1.09298
1.09298
1.09298
1.09298
1.09298
1.09298
1.09297
1.09297
1.09296
1.09296
1.09296
1.09295
1.09295
1.09295
1.09295
1.09295
1.09295
1.09295
1.09296
1.09297
1.09298
1.093
1.09302
1.09305
1.09308
1.09311
1.09315
1.0932
1.09325
1.0933
1.09336
1.09343
1.09351
1.09359
1.09367
1.09377
1.09387
1.09397
1.09408
1.09419
1.09431
1.09444
1.09457
1.0947
1.09483
1.09497
1.09511
1.09525
1.09539
1.09554
1.09568
1.09582
1.09597
1.09611
1.09624
1.09638
1.09651
1.09664
1.09677
1.09689
1.09701
1.09713
1.09724
1.09735
1.09745
1.09755
1.09765
1.09774
1.09783
1.09792
1.098
1.09808
1.09816
1.09823
1.0983
1.09837
1.09844
1.0985
1.09856
1.09861
1.09866
1.09871
1.09876
1.0988
1.09883
1.09887
1.09889
1.09891
1.09893
1.09894
1.09895
1.09895
1.09894
1.09893
1.09891
1.09889
1.09886
1.09882
1.09878
1.09873
1.09868
1.09863
1.09857
1.0985
1.09844
1.09837
1.0983
1.09823
1.09816
1.09808
1.09801
1.09794
1.09788
1.09781
1.09775
1.09769
1.09764
1.09759
1.09755
1.09751
1.09748
1.09746
1.09745
1.09744
1.09745
1.09747
1.0975
1.09754
1.09759
1.09766
1.09775
1.09785
1.09796
1.0981
1.09826
1.09843
1.09863
1.09885
1.0991
1.09937
1.09967
1.09999
1.10035
1.10074
1.10116
1.10162
1.10212
1.10265
1.10323
1.10384
1.10451
1.10522
1.10599
1.10681
1.10769
1.10864
1.10965
1.11075
1.11194
1.11323
1.11463
1.11617
1.11788
1.11978
1.12192
1.12439
1.12726
1.13071
1.13496
1.14034
1.14742
1.15792
1.17595
1.20375
1.07067
1.07146
1.07753
1.08248
1.08572
1.08802
1.08967
1.09084
1.09169
1.09233
1.09282
1.09319
1.09348
1.0937
1.09387
1.094
1.0941
1.09417
1.09421
1.09424
1.09424
1.09423
1.09421
1.09417
1.09412
1.09407
1.094
1.09393
1.09384
1.09375
1.09366
1.09356
1.09345
1.09334
1.09323
1.09311
1.09299
1.09286
1.09274
1.09261
1.09248
1.09235
1.09222
1.09209
1.09196
1.09183
1.0917
1.09158
1.09145
1.09133
1.09122
1.0911
1.091
1.09089
1.09079
1.0907
1.09061
1.09053
1.09045
1.09038
1.09032
1.09026
1.09021
1.09017
1.09014
1.09011
1.09009
1.09007
1.09007
1.09007
1.09008
1.0901
1.09012
1.09015
1.09019
1.09024
1.09029
1.09035
1.09041
1.09049
1.09056
1.09065
1.09074
1.09083
1.09093
1.09104
1.09115
1.09126
1.09138
1.0915
1.09162
1.09175
1.09187
1.092
1.09213
1.09225
1.09238
1.09251
1.09263
1.09275
1.09287
1.09298
1.09309
1.0932
1.0933
1.09339
1.09348
1.09356
1.09364
1.0937
1.09376
1.09381
1.09385
1.09388
1.0939
1.09391
1.09391
1.0939
1.09388
1.09385
1.09381
1.09376
1.0937
1.09364
1.09357
1.09349
1.0934
1.09331
1.09321
1.09311
1.09301
1.0929
1.0928
1.09269
1.09258
1.09247
1.09237
1.09226
1.09216
1.09206
1.09196
1.09187
1.09178
1.0917
1.09162
1.09155
1.09148
1.09142
1.09136
1.09131
1.09127
1.09123
1.09119
1.09117
1.09115
1.09113
1.09112
1.09112
1.09112
1.09112
1.09113
1.09115
1.09117
1.09119
1.09121
1.09124
1.09127
1.0913
1.09134
1.09138
1.09141
1.09145
1.09149
1.09153
1.09158
1.09162
1.09166
1.0917
1.09174
1.09179
1.09183
1.09187
1.09191
1.09195
1.09199
1.09202
1.09206
1.0921
1.09214
1.09217
1.09221
1.09224
1.09227
1.09231
1.09234
1.09237
1.0924
1.09243
1.09247
1.0925
1.09253
1.09256
1.09258
1.09261
1.09264
1.09267
1.09269
1.09272
1.09275
1.09277
1.09279
1.09282
1.09284
1.09286
1.09288
1.0929
1.09291
1.09293
1.09294
1.09296
1.09297
1.09298
1.09299
1.09299
1.093
1.093
1.09301
1.09301
1.09301
1.09301
1.09301
1.093
1.093
1.093
1.09299
1.09299
1.09298
1.09298
1.09298
1.09298
1.09298
1.09298
1.09298
1.09298
1.09299
1.093
1.09302
1.09303
1.09306
1.09308
1.09311
1.09315
1.09319
1.09323
1.09328
1.09334
1.0934
1.09347
1.09355
1.09363
1.09372
1.09381
1.09391
1.09401
1.09412
1.09424
1.09436
1.09448
1.09461
1.09474
1.09488
1.09502
1.09516
1.0953
1.09544
1.09558
1.09573
1.09587
1.09601
1.09615
1.09629
1.09642
1.09655
1.09668
1.09681
1.09693
1.09705
1.09716
1.09727
1.09738
1.09748
1.09758
1.09768
1.09777
1.09786
1.09794
1.09802
1.0981
1.09818
1.09825
1.09832
1.09839
1.09845
1.09851
1.09857
1.09863
1.09868
1.09873
1.09877
1.09881
1.09885
1.09888
1.09891
1.09893
1.09894
1.09895
1.09896
1.09896
1.09895
1.09894
1.09892
1.0989
1.09886
1.09883
1.09879
1.09874
1.09869
1.09863
1.09857
1.09851
1.09844
1.09838
1.09831
1.09823
1.09816
1.09809
1.09802
1.09795
1.09788
1.09782
1.09776
1.0977
1.09765
1.0976
1.09756
1.09752
1.09749
1.09747
1.09746
1.09746
1.09747
1.09748
1.09751
1.09756
1.09761
1.09768
1.09777
1.09787
1.09799
1.09813
1.09828
1.09846
1.09866
1.09888
1.09913
1.09941
1.09971
1.10004
1.1004
1.10079
1.10122
1.10168
1.10218
1.10272
1.1033
1.10392
1.10459
1.10531
1.10608
1.10691
1.1078
1.10875
1.10978
1.11088
1.11208
1.11337
1.11479
1.11634
1.11806
1.11997
1.12213
1.1246
1.12748
1.13087
1.13499
1.14016
1.14686
1.15533
1.16453
1.17263
1.07906
1.07843
1.08055
1.08312
1.08565
1.08766
1.08916
1.09029
1.09117
1.09185
1.09238
1.0928
1.09313
1.09338
1.09359
1.09375
1.09387
1.09396
1.09402
1.09406
1.09408
1.09408
1.09407
1.09404
1.09401
1.09396
1.0939
1.09383
1.09376
1.09367
1.09359
1.09349
1.09339
1.09328
1.09317
1.09306
1.09294
1.09282
1.0927
1.09257
1.09244
1.09232
1.09219
1.09206
1.09193
1.09181
1.09168
1.09156
1.09144
1.09132
1.09121
1.09109
1.09099
1.09089
1.09079
1.09069
1.09061
1.09053
1.09045
1.09038
1.09032
1.09027
1.09022
1.09018
1.09014
1.09011
1.0901
1.09008
1.09008
1.09008
1.09009
1.09011
1.09014
1.09017
1.09021
1.09025
1.09031
1.09037
1.09044
1.09051
1.09059
1.09067
1.09077
1.09086
1.09096
1.09107
1.09118
1.0913
1.09141
1.09153
1.09166
1.09178
1.09191
1.09204
1.09217
1.09229
1.09242
1.09255
1.09267
1.09279
1.09291
1.09303
1.09314
1.09324
1.09334
1.09344
1.09353
1.09361
1.09368
1.09375
1.0938
1.09385
1.09389
1.09392
1.09394
1.09395
1.09394
1.09393
1.09391
1.09388
1.09384
1.09379
1.09373
1.09367
1.09359
1.09351
1.09343
1.09333
1.09324
1.09314
1.09303
1.09293
1.09282
1.09271
1.09261
1.0925
1.09239
1.09229
1.09219
1.09209
1.09199
1.0919
1.09182
1.09173
1.09166
1.09158
1.09152
1.09146
1.0914
1.09135
1.09131
1.09127
1.09124
1.09121
1.09119
1.09118
1.09117
1.09117
1.09117
1.09117
1.09118
1.0912
1.09122
1.09124
1.09126
1.09129
1.09132
1.09135
1.09139
1.09143
1.09146
1.0915
1.09154
1.09158
1.09163
1.09167
1.09171
1.09175
1.09179
1.09184
1.09188
1.09192
1.09196
1.092
1.09204
1.09208
1.09211
1.09215
1.09219
1.09222
1.09226
1.09229
1.09233
1.09236
1.09239
1.09242
1.09246
1.09249
1.09252
1.09255
1.09258
1.09261
1.09264
1.09267
1.09269
1.09272
1.09275
1.09277
1.0928
1.09282
1.09284
1.09287
1.09289
1.09291
1.09293
1.09294
1.09296
1.09298
1.09299
1.093
1.09301
1.09302
1.09303
1.09304
1.09304
1.09305
1.09305
1.09305
1.09305
1.09305
1.09305
1.09305
1.09304
1.09304
1.09303
1.09303
1.09303
1.09302
1.09302
1.09302
1.09302
1.09302
1.09302
1.09303
1.09303
1.09304
1.09306
1.09308
1.0931
1.09312
1.09315
1.09319
1.09323
1.09328
1.09333
1.09339
1.09345
1.09352
1.0936
1.09368
1.09376
1.09386
1.09396
1.09406
1.09417
1.09429
1.09441
1.09453
1.09466
1.09479
1.09493
1.09507
1.09521
1.09535
1.09549
1.09564
1.09578
1.09592
1.09606
1.0962
1.09634
1.09647
1.0966
1.09673
1.09686
1.09698
1.09709
1.09721
1.09732
1.09742
1.09752
1.09762
1.09772
1.09781
1.09789
1.09798
1.09806
1.09814
1.09821
1.09828
1.09835
1.09842
1.09848
1.09854
1.0986
1.09866
1.09871
1.09876
1.0988
1.09884
1.09887
1.09891
1.09893
1.09895
1.09897
1.09898
1.09898
1.09898
1.09898
1.09896
1.09894
1.09892
1.09889
1.09885
1.09881
1.09876
1.09871
1.09865
1.09859
1.09853
1.09846
1.09839
1.09832
1.09825
1.09818
1.09811
1.09804
1.09797
1.0979
1.09783
1.09777
1.09771
1.09766
1.09761
1.09757
1.09753
1.09751
1.09749
1.09747
1.09747
1.09748
1.0975
1.09753
1.09757
1.09762
1.09769
1.09778
1.09788
1.098
1.09814
1.0983
1.09848
1.09868
1.0989
1.09915
1.09942
1.09973
1.10006
1.10042
1.10082
1.10125
1.10171
1.10221
1.10275
1.10333
1.10396
1.10463
1.10535
1.10612
1.10695
1.10784
1.1088
1.10982
1.11093
1.11212
1.11341
1.11482
1.11636
1.11805
1.11994
1.12205
1.12444
1.12719
1.13039
1.13414
1.13856
1.14368
1.14933
1.15392
1.15393
1.08312
1.08263
1.08332
1.08471
1.08634
1.0878
1.08904
1.09006
1.09089
1.09155
1.09208
1.09251
1.09286
1.09313
1.09336
1.09353
1.09367
1.09377
1.09385
1.0939
1.09394
1.09395
1.09395
1.09393
1.0939
1.09386
1.09381
1.09375
1.09368
1.09361
1.09352
1.09343
1.09334
1.09323
1.09313
1.09302
1.0929
1.09279
1.09267
1.09254
1.09242
1.0923
1.09217
1.09204
1.09192
1.09179
1.09167
1.09155
1.09143
1.09132
1.0912
1.09109
1.09099
1.09089
1.09079
1.0907
1.09061
1.09053
1.09046
1.09039
1.09033
1.09027
1.09023
1.09018
1.09015
1.09013
1.09011
1.0901
1.09009
1.0901
1.09011
1.09013
1.09015
1.09019
1.09023
1.09028
1.09033
1.09039
1.09046
1.09054
1.09062
1.0907
1.0908
1.09089
1.091
1.09111
1.09122
1.09133
1.09145
1.09158
1.0917
1.09183
1.09196
1.09208
1.09221
1.09234
1.09247
1.0926
1.09272
1.09285
1.09297
1.09308
1.09319
1.0933
1.0934
1.09349
1.09358
1.09366
1.09374
1.0938
1.09386
1.09391
1.09395
1.09397
1.09399
1.094
1.094
1.09399
1.09396
1.09393
1.09389
1.09384
1.09378
1.09371
1.09364
1.09356
1.09347
1.09338
1.09328
1.09318
1.09308
1.09297
1.09286
1.09276
1.09265
1.09254
1.09244
1.09233
1.09223
1.09214
1.09204
1.09195
1.09187
1.09179
1.09171
1.09164
1.09157
1.09151
1.09146
1.09141
1.09137
1.09133
1.0913
1.09128
1.09126
1.09124
1.09123
1.09123
1.09123
1.09124
1.09125
1.09126
1.09128
1.0913
1.09133
1.09136
1.09139
1.09142
1.09146
1.09149
1.09153
1.09157
1.09161
1.09165
1.09169
1.09174
1.09178
1.09182
1.09186
1.09191
1.09195
1.09199
1.09203
1.09207
1.09211
1.09215
1.09218
1.09222
1.09226
1.09229
1.09233
1.09236
1.0924
1.09243
1.09246
1.0925
1.09253
1.09256
1.09259
1.09262
1.09265
1.09268
1.09271
1.09274
1.09276
1.09279
1.09282
1.09284
1.09287
1.09289
1.09291
1.09293
1.09295
1.09297
1.09299
1.09301
1.09303
1.09304
1.09305
1.09307
1.09308
1.09308
1.09309
1.0931
1.0931
1.09311
1.09311
1.09311
1.09311
1.09311
1.0931
1.0931
1.0931
1.09309
1.09309
1.09308
1.09308
1.09308
1.09307
1.09307
1.09307
1.09307
1.09307
1.09308
1.09309
1.0931
1.09311
1.09313
1.09315
1.09318
1.09321
1.09324
1.09328
1.09333
1.09338
1.09344
1.0935
1.09357
1.09365
1.09373
1.09382
1.09391
1.09401
1.09412
1.09423
1.09434
1.09446
1.09459
1.09472
1.09485
1.09499
1.09513
1.09527
1.09541
1.09555
1.0957
1.09584
1.09598
1.09612
1.09626
1.0964
1.09653
1.09667
1.09679
1.09692
1.09704
1.09715
1.09727
1.09737
1.09748
1.09758
1.09768
1.09777
1.09786
1.09794
1.09803
1.09811
1.09818
1.09826
1.09833
1.0984
1.09846
1.09852
1.09858
1.09864
1.0987
1.09875
1.09879
1.09884
1.09888
1.09891
1.09894
1.09897
1.09899
1.09901
1.09902
1.09902
1.09902
1.09901
1.099
1.09898
1.09895
1.09892
1.09888
1.09884
1.09879
1.09874
1.09868
1.09862
1.09856
1.09849
1.09842
1.09835
1.09828
1.09821
1.09813
1.09806
1.09799
1.09792
1.09786
1.09779
1.09774
1.09768
1.09763
1.09759
1.09755
1.09752
1.0975
1.09749
1.09748
1.09749
1.09751
1.09754
1.09758
1.09763
1.0977
1.09779
1.09789
1.09801
1.09814
1.0983
1.09848
1.09868
1.0989
1.09915
1.09942
1.09973
1.10006
1.10042
1.10081
1.10124
1.10171
1.10221
1.10275
1.10333
1.10396
1.10463
1.10535
1.10612
1.10694
1.10783
1.10878
1.10979
1.11089
1.11207
1.11334
1.11472
1.11622
1.11787
1.11969
1.1217
1.12395
1.12648
1.12933
1.13255
1.13609
1.13972
1.14298
1.14517
1.14456
1.08575
1.08533
1.08553
1.08627
1.08725
1.08828
1.08924
1.09009
1.09081
1.09141
1.09191
1.09233
1.09267
1.09295
1.09318
1.09337
1.09352
1.09363
1.09372
1.09378
1.09382
1.09385
1.09385
1.09384
1.09382
1.09379
1.09374
1.09369
1.09363
1.09355
1.09347
1.09339
1.0933
1.0932
1.0931
1.09299
1.09288
1.09277
1.09265
1.09253
1.09241
1.09229
1.09216
1.09204
1.09192
1.09179
1.09167
1.09155
1.09143
1.09132
1.09121
1.0911
1.09099
1.09089
1.0908
1.09071
1.09062
1.09054
1.09047
1.0904
1.09034
1.09028
1.09024
1.0902
1.09016
1.09014
1.09012
1.09011
1.09011
1.09011
1.09012
1.09014
1.09017
1.0902
1.09025
1.0903
1.09035
1.09041
1.09048
1.09056
1.09064
1.09073
1.09083
1.09093
1.09103
1.09114
1.09126
1.09137
1.09149
1.09162
1.09175
1.09187
1.09201
1.09214
1.09227
1.0924
1.09253
1.09266
1.09278
1.09291
1.09303
1.09314
1.09326
1.09336
1.09347
1.09356
1.09365
1.09373
1.09381
1.09387
1.09393
1.09398
1.09402
1.09405
1.09406
1.09407
1.09407
1.09406
1.09403
1.094
1.09396
1.0939
1.09384
1.09378
1.0937
1.09362
1.09353
1.09344
1.09334
1.09324
1.09314
1.09303
1.09292
1.09282
1.09271
1.0926
1.0925
1.0924
1.0923
1.0922
1.09211
1.09202
1.09193
1.09185
1.09178
1.09171
1.09164
1.09159
1.09153
1.09149
1.09144
1.09141
1.09138
1.09135
1.09134
1.09132
1.09131
1.09131
1.09131
1.09132
1.09133
1.09134
1.09136
1.09139
1.09141
1.09144
1.09147
1.0915
1.09154
1.09158
1.09161
1.09165
1.0917
1.09174
1.09178
1.09182
1.09186
1.09191
1.09195
1.09199
1.09203
1.09207
1.09211
1.09215
1.09219
1.09223
1.09227
1.09231
1.09235
1.09238
1.09242
1.09245
1.09249
1.09252
1.09255
1.09259
1.09262
1.09265
1.09268
1.09271
1.09274
1.09277
1.0928
1.09283
1.09285
1.09288
1.0929
1.09293
1.09295
1.09298
1.093
1.09302
1.09304
1.09306
1.09308
1.09309
1.09311
1.09312
1.09313
1.09314
1.09315
1.09316
1.09317
1.09317
1.09318
1.09318
1.09318
1.09318
1.09318
1.09318
1.09318
1.09317
1.09317
1.09316
1.09316
1.09315
1.09315
1.09314
1.09314
1.09313
1.09313
1.09313
1.09314
1.09314
1.09315
1.09316
1.09317
1.09319
1.09321
1.09323
1.09326
1.0933
1.09334
1.09339
1.09344
1.09349
1.09356
1.09363
1.0937
1.09378
1.09387
1.09397
1.09407
1.09417
1.09428
1.0944
1.09452
1.09465
1.09478
1.09491
1.09505
1.09519
1.09533
1.09548
1.09562
1.09577
1.09591
1.09605
1.0962
1.09634
1.09647
1.09661
1.09674
1.09687
1.09699
1.09711
1.09723
1.09734
1.09745
1.09755
1.09765
1.09774
1.09783
1.09792
1.09801
1.09809
1.09817
1.09824
1.09831
1.09838
1.09845
1.09852
1.09858
1.09864
1.09869
1.09875
1.0988
1.09884
1.09889
1.09893
1.09896
1.09899
1.09902
1.09904
1.09905
1.09906
1.09907
1.09907
1.09906
1.09905
1.09903
1.099
1.09897
1.09893
1.09889
1.09884
1.09879
1.09873
1.09867
1.0986
1.09853
1.09846
1.09839
1.09832
1.09824
1.09817
1.0981
1.09803
1.09796
1.09789
1.09782
1.09776
1.09771
1.09766
1.09761
1.09758
1.09754
1.09752
1.09751
1.0975
1.0975
1.09752
1.09755
1.09758
1.09764
1.0977
1.09779
1.09788
1.098
1.09813
1.09829
1.09846
1.09866
1.09888
1.09913
1.0994
1.0997
1.10003
1.10039
1.10078
1.10121
1.10167
1.10217
1.10271
1.10329
1.10391
1.10458
1.10529
1.10606
1.10688
1.10775
1.10869
1.10969
1.11077
1.11192
1.11316
1.1145
1.11595
1.11752
1.11924
1.12111
1.12317
1.12543
1.12789
1.13052
1.1332
1.13573
1.13768
1.13865
1.1384
1.08761
1.08719
1.08721
1.08759
1.08819
1.0889
1.08961
1.09028
1.09088
1.09141
1.09186
1.09225
1.09257
1.09284
1.09307
1.09325
1.0934
1.09352
1.09362
1.09369
1.09373
1.09376
1.09377
1.09377
1.09376
1.09373
1.09369
1.09364
1.09358
1.09351
1.09344
1.09336
1.09327
1.09318
1.09308
1.09297
1.09287
1.09276
1.09264
1.09252
1.09241
1.09229
1.09217
1.09204
1.09192
1.0918
1.09168
1.09156
1.09145
1.09133
1.09122
1.09111
1.09101
1.09091
1.09081
1.09072
1.09064
1.09056
1.09048
1.09042
1.09035
1.0903
1.09025
1.09021
1.09018
1.09016
1.09014
1.09013
1.09013
1.09013
1.09014
1.09016
1.09019
1.09023
1.09027
1.09032
1.09038
1.09044
1.09051
1.09059
1.09067
1.09076
1.09086
1.09096
1.09107
1.09118
1.0913
1.09142
1.09154
1.09167
1.0918
1.09193
1.09206
1.09219
1.09233
1.09246
1.09259
1.09272
1.09285
1.09298
1.0931
1.09322
1.09333
1.09344
1.09354
1.09364
1.09373
1.09382
1.09389
1.09396
1.09402
1.09407
1.0941
1.09413
1.09415
1.09416
1.09416
1.09414
1.09412
1.09408
1.09404
1.09399
1.09393
1.09386
1.09378
1.0937
1.09361
1.09351
1.09341
1.09331
1.09321
1.0931
1.093
1.09289
1.09278
1.09268
1.09257
1.09247
1.09237
1.09228
1.09219
1.0921
1.09201
1.09194
1.09186
1.09179
1.09173
1.09167
1.09162
1.09158
1.09154
1.0915
1.09147
1.09145
1.09143
1.09142
1.09141
1.09141
1.09141
1.09142
1.09143
1.09144
1.09146
1.09149
1.09151
1.09154
1.09157
1.0916
1.09164
1.09168
1.09172
1.09176
1.0918
1.09184
1.09188
1.09192
1.09197
1.09201
1.09205
1.09209
1.09214
1.09218
1.09222
1.09226
1.0923
1.09234
1.09238
1.09241
1.09245
1.09249
1.09252
1.09256
1.09259
1.09263
1.09266
1.09269
1.09273
1.09276
1.09279
1.09282
1.09285
1.09288
1.09291
1.09293
1.09296
1.09299
1.09301
1.09303
1.09306
1.09308
1.0931
1.09312
1.09314
1.09316
1.09318
1.09319
1.09321
1.09322
1.09323
1.09324
1.09325
1.09326
1.09326
1.09327
1.09327
1.09327
1.09327
1.09327
1.09327
1.09327
1.09326
1.09326
1.09325
1.09324
1.09324
1.09323
1.09323
1.09322
1.09322
1.09321
1.09321
1.09321
1.09321
1.09321
1.09322
1.09323
1.09324
1.09326
1.09328
1.0933
1.09333
1.09336
1.0934
1.09345
1.0935
1.09356
1.09362
1.09369
1.09376
1.09385
1.09393
1.09403
1.09413
1.09423
1.09435
1.09446
1.09459
1.09471
1.09485
1.09498
1.09512
1.09526
1.09541
1.09555
1.0957
1.09584
1.09599
1.09613
1.09628
1.09642
1.09656
1.09669
1.09682
1.09695
1.09708
1.09719
1.09731
1.09742
1.09753
1.09763
1.09773
1.09782
1.09791
1.098
1.09808
1.09816
1.09824
1.09831
1.09838
1.09845
1.09851
1.09858
1.09864
1.0987
1.09875
1.09881
1.09886
1.0989
1.09894
1.09898
1.09902
1.09905
1.09908
1.0991
1.09911
1.09912
1.09913
1.09913
1.09912
1.0991
1.09909
1.09906
1.09903
1.09899
1.09895
1.0989
1.09884
1.09878
1.09872
1.09866
1.09859
1.09851
1.09844
1.09837
1.09829
1.09822
1.09814
1.09807
1.098
1.09793
1.09786
1.0978
1.09774
1.09769
1.09764
1.0976
1.09757
1.09754
1.09753
1.09752
1.09752
1.09753
1.09755
1.09759
1.09764
1.0977
1.09778
1.09788
1.09799
1.09812
1.09827
1.09844
1.09864
1.09885
1.0991
1.09936
1.09966
1.09999
1.10034
1.10073
1.10115
1.10161
1.10211
1.10264
1.10321
1.10383
1.10449
1.10519
1.10595
1.10676
1.10762
1.10854
1.10952
1.11057
1.11169
1.11288
1.11417
1.11555
1.11703
1.11863
1.12035
1.12219
1.12416
1.12623
1.12832
1.13032
1.13206
1.13329
1.13376
1.13353
1.08895
1.08857
1.08851
1.0887
1.08907
1.08954
1.09006
1.09058
1.09107
1.09151
1.0919
1.09225
1.09255
1.0928
1.09301
1.09319
1.09334
1.09346
1.09355
1.09362
1.09368
1.09371
1.09372
1.09373
1.09371
1.09369
1.09365
1.09361
1.09356
1.09349
1.09342
1.09334
1.09326
1.09317
1.09307
1.09297
1.09287
1.09276
1.09265
1.09253
1.09242
1.0923
1.09218
1.09206
1.09194
1.09182
1.0917
1.09158
1.09147
1.09135
1.09124
1.09113
1.09103
1.09093
1.09084
1.09074
1.09066
1.09058
1.0905
1.09044
1.09038
1.09032
1.09027
1.09023
1.0902
1.09017
1.09016
1.09015
1.09015
1.09015
1.09016
1.09018
1.09021
1.09025
1.09029
1.09034
1.0904
1.09047
1.09054
1.09062
1.09071
1.0908
1.09089
1.091
1.09111
1.09122
1.09134
1.09146
1.09159
1.09172
1.09185
1.09198
1.09212
1.09225
1.09239
1.09253
1.09266
1.09279
1.09293
1.09305
1.09318
1.0933
1.09341
1.09353
1.09363
1.09373
1.09382
1.09391
1.09399
1.09405
1.09411
1.09416
1.0942
1.09423
1.09425
1.09426
1.09426
1.09424
1.09422
1.09418
1.09414
1.09409
1.09402
1.09395
1.09387
1.09379
1.0937
1.0936
1.09351
1.0934
1.0933
1.09319
1.09309
1.09298
1.09287
1.09277
1.09267
1.09256
1.09247
1.09237
1.09228
1.09219
1.09211
1.09203
1.09196
1.09189
1.09183
1.09178
1.09173
1.09168
1.09164
1.09161
1.09158
1.09156
1.09154
1.09153
1.09152
1.09152
1.09152
1.09153
1.09154
1.09156
1.09158
1.0916
1.09163
1.09165
1.09169
1.09172
1.09175
1.09179
1.09183
1.09187
1.09191
1.09195
1.092
1.09204
1.09208
1.09213
1.09217
1.09221
1.09225
1.0923
1.09234
1.09238
1.09242
1.09246
1.0925
1.09254
1.09257
1.09261
1.09265
1.09268
1.09272
1.09275
1.09279
1.09282
1.09285
1.09288
1.09291
1.09294
1.09297
1.093
1.09303
1.09306
1.09308
1.09311
1.09313
1.09316
1.09318
1.0932
1.09322
1.09324
1.09326
1.09328
1.09329
1.09331
1.09332
1.09333
1.09334
1.09335
1.09336
1.09337
1.09337
1.09337
1.09338
1.09338
1.09338
1.09337
1.09337
1.09337
1.09336
1.09335
1.09335
1.09334
1.09333
1.09333
1.09332
1.09331
1.0933
1.0933
1.0933
1.09329
1.09329
1.0933
1.0933
1.09331
1.09332
1.09333
1.09335
1.09338
1.0934
1.09344
1.09347
1.09352
1.09357
1.09362
1.09369
1.09375
1.09383
1.09391
1.094
1.09409
1.09419
1.0943
1.09441
1.09453
1.09465
1.09478
1.09492
1.09505
1.09519
1.09534
1.09548
1.09563
1.09578
1.09593
1.09607
1.09622
1.09637
1.09651
1.09665
1.09678
1.09692
1.09705
1.09717
1.09729
1.0974
1.09751
1.09762
1.09772
1.09782
1.09791
1.098
1.09808
1.09816
1.09824
1.09832
1.09839
1.09846
1.09852
1.09859
1.09865
1.09871
1.09877
1.09882
1.09888
1.09892
1.09897
1.09901
1.09905
1.09909
1.09912
1.09914
1.09917
1.09918
1.09919
1.0992
1.0992
1.09919
1.09917
1.09916
1.09913
1.0991
1.09906
1.09901
1.09896
1.09891
1.09885
1.09879
1.09872
1.09865
1.09858
1.0985
1.09843
1.09835
1.09827
1.0982
1.09812
1.09805
1.09798
1.09791
1.09784
1.09778
1.09773
1.09768
1.09764
1.0976
1.09757
1.09755
1.09754
1.09753
1.09754
1.09756
1.09759
1.09764
1.0977
1.09777
1.09786
1.09797
1.09809
1.09824
1.09841
1.0986
1.09881
1.09905
1.09931
1.0996
1.09992
1.10027
1.10065
1.10107
1.10152
1.10201
1.10253
1.1031
1.10371
1.10435
1.10505
1.10579
1.10658
1.10742
1.10832
1.10927
1.11029
1.11137
1.11251
1.11373
1.11503
1.11641
1.11788
1.11943
1.12106
1.12275
1.12446
1.12611
1.12761
1.12882
1.12961
1.12986
1.12955
1.08996
1.08964
1.08953
1.08961
1.08984
1.09016
1.09054
1.09093
1.09132
1.09168
1.09202
1.09232
1.09258
1.09281
1.09301
1.09318
1.09332
1.09343
1.09352
1.09359
1.09364
1.09368
1.09369
1.0937
1.09369
1.09367
1.09364
1.09359
1.09354
1.09348
1.09342
1.09334
1.09326
1.09317
1.09308
1.09298
1.09288
1.09277
1.09266
1.09255
1.09244
1.09232
1.0922
1.09208
1.09197
1.09185
1.09173
1.09161
1.0915
1.09138
1.09127
1.09117
1.09106
1.09096
1.09087
1.09078
1.09069
1.09061
1.09054
1.09047
1.09041
1.09035
1.0903
1.09026
1.09023
1.0902
1.09019
1.09017
1.09017
1.09018
1.09019
1.09021
1.09024
1.09028
1.09032
1.09038
1.09043
1.0905
1.09057
1.09065
1.09074
1.09083
1.09093
1.09104
1.09115
1.09127
1.09139
1.09151
1.09164
1.09177
1.09191
1.09205
1.09218
1.09232
1.09246
1.0926
1.09274
1.09287
1.09301
1.09314
1.09326
1.09339
1.09351
1.09362
1.09373
1.09383
1.09392
1.09401
1.09409
1.09416
1.09422
1.09427
1.09432
1.09435
1.09437
1.09438
1.09437
1.09436
1.09433
1.0943
1.09425
1.0942
1.09413
1.09406
1.09398
1.0939
1.09381
1.09371
1.09361
1.09351
1.0934
1.0933
1.09319
1.09308
1.09298
1.09287
1.09277
1.09267
1.09257
1.09248
1.09239
1.0923
1.09222
1.09215
1.09208
1.09201
1.09195
1.09189
1.09184
1.0918
1.09176
1.09173
1.0917
1.09168
1.09167
1.09165
1.09165
1.09165
1.09165
1.09166
1.09167
1.09169
1.09171
1.09173
1.09176
1.09179
1.09182
1.09185
1.09189
1.09193
1.09196
1.092
1.09205
1.09209
1.09213
1.09217
1.09222
1.09226
1.09231
1.09235
1.09239
1.09243
1.09248
1.09252
1.09256
1.0926
1.09264
1.09268
1.09272
1.09275
1.09279
1.09283
1.09286
1.0929
1.09293
1.09296
1.09299
1.09303
1.09306
1.09309
1.09312
1.09314
1.09317
1.0932
1.09322
1.09325
1.09327
1.0933
1.09332
1.09334
1.09336
1.09338
1.0934
1.09341
1.09343
1.09344
1.09345
1.09346
1.09347
1.09348
1.09349
1.09349
1.0935
1.0935
1.0935
1.0935
1.0935
1.09349
1.09349
1.09348
1.09347
1.09347
1.09346
1.09345
1.09344
1.09343
1.09342
1.09341
1.09341
1.0934
1.09339
1.09339
1.09339
1.09339
1.09339
1.0934
1.09341
1.09342
1.09344
1.09346
1.09349
1.09352
1.09355
1.0936
1.09364
1.0937
1.09376
1.09383
1.0939
1.09398
1.09407
1.09416
1.09426
1.09437
1.09448
1.0946
1.09473
1.09486
1.09499
1.09513
1.09527
1.09542
1.09556
1.09571
1.09586
1.09602
1.09617
1.09631
1.09646
1.09661
1.09675
1.09689
1.09702
1.09715
1.09727
1.09739
1.09751
1.09762
1.09772
1.09782
1.09792
1.09801
1.09809
1.09818
1.09826
1.09833
1.09841
1.09848
1.09854
1.09861
1.09867
1.09873
1.09879
1.09885
1.0989
1.09895
1.099
1.09905
1.09909
1.09913
1.09916
1.09919
1.09922
1.09924
1.09926
1.09927
1.09928
1.09927
1.09927
1.09925
1.09923
1.09921
1.09918
1.09914
1.09909
1.09904
1.09899
1.09893
1.09886
1.09879
1.09872
1.09865
1.09857
1.09849
1.09841
1.09833
1.09826
1.09818
1.0981
1.09803
1.09796
1.09789
1.09783
1.09777
1.09772
1.09767
1.09763
1.0976
1.09758
1.09756
1.09755
1.09756
1.09757
1.0976
1.09764
1.09769
1.09776
1.09785
1.09795
1.09807
1.09821
1.09837
1.09855
1.09876
1.09899
1.09924
1.09953
1.09984
1.10018
1.10056
1.10097
1.10141
1.10189
1.1024
1.10296
1.10355
1.10419
1.10487
1.10559
1.10637
1.10718
1.10805
1.10897
1.10995
1.11098
1.11207
1.11322
1.11443
1.11571
1.11704
1.11843
1.11986
1.12129
1.12269
1.124
1.12512
1.12598
1.1265
1.12662
1.12629
1.09076
1.09049
1.09037
1.09039
1.09052
1.09074
1.09101
1.0913
1.09161
1.0919
1.09218
1.09244
1.09267
1.09287
1.09305
1.0932
1.09333
1.09344
1.09352
1.09359
1.09364
1.09367
1.09369
1.0937
1.09369
1.09367
1.09364
1.0936
1.09355
1.09349
1.09343
1.09336
1.09328
1.09319
1.0931
1.09301
1.09291
1.0928
1.0927
1.09258
1.09247
1.09236
1.09224
1.09212
1.09201
1.09189
1.09177
1.09165
1.09154
1.09143
1.09132
1.09121
1.0911
1.091
1.09091
1.09081
1.09073
1.09065
1.09057
1.0905
1.09044
1.09038
1.09034
1.09029
1.09026
1.09023
1.09022
1.0902
1.0902
1.09021
1.09022
1.09024
1.09027
1.09031
1.09035
1.09041
1.09047
1.09053
1.09061
1.09069
1.09078
1.09087
1.09097
1.09108
1.09119
1.09131
1.09144
1.09156
1.09169
1.09183
1.09197
1.09211
1.09225
1.09239
1.09253
1.09267
1.09281
1.09295
1.09309
1.09322
1.09335
1.09348
1.0936
1.09372
1.09383
1.09393
1.09403
1.09412
1.0942
1.09428
1.09434
1.09439
1.09444
1.09447
1.09449
1.0945
1.0945
1.09449
1.09446
1.09443
1.09438
1.09432
1.09426
1.09419
1.09411
1.09402
1.09393
1.09383
1.09373
1.09363
1.09352
1.09342
1.09331
1.0932
1.0931
1.09299
1.09289
1.09279
1.0927
1.0926
1.09251
1.09243
1.09235
1.09227
1.0922
1.09214
1.09208
1.09203
1.09198
1.09194
1.0919
1.09187
1.09184
1.09182
1.0918
1.09179
1.09179
1.09179
1.09179
1.0918
1.09181
1.09183
1.09185
1.09187
1.0919
1.09193
1.09196
1.092
1.09203
1.09207
1.09211
1.09215
1.09219
1.09224
1.09228
1.09232
1.09237