# vtk DataFile Version 2.0
LBE mesh
ASCII
DATASET STRUCTURED_POINTS
DIMENSIONS 400 100 1
ASPECT_RATIO 1 1 1
ORIGIN 0 0 0
POINT_DATA 40000
SCALARS rho double 1
LOOKUP_TABLE default
1.03525
1.08975
1.10609
1.11025
1.11246
1.11418
1.11538
1.11617
1.11671
1.1171
1.1174
1.11764
1.11782
1.11796
1.11807
1.11816
1.11822
1.11828
1.11832
1.11835
1.11836
1.11838
1.11838
1.11838
1.11837
1.11836
1.11835
1.11833
1.11831
1.11828
1.11826
1.11823
1.1182
1.11817
1.11813
1.1181
1.11807
1.11803
1.118
1.11796
1.11793
1.11789
1.11786
1.11783
1.1178
1.11777
1.11774
1.11772
1.1177
1.11768
1.11767
1.11766
1.11765
1.11765
1.11766
1.11767
1.11768
1.11771
1.11773
1.11777
1.11781
1.11786
1.11792
1.11799
1.11806
1.11815
1.11824
1.11834
1.11845
1.11857
1.1187
1.11885
1.119
1.11916
1.11933
1.11951
1.1197
1.1199
1.12012
1.12034
1.12057
1.12081
1.12106
1.12132
1.12159
1.12187
1.12215
1.12245
1.12275
1.12306
1.12337
1.12369
1.12402
1.12435
1.12468
1.12502
1.12536
1.1257
1.12604
1.12638
1.12672
1.12706
1.12739
1.12773
1.12806
1.12839
1.12871
1.12903
1.12934
1.12964
1.12994
1.13023
1.13051
1.13079
1.13105
1.13131
1.13156
1.1318
1.13202
1.13224
1.13246
1.13266
1.13285
1.13304
1.13321
1.13338
1.13354
1.1337
1.13385
1.13399
1.13413
1.13426
1.13439
1.13451
1.13463
1.13474
1.13486
1.13497
1.13508
1.13518
1.13529
1.13539
1.1355
1.1356
1.1357
1.1358
1.13591
1.13601
1.13611
1.13621
1.13631
1.13642
1.13652
1.13663
1.13673
1.13684
1.13694
1.13705
1.13716
1.13727
1.13737
1.13748
1.13759
1.1377
1.13781
1.13793
1.13804
1.13815
1.13826
1.13837
1.13848
1.13859
1.13871
1.13882
1.13893
1.13904
1.13915
1.13926
1.13937
1.13948
1.13959
1.13969
1.1398
1.13991
1.14002
1.14013
1.14024
1.14035
1.14046
1.14057
1.14068
1.14079
1.1409
1.14101
1.14112
1.14124
1.14135
1.14147
1.14159
1.14171
1.14183
1.14196
1.14209
1.14221
1.14235
1.14248
1.14261
1.14275
1.14289
1.14304
1.14318
1.14333
1.14348
1.14363
1.14379
1.14395
1.14411
1.14427
1.14443
1.1446
1.14477
1.14494
1.14511
1.14529
1.14547
1.14565
1.14583
1.14601
1.14619
1.14638
1.14657
1.14675
1.14695
1.14714
1.14733
1.14753
1.14773
1.14793
1.14813
1.14833
1.14854
1.14875
1.14896
1.14918
1.1494
1.14962
1.14985
1.15008
1.15032
1.15056
1.1508
1.15105
1.15131
1.15157
1.15183
1.15211
1.15238
1.15267
1.15296
1.15326
1.15356
1.15387
1.15418
1.1545
1.15483
1.15516
1.1555
1.15584
1.15619
1.15654
1.1569
1.15726
1.15762
1.15798
1.15835
1.15871
1.15908
1.15944
1.1598
1.16016
1.16052
1.16088
1.16123
1.16157
1.16191
1.16225
1.16258
1.1629
1.16322
1.16353
1.16383
1.16413
1.16442
1.1647
1.16498
1.16524
1.16551
1.16576
1.16601
1.16626
1.16649
1.16672
1.16695
1.16717
1.16739
1.1676
1.1678
1.168
1.16819
1.16838
1.16857
1.16875
1.16892
1.16909
1.16925
1.1694
1.16955
1.16969
1.16983
1.16996
1.17008
1.1702
1.1703
1.1704
1.1705
1.17058
1.17066
1.17073
1.1708
1.17085
1.1709
1.17095
1.17099
1.17102
1.17104
1.17107
1.17108
1.1711
1.17111
1.17112
1.17112
1.17113
1.17113
1.17114
1.17115
1.17116
1.17118
1.1712
1.17123
1.17126
1.1713
1.17135
1.17142
1.17149
1.17158
1.17168
1.1718
1.17194
1.1721
1.17227
1.17247
1.17269
1.17294
1.17321
1.1735
1.17383
1.17418
1.17457
1.17499
1.17544
1.17593
1.17645
1.17701
1.17762
1.17826
1.17895
1.17968
1.18047
1.1813
1.18219
1.18314
1.18416
1.18524
1.18641
1.18766
1.18901
1.19048
1.19208
1.19384
1.1958
1.19799
1.20049
1.20338
1.2068
1.21095
1.2163
1.22388
1.23462
1.24888
1.27476
1.07571
1.08732
1.0981
1.10602
1.11022
1.1125
1.11395
1.11499
1.11576
1.11632
1.11674
1.11707
1.11732
1.11752
1.11768
1.11781
1.11792
1.118
1.11806
1.11812
1.11815
1.11818
1.1182
1.11821
1.11822
1.11822
1.11821
1.1182
1.11819
1.11817
1.11815
1.11813
1.11811
1.11808
1.11805
1.11802
1.11799
1.11796
1.11793
1.1179
1.11787
1.11784
1.11781
1.11778
1.11775
1.11772
1.1177
1.11768
1.11766
1.11765
1.11763
1.11763
1.11762
1.11763
1.11763
1.11764
1.11766
1.11769
1.11772
1.11775
1.1178
1.11785
1.11791
1.11798
1.11806
1.11814
1.11824
1.11834
1.11845
1.11858
1.11871
1.11885
1.119
1.11917
1.11934
1.11952
1.11972
1.11992
1.12013
1.12036
1.12059
1.12083
1.12108
1.12134
1.12161
1.12189
1.12218
1.12247
1.12277
1.12308
1.1234
1.12372
1.12404
1.12437
1.1247
1.12504
1.12538
1.12572
1.12606
1.1264
1.12674
1.12707
1.12741
1.12774
1.12807
1.1284
1.12872
1.12903
1.12934
1.12965
1.12994
1.13023
1.13051
1.13078
1.13105
1.1313
1.13155
1.13178
1.13201
1.13223
1.13244
1.13264
1.13283
1.13302
1.13319
1.13336
1.13352
1.13368
1.13382
1.13397
1.1341
1.13424
1.13436
1.13449
1.13461
1.13472
1.13484
1.13495
1.13506
1.13516
1.13527
1.13537
1.13548
1.13558
1.13568
1.13579
1.13589
1.13599
1.13609
1.1362
1.1363
1.1364
1.13651
1.13661
1.13672
1.13682
1.13693
1.13704
1.13715
1.13726
1.13737
1.13748
1.13759
1.1377
1.13781
1.13792
1.13803
1.13814
1.13825
1.13837
1.13848
1.13859
1.1387
1.13881
1.13892
1.13903
1.13914
1.13925
1.13936
1.13947
1.13958
1.13969
1.1398
1.13991
1.14002
1.14013
1.14023
1.14034
1.14045
1.14056
1.14067
1.14078
1.14089
1.14101
1.14112
1.14124
1.14135
1.14147
1.14159
1.14171
1.14183
1.14196
1.14208
1.14221
1.14234
1.14248
1.14261
1.14275
1.14289
1.14303
1.14318
1.14333
1.14348
1.14363
1.14379
1.14394
1.1441
1.14427
1.14443
1.1446
1.14477
1.14494
1.14511
1.14529
1.14547
1.14564
1.14583
1.14601
1.14619
1.14638
1.14657
1.14675
1.14695
1.14714
1.14733
1.14753
1.14773
1.14793
1.14813
1.14834
1.14855
1.14876
1.14897
1.14919
1.14941
1.14963
1.14986
1.15009
1.15033
1.15057
1.15082
1.15107
1.15132
1.15158
1.15185
1.15213
1.1524
1.15269
1.15298
1.15328
1.15358
1.15389
1.15421
1.15453
1.15486
1.15519
1.15553
1.15587
1.15622
1.15657
1.15693
1.15729
1.15765
1.15801
1.15837
1.15874
1.1591
1.15946
1.15983
1.16019
1.16054
1.1609
1.16124
1.16159
1.16193
1.16226
1.16259
1.16291
1.16323
1.16354
1.16384
1.16413
1.16442
1.1647
1.16498
1.16524
1.1655
1.16576
1.16601
1.16625
1.16649
1.16672
1.16694
1.16716
1.16738
1.16759
1.16779
1.16799
1.16818
1.16837
1.16856
1.16873
1.16891
1.16907
1.16923
1.16939
1.16954
1.16968
1.16981
1.16994
1.17006
1.17018
1.17029
1.17038
1.17048
1.17056
1.17064
1.17071
1.17077
1.17083
1.17088
1.17092
1.17096
1.17099
1.17102
1.17104
1.17106
1.17108
1.17109
1.1711
1.1711
1.17111
1.17112
1.17113
1.17114
1.17115
1.17117
1.17119
1.17122
1.17126
1.1713
1.17136
1.17142
1.1715
1.17159
1.1717
1.17182
1.17196
1.17212
1.1723
1.17251
1.17273
1.17298
1.17325
1.17356
1.17389
1.17425
1.17464
1.17506
1.17552
1.17601
1.17654
1.17711
1.17772
1.17837
1.17907
1.17981
1.1806
1.18145
1.18235
1.18331
1.18434
1.18544
1.18662
1.18789
1.18927
1.19077
1.19241
1.19422
1.19624
1.19852
1.20113
1.20417
1.20781
1.21231
1.21799
1.2253
1.23581
1.25465
1.2853
1.09376
1.09403
1.1003
1.10545
1.10878
1.11117
1.11287
1.11408
1.11497
1.11563
1.11615
1.11655
1.11686
1.11712
1.11732
1.11749
1.11762
1.11773
1.11782
1.11789
1.11795
1.11799
1.11802
1.11805
1.11807
1.11808
1.11808
1.11808
1.11807
1.11806
1.11805
1.11803
1.11801
1.11799
1.11797
1.11794
1.11791
1.11789
1.11786
1.11783
1.1178
1.11778
1.11775
1.11772
1.1177
1.11767
1.11765
1.11763
1.11762
1.1176
1.11759
1.11759
1.11759
1.11759
1.1176
1.11761
1.11763
1.11766
1.11769
1.11773
1.11778
1.11783
1.11789
1.11796
1.11804
1.11813
1.11822
1.11833
1.11844
1.11857
1.1187
1.11885
1.119
1.11917
1.11934
1.11953
1.11972
1.11992
1.12014
1.12036
1.1206
1.12084
1.12109
1.12136
1.12163
1.12191
1.12219
1.12249
1.12279
1.1231
1.12342
1.12374
1.12406
1.12439
1.12473
1.12506
1.1254
1.12574
1.12608
1.12642
1.12676
1.12709
1.12743
1.12776
1.12809
1.12841
1.12873
1.12905
1.12936
1.12966
1.12995
1.13024
1.13052
1.13079
1.13105
1.1313
1.13155
1.13178
1.13201
1.13223
1.13243
1.13263
1.13282
1.13301
1.13318
1.13335
1.13351
1.13366
1.13381
1.13395
1.13408
1.13422
1.13434
1.13447
1.13459
1.1347
1.13482
1.13493
1.13504
1.13514
1.13525
1.13535
1.13546
1.13556
1.13567
1.13577
1.13587
1.13597
1.13608
1.13618
1.13628
1.13639
1.13649
1.1366
1.1367
1.13681
1.13692
1.13703
1.13713
1.13724
1.13735
1.13746
1.13757
1.13768
1.1378
1.13791
1.13802
1.13813
1.13824
1.13836
1.13847
1.13858
1.13869
1.1388
1.13891
1.13902
1.13913
1.13924
1.13935
1.13946
1.13957
1.13968
1.13979
1.1399
1.14001
1.14012
1.14023
1.14033
1.14044
1.14055
1.14066
1.14077
1.14089
1.141
1.14111
1.14123
1.14134
1.14146
1.14158
1.1417
1.14182
1.14195
1.14208
1.14221
1.14234
1.14247
1.14261
1.14274
1.14288
1.14303
1.14317
1.14332
1.14347
1.14362
1.14378
1.14394
1.1441
1.14426
1.14443
1.14459
1.14476
1.14493
1.14511
1.14528
1.14546
1.14564
1.14582
1.146
1.14619
1.14637
1.14656
1.14675
1.14694
1.14713
1.14733
1.14752
1.14772
1.14792
1.14813
1.14833
1.14854
1.14875
1.14897
1.14919
1.14941
1.14963
1.14986
1.15009
1.15033
1.15057
1.15082
1.15107
1.15133
1.15159
1.15186
1.15213
1.15242
1.1527
1.15299
1.15329
1.1536
1.15391
1.15423
1.15455
1.15488
1.15521
1.15555
1.15589
1.15624
1.1566
1.15695
1.15731
1.15767
1.15803
1.1584
1.15876
1.15913
1.15949
1.15985
1.16021
1.16056
1.16092
1.16127
1.16161
1.16195
1.16228
1.16261
1.16293
1.16324
1.16355
1.16385
1.16414
1.16443
1.16471
1.16498
1.16525
1.16551
1.16576
1.16601
1.16625
1.16649
1.16672
1.16694
1.16716
1.16738
1.16759
1.16779
1.16799
1.16818
1.16837
1.16855
1.16873
1.1689
1.16907
1.16923
1.16938
1.16953
1.16967
1.1698
1.16993
1.17005
1.17017
1.17027
1.17037
1.17046
1.17055
1.17062
1.17069
1.17076
1.17081
1.17086
1.17091
1.17094
1.17097
1.171
1.17102
1.17104
1.17105
1.17107
1.17108
1.17108
1.17109
1.1711
1.17111
1.17112
1.17113
1.17115
1.17118
1.17121
1.17124
1.17129
1.17135
1.17141
1.17149
1.17159
1.1717
1.17182
1.17197
1.17213
1.17231
1.17252
1.17274
1.173
1.17327
1.17358
1.17391
1.17428
1.17467
1.1751
1.17556
1.17606
1.1766
1.17717
1.17778
1.17844
1.17914
1.17989
1.18068
1.18153
1.18244
1.18341
1.18444
1.18555
1.18674
1.18802
1.18941
1.19092
1.19257
1.1944
1.19643
1.19872
1.20134
1.20439
1.20798
1.21232
1.21777
1.22483
1.23363
1.24318
1.253
1.10206
1.10136
1.10349
1.10607
1.10868
1.11077
1.11231
1.11348
1.11439
1.1151
1.11566
1.11611
1.11647
1.11676
1.11699
1.11719
1.11735
1.11748
1.11759
1.11768
1.11775
1.11781
1.11785
1.11789
1.11791
1.11793
1.11795
1.11795
1.11795
1.11795
1.11794
1.11793
1.11792
1.1179
1.11788
1.11786
1.11784
1.11781
1.11779
1.11776
1.11774
1.11771
1.11769
1.11766
1.11764
1.11762
1.1176
1.11758
1.11757
1.11756
1.11755
1.11755
1.11755
1.11755
1.11756
1.11758
1.1176
1.11762
1.11766
1.1177
1.11774
1.1178
1.11786
1.11794
1.11802
1.1181
1.1182
1.11831
1.11843
1.11855
1.11869
1.11883
1.11899
1.11916
1.11933
1.11952
1.11971
1.11992
1.12014
1.12036
1.1206
1.12084
1.1211
1.12136
1.12163
1.12192
1.1222
1.1225
1.1228
1.12312
1.12343
1.12375
1.12408
1.12441
1.12475
1.12508
1.12542
1.12576
1.1261
1.12644
1.12678
1.12712
1.12745
1.12778
1.12811
1.12844
1.12876
1.12907
1.12938
1.12968
1.12997
1.13026
1.13053
1.1308
1.13106
1.13131
1.13156
1.13179
1.13201
1.13223
1.13243
1.13263
1.13282
1.133
1.13317
1.13334
1.1335
1.13365
1.13379
1.13393
1.13407
1.1342
1.13433
1.13445
1.13457
1.13468
1.1348
1.13491
1.13502
1.13512
1.13523
1.13533
1.13544
1.13554
1.13565
1.13575
1.13585
1.13595
1.13606
1.13616
1.13627
1.13637
1.13647
1.13658
1.13669
1.13679
1.1369
1.13701
1.13712
1.13723
1.13734
1.13745
1.13756
1.13767
1.13778
1.13789
1.138
1.13812
1.13823
1.13834
1.13845
1.13856
1.13868
1.13879
1.1389
1.13901
1.13912
1.13923
1.13934
1.13945
1.13956
1.13967
1.13978
1.13989
1.13999
1.1401
1.14021
1.14032
1.14043
1.14054
1.14065
1.14076
1.14087
1.14099
1.1411
1.14122
1.14133
1.14145
1.14157
1.14169
1.14181
1.14194
1.14206
1.14219
1.14233
1.14246
1.14259
1.14273
1.14287
1.14302
1.14316
1.14331
1.14346
1.14361
1.14377
1.14393
1.14409
1.14425
1.14442
1.14458
1.14475
1.14492
1.1451
1.14527
1.14545
1.14563
1.14581
1.14599
1.14618
1.14636
1.14655
1.14674
1.14693
1.14712
1.14732
1.14751
1.14771
1.14791
1.14812
1.14832
1.14853
1.14874
1.14896
1.14918
1.1494
1.14962
1.14985
1.15009
1.15032
1.15057
1.15081
1.15107
1.15133
1.15159
1.15186
1.15213
1.15242
1.1527
1.153
1.1533
1.1536
1.15391
1.15423
1.15456
1.15489
1.15522
1.15556
1.15591
1.15626
1.15661
1.15697
1.15733
1.15769
1.15805
1.15842
1.15878
1.15915
1.15951
1.15987
1.16023
1.16059
1.16094
1.16129
1.16163
1.16197
1.1623
1.16263
1.16295
1.16326
1.16357
1.16387
1.16416
1.16445
1.16472
1.165
1.16526
1.16552
1.16577
1.16602
1.16626
1.16649
1.16672
1.16695
1.16717
1.16738
1.16759
1.16779
1.16799
1.16818
1.16837
1.16855
1.16873
1.1689
1.16906
1.16922
1.16938
1.16952
1.16967
1.1698
1.16993
1.17005
1.17016
1.17026
1.17036
1.17045
1.17054
1.17061
1.17068
1.17074
1.1708
1.17085
1.17089
1.17092
1.17096
1.17098
1.171
1.17102
1.17103
1.17104
1.17105
1.17106
1.17107
1.17107
1.17108
1.17109
1.17111
1.17113
1.17115
1.17118
1.17122
1.17127
1.17132
1.17139
1.17147
1.17157
1.17168
1.1718
1.17195
1.17211
1.1723
1.1725
1.17273
1.17299
1.17327
1.17358
1.17391
1.17428
1.17468
1.17511
1.17557
1.17607
1.17661
1.17719
1.1778
1.17846
1.17916
1.17991
1.18071
1.18157
1.18247
1.18344
1.18448
1.18558
1.18677
1.18805
1.18943
1.19093
1.19257
1.19437
1.19637
1.19862
1.20116
1.20407
1.20746
1.21143
1.21608
1.22149
1.22754
1.23247
1.23273
1.10615
1.10565
1.10631
1.10771
1.10937
1.11087
1.11215
1.1132
1.11406
1.11475
1.11531
1.11577
1.11614
1.11645
1.11671
1.11692
1.1171
1.11725
1.11737
1.11748
1.11756
1.11763
1.11769
1.11773
1.11777
1.1178
1.11782
1.11783
1.11784
1.11784
1.11784
1.11783
1.11782
1.11781
1.11779
1.11777
1.11775
1.11773
1.11771
1.11769
1.11767
1.11765
1.11762
1.1176
1.11758
1.11756
1.11754
1.11753
1.11752
1.11751
1.1175
1.1175
1.1175
1.1175
1.11752
1.11753
1.11755
1.11758
1.11762
1.11766
1.11771
1.11776
1.11783
1.1179
1.11798
1.11807
1.11817
1.11828
1.1184
1.11853
1.11866
1.11881
1.11897
1.11913
1.11931
1.1195
1.1197
1.1199
1.12012
1.12035
1.12059
1.12083
1.12109
1.12136
1.12163
1.12191
1.12221
1.1225
1.12281
1.12312
1.12344
1.12377
1.12409
1.12443
1.12476
1.1251
1.12544
1.12578
1.12612
1.12646
1.1268
1.12714
1.12748
1.12781
1.12814
1.12846
1.12878
1.1291
1.1294
1.1297
1.12999
1.13028
1.13056
1.13082
1.13108
1.13133
1.13157
1.1318
1.13203
1.13224
1.13244
1.13264
1.13282
1.133
1.13317
1.13334
1.13349
1.13364
1.13379
1.13393
1.13406
1.13419
1.13431
1.13443
1.13455
1.13467
1.13478
1.13489
1.135
1.1351
1.13521
1.13531
1.13542
1.13552
1.13562
1.13573
1.13583
1.13593
1.13604
1.13614
1.13624
1.13635
1.13645
1.13656
1.13667
1.13677
1.13688
1.13699
1.1371
1.13721
1.13732
1.13743
1.13754
1.13765
1.13776
1.13787
1.13799
1.1381
1.13821
1.13832
1.13843
1.13854
1.13866
1.13877
1.13888
1.13899
1.1391
1.13921
1.13932
1.13943
1.13954
1.13965
1.13976
1.13987
1.13997
1.14008
1.14019
1.1403
1.14041
1.14052
1.14063
1.14074
1.14085
1.14097
1.14108
1.1412
1.14131
1.14143
1.14155
1.14167
1.1418
1.14192
1.14205
1.14218
1.14231
1.14244
1.14258
1.14272
1.14286
1.143
1.14315
1.1433
1.14345
1.1436
1.14375
1.14391
1.14407
1.14424
1.1444
1.14457
1.14474
1.14491
1.14508
1.14526
1.14543
1.14561
1.14579
1.14597
1.14616
1.14634
1.14653
1.14672
1.14691
1.1471
1.1473
1.1475
1.1477
1.1479
1.1481
1.14831
1.14851
1.14873
1.14894
1.14916
1.14938
1.14961
1.14984
1.15007
1.15031
1.15055
1.1508
1.15105
1.15131
1.15158
1.15185
1.15212
1.1524
1.15269
1.15299
1.15329
1.1536
1.15391
1.15423
1.15456
1.15489
1.15522
1.15557
1.15591
1.15626
1.15662
1.15698
1.15734
1.1577
1.15807
1.15844
1.1588
1.15917
1.15953
1.1599
1.16026
1.16061
1.16097
1.16132
1.16166
1.162
1.16233
1.16266
1.16297
1.16329
1.16359
1.16389
1.16418
1.16447
1.16474
1.16502
1.16528
1.16554
1.16579
1.16603
1.16627
1.16651
1.16674
1.16696
1.16718
1.16739
1.1676
1.1678
1.168
1.16819
1.16838
1.16856
1.16873
1.1689
1.16907
1.16923
1.16938
1.16953
1.16967
1.1698
1.16993
1.17005
1.17016
1.17026
1.17036
1.17045
1.17053
1.17061
1.17067
1.17073
1.17079
1.17083
1.17087
1.17091
1.17094
1.17096
1.17098
1.171
1.17101
1.17102
1.17103
1.17103
1.17104
1.17105
1.17105
1.17106
1.17108
1.17109
1.17112
1.17115
1.17118
1.17123
1.17129
1.17136
1.17144
1.17153
1.17164
1.17177
1.17191
1.17208
1.17226
1.17247
1.1727
1.17295
1.17323
1.17354
1.17388
1.17425
1.17465
1.17508
1.17554
1.17604
1.17658
1.17716
1.17778
1.17844
1.17914
1.17989
1.18069
1.18154
1.18244
1.18341
1.18443
1.18553
1.18671
1.18797
1.18933
1.1908
1.1924
1.19415
1.19608
1.19822
1.20061
1.20329
1.20632
1.20974
1.2135
1.21737
1.22086
1.2233
1.22265
1.10882
1.10836
1.10853
1.10927
1.11026
1.11131
1.1123
1.11317
1.11391
1.11454
1.11507
1.11552
1.11589
1.11621
1.11647
1.11669
1.11688
1.11704
1.11718
1.11729
1.11738
1.11746
1.11753
1.11758
1.11763
1.11766
1.11769
1.11771
1.11772
1.11773
1.11773
1.11773
1.11772
1.11771
1.1177
1.11769
1.11767
1.11765
1.11764
1.11762
1.1176
1.11758
1.11755
1.11754
1.11752
1.1175
1.11748
1.11747
1.11746
1.11745
1.11744
1.11744
1.11745
1.11745
1.11746
1.11748
1.1175
1.11753
1.11757
1.11761
1.11766
1.11772
1.11778
1.11786
1.11794
1.11803
1.11813
1.11824
1.11836
1.11849
1.11863
1.11878
1.11894
1.11911
1.11928
1.11947
1.11967
1.11988
1.1201
1.12033
1.12057
1.12082
1.12108
1.12135
1.12162
1.12191
1.1222
1.1225
1.12281
1.12313
1.12345
1.12377
1.1241
1.12444
1.12478
1.12512
1.12546
1.1258
1.12615
1.12649
1.12683
1.12717
1.12751
1.12784
1.12817
1.12849
1.12881
1.12913
1.12943
1.12973
1.13003
1.13031
1.13058
1.13085
1.13111
1.13136
1.1316
1.13183
1.13205
1.13226
1.13246
1.13265
1.13283
1.13301
1.13318
1.13334
1.13349
1.13364
1.13378
1.13392
1.13405
1.13418
1.1343
1.13442
1.13454
1.13465
1.13476
1.13487
1.13498
1.13508
1.13519
1.13529
1.1354
1.1355
1.1356
1.1357
1.13581
1.13591
1.13601
1.13612
1.13622
1.13633
1.13643
1.13654
1.13664
1.13675
1.13686
1.13697
1.13707
1.13718
1.13729
1.1374
1.13752
1.13763
1.13774
1.13785
1.13796
1.13807
1.13819
1.1383
1.13841
1.13852
1.13863
1.13874
1.13885
1.13897
1.13908
1.13919
1.1393
1.13941
1.13951
1.13962
1.13973
1.13984
1.13995
1.14006
1.14017
1.14028
1.14039
1.1405
1.14061
1.14072
1.14083
1.14094
1.14106
1.14117
1.14129
1.14141
1.14153
1.14165
1.14177
1.1419
1.14203
1.14216
1.14229
1.14242
1.14256
1.1427
1.14284
1.14298
1.14313
1.14328
1.14343
1.14358
1.14374
1.14389
1.14405
1.14422
1.14438
1.14455
1.14472
1.14489
1.14506
1.14524
1.14541
1.14559
1.14577
1.14595
1.14614
1.14632
1.14651
1.1467
1.14689
1.14708
1.14728
1.14747
1.14767
1.14787
1.14808
1.14828
1.14849
1.1487
1.14892
1.14913
1.14936
1.14958
1.14981
1.15005
1.15028
1.15053
1.15078
1.15103
1.15129
1.15155
1.15182
1.1521
1.15238
1.15267
1.15297
1.15327
1.15358
1.1539
1.15422
1.15454
1.15488
1.15522
1.15556
1.15591
1.15626
1.15662
1.15698
1.15735
1.15771
1.15808
1.15845
1.15882
1.15919
1.15955
1.15992
1.16028
1.16064
1.16099
1.16134
1.16169
1.16203
1.16236
1.16269
1.16301
1.16332
1.16362
1.16392
1.16421
1.16449
1.16477
1.16504
1.1653
1.16556
1.16581
1.16605
1.16629
1.16653
1.16675
1.16698
1.16719
1.1674
1.16761
1.16781
1.16801
1.1682
1.16839
1.16857
1.16874
1.16891
1.16908
1.16924
1.16939
1.16953
1.16967
1.16981
1.16993
1.17005
1.17016
1.17026
1.17036
1.17045
1.17053
1.1706
1.17067
1.17073
1.17078
1.17082
1.17086
1.1709
1.17092
1.17095
1.17096
1.17098
1.17099
1.171
1.171
1.17101
1.17101
1.17101
1.17102
1.17103
1.17104
1.17106
1.17108
1.17111
1.17114
1.17119
1.17124
1.17131
1.17139
1.17148
1.17159
1.17171
1.17186
1.17202
1.1722
1.17241
1.17264
1.17289
1.17317
1.17348
1.17382
1.17419
1.17458
1.17502
1.17548
1.17598
1.17652
1.1771
1.17771
1.17837
1.17907
1.17982
1.18061
1.18145
1.18235
1.1833
1.18432
1.1854
1.18655
1.18779
1.18911
1.19054
1.19208
1.19375
1.19558
1.19757
1.19976
1.20217
1.20479
1.20759
1.21045
1.21317
1.21527
1.21637
1.21612
1.11066
1.11019
1.11019
1.11057
1.11117
1.11188
1.11261
1.1133
1.11392
1.11447
1.11495
1.11536
1.11572
1.11602
1.11628
1.11651
1.1167
1.11686
1.117
1.11712
1.11722
1.11731
1.11738
1.11744
1.11749
1.11753
1.11756
1.11759
1.11761
1.11762
1.11763
1.11763
1.11763
1.11762
1.11761
1.1176
1.11759
1.11758
1.11756
1.11754
1.11752
1.11751
1.11749
1.11747
1.11745
1.11744
1.11742
1.11741
1.1174
1.11739
1.11739
1.11739
1.11739
1.1174
1.11741
1.11743
1.11745
1.11748
1.11752
1.11756
1.11761
1.11767
1.11773
1.11781
1.11789
1.11798
1.11809
1.1182
1.11832
1.11845
1.11859
1.11874
1.1189
1.11907
1.11925
1.11944
1.11964
1.11985
1.12007
1.1203
1.12054
1.12079
1.12105
1.12132
1.1216
1.12189
1.12219
1.12249
1.1228
1.12312
1.12345
1.12378
1.12411
1.12445
1.12479
1.12513
1.12548
1.12582
1.12617
1.12651
1.12686
1.1272
1.12754
1.12787
1.1282
1.12853
1.12885
1.12916
1.12947
1.12977
1.13006
1.13035
1.13062
1.13089
1.13114
1.13139
1.13163
1.13185
1.13207
1.13228
1.13248
1.13267
1.13285
1.13302
1.13319
1.13335
1.1335
1.13364
1.13378
1.13391
1.13404
1.13417
1.13429
1.13441
1.13452
1.13463
1.13474
1.13485
1.13496
1.13506
1.13517
1.13527
1.13537
1.13548
1.13558
1.13568
1.13578
1.13588
1.13599
1.13609
1.13619
1.1363
1.1364
1.13651
1.13662
1.13672
1.13683
1.13694
1.13705
1.13716
1.13727
1.13738
1.13749
1.1376
1.13771
1.13782
1.13793
1.13805
1.13816
1.13827
1.13838
1.13849
1.1386
1.13871
1.13883
1.13894
1.13905
1.13916
1.13927
1.13938
1.13948
1.13959
1.1397
1.13981
1.13992
1.14003
1.14014
1.14025
1.14036
1.14047
1.14058
1.14069
1.1408
1.14092
1.14103
1.14115
1.14126
1.14138
1.1415
1.14162
1.14175
1.14187
1.142
1.14213
1.14226
1.1424
1.14253
1.14267
1.14281
1.14296
1.1431
1.14325
1.1434
1.14355
1.14371
1.14387
1.14403
1.14419
1.14436
1.14452
1.14469
1.14486
1.14503
1.14521
1.14539
1.14556
1.14574
1.14593
1.14611
1.14629
1.14648
1.14667
1.14686
1.14705
1.14725
1.14744
1.14764
1.14784
1.14804
1.14825
1.14846
1.14867
1.14888
1.1491
1.14932
1.14955
1.14978
1.15001
1.15025
1.15049
1.15074
1.151
1.15125
1.15152
1.15179
1.15207
1.15235
1.15264
1.15294
1.15324
1.15355
1.15387
1.15419
1.15452
1.15486
1.1552
1.15554
1.1559
1.15625
1.15661
1.15698
1.15734
1.15771
1.15808
1.15846
1.15883
1.1592
1.15957
1.15994
1.1603
1.16066
1.16102
1.16137
1.16172
1.16206
1.16239
1.16272
1.16304
1.16335
1.16366
1.16395
1.16424
1.16453
1.1648
1.16507
1.16533
1.16559
1.16584
1.16608
1.16632
1.16655
1.16678
1.167
1.16721
1.16742
1.16763
1.16783
1.16803
1.16822
1.1684
1.16858
1.16876
1.16893
1.16909
1.16925
1.1694
1.16955
1.16969
1.16982
1.16994
1.17006
1.17017
1.17027
1.17037
1.17045
1.17053
1.1706
1.17067
1.17073
1.17078
1.17082
1.17086
1.17089
1.17091
1.17093
1.17095
1.17096
1.17097
1.17097
1.17098
1.17098
1.17098
1.17098
1.17098
1.17099
1.171
1.17101
1.17103
1.17106
1.17109
1.17113
1.17118
1.17125
1.17132
1.17141
1.17152
1.17164
1.17178
1.17194
1.17213
1.17233
1.17256
1.17281
1.17309
1.17339
1.17373
1.17409
1.17449
1.17492
1.17538
1.17588
1.17642
1.17699
1.1776
1.17826
1.17895
1.17969
1.18048
1.18131
1.18219
1.18313
1.18413
1.18519
1.18631
1.18751
1.18879
1.19016
1.19162
1.1932
1.1949
1.19673
1.19869
1.20079
1.203
1.20524
1.20739
1.20926
1.2106
1.21114
1.21093
1.11195
1.11153
1.11144
1.11162
1.11198
1.11246
1.11299
1.11352
1.11403
1.11449
1.11491
1.11528
1.1156
1.11589
1.11614
1.11636
1.11655
1.11671
1.11685
1.11697
1.11708
1.11717
1.11724
1.11731
1.11736
1.11741
1.11744
1.11747
1.11749
1.11751
1.11752
1.11753
1.11753
1.11753
1.11752
1.11752
1.1175
1.11749
1.11748
1.11746
1.11745
1.11743
1.11741
1.1174
1.11738
1.11737
1.11735
1.11734
1.11733
1.11733
1.11732
1.11732
1.11733
1.11734
1.11735
1.11737
1.11739
1.11742
1.11746
1.1175
1.11755
1.11761
1.11768
1.11775
1.11784
1.11793
1.11803
1.11814
1.11826
1.1184
1.11854
1.11869
1.11885
1.11902
1.1192
1.11939
1.1196
1.11981
1.12003
1.12027
1.12051
1.12076
1.12103
1.1213
1.12158
1.12187
1.12217
1.12248
1.12279
1.12311
1.12344
1.12377
1.12411
1.12445
1.1248
1.12514
1.12549
1.12584
1.12619
1.12654
1.12688
1.12723
1.12757
1.1279
1.12824
1.12856
1.12889
1.1292
1.12951
1.12981
1.1301
1.13039
1.13066
1.13093
1.13118
1.13143
1.13166
1.13189
1.1321
1.13231
1.1325
1.13269
1.13287
1.13304
1.1332
1.13336
1.1335
1.13365
1.13378
1.13391
1.13404
1.13416
1.13428
1.13439
1.13451
1.13462
1.13473
1.13483
1.13494
1.13504
1.13514
1.13525
1.13535
1.13545
1.13555
1.13565
1.13575
1.13586
1.13596
1.13606
1.13617
1.13627
1.13637
1.13648
1.13659
1.13669
1.1368
1.13691
1.13702
1.13713
1.13724
1.13735
1.13746
1.13757
1.13768
1.13779
1.1379
1.13801
1.13812
1.13824
1.13835
1.13846
1.13857
1.13868
1.13879
1.1389
1.13901
1.13912
1.13923
1.13934
1.13945
1.13956
1.13967
1.13978
1.13989
1.14
1.1401
1.14021
1.14032
1.14043
1.14054
1.14066
1.14077
1.14088
1.141
1.14111
1.14123
1.14135
1.14147
1.14159
1.14172
1.14184
1.14197
1.1421
1.14223
1.14237
1.1425
1.14264
1.14278
1.14293
1.14307
1.14322
1.14337
1.14353
1.14368
1.14384
1.144
1.14416
1.14433
1.14449
1.14466
1.14483
1.145
1.14518
1.14535
1.14553
1.14571
1.14589
1.14608
1.14626
1.14645
1.14664
1.14683
1.14702
1.14721
1.14741
1.1476
1.1478
1.14801
1.14821
1.14842
1.14863
1.14884
1.14906
1.14928
1.14951
1.14974
1.14997
1.15021
1.15045
1.1507
1.15095
1.15121
1.15148
1.15175
1.15203
1.15231
1.1526
1.1529
1.15321
1.15352
1.15383
1.15416
1.15449
1.15483
1.15517
1.15552
1.15588
1.15623
1.1566
1.15697
1.15734
1.15771
1.15808
1.15846
1.15884
1.15921
1.15959
1.15996
1.16033
1.16069
1.16105
1.1614
1.16175
1.16209
1.16243
1.16276
1.16308
1.16339
1.16369
1.16399
1.16428
1.16456
1.16484
1.16511
1.16537
1.16562
1.16587
1.16611
1.16635
1.16658
1.1668
1.16702
1.16724
1.16745
1.16765
1.16785
1.16805
1.16824
1.16842
1.1686
1.16878
1.16895
1.16911
1.16927
1.16942
1.16956
1.1697
1.16983
1.16996
1.17007
1.17018
1.17028
1.17038
1.17046
1.17054
1.17061
1.17067
1.17073
1.17077
1.17081
1.17085
1.17088
1.1709
1.17092
1.17093
1.17094
1.17094
1.17095
1.17095
1.17095
1.17094
1.17094
1.17094
1.17095
1.17095
1.17096
1.17098
1.171
1.17103
1.17107
1.17112
1.17118
1.17125
1.17134
1.17144
1.17156
1.1717
1.17185
1.17203
1.17223
1.17246
1.17271
1.17298
1.17328
1.17362
1.17398
1.17437
1.1748
1.17526
1.17575
1.17628
1.17685
1.17746
1.1781
1.17879
1.17952
1.18029
1.18111
1.18198
1.1829
1.18387
1.1849
1.18599
1.18715
1.18837
1.18967
1.19105
1.19252
1.19408
1.19573
1.19747
1.19927
1.2011
1.20287
1.20449
1.2058
1.20666
1.20696
1.20666
1.11287
1.11252
1.11239
1.11246
1.11268
1.113
1.11338
1.11379
1.11419
1.11457
1.11493
1.11525
1.11554
1.11581
1.11604
1.11625
1.11643
1.11659
1.11672
1.11685
1.11695
1.11704
1.11712
1.11719
1.11725
1.11729
1.11733
1.11736
1.11739
1.11741
1.11742
1.11743
1.11744
1.11744
1.11744
1.11743
1.11742
1.11741
1.1174
1.11739
1.11737
1.11736
1.11734
1.11733
1.11731
1.1173
1.11729
1.11728
1.11727
1.11726
1.11726
1.11726
1.11727
1.11727
1.11729
1.11731
1.11733
1.11736
1.1174
1.11744
1.11749
1.11755
1.11762
1.11769
1.11778
1.11787
1.11797
1.11809
1.11821
1.11834
1.11848
1.11863
1.11879
1.11897
1.11915
1.11934
1.11955
1.11976
1.11999
1.12022
1.12047
1.12072
1.12099
1.12126
1.12155
1.12184
1.12214
1.12245
1.12277
1.1231
1.12343
1.12377
1.12411
1.12445
1.1248
1.12515
1.1255
1.12586
1.12621
1.12656
1.12691
1.12725
1.1276
1.12794
1.12827
1.1286
1.12892
1.12924
1.12955
1.12985
1.13015
1.13043
1.1307
1.13097
1.13122
1.13147
1.1317
1.13193
1.13214
1.13234
1.13254
1.13272
1.13289
1.13306
1.13322
1.13337
1.13351
1.13365
1.13378
1.13391
1.13404
1.13415
1.13427
1.13438
1.13449
1.1346
1.13471
1.13481
1.13492
1.13502
1.13512
1.13522
1.13532
1.13542
1.13552
1.13562
1.13573
1.13583
1.13593
1.13603
1.13613
1.13624
1.13634
1.13645
1.13655
1.13666
1.13677
1.13687
1.13698
1.13709
1.1372
1.13731
1.13742
1.13753
1.13764
1.13775
1.13786
1.13798
1.13809
1.1382
1.13831
1.13842
1.13853
1.13864
1.13875
1.13886
1.13897
1.13908
1.13919
1.1393
1.13941
1.13952
1.13963
1.13974
1.13985
1.13995
1.14006
1.14017
1.14028
1.14039
1.1405
1.14062
1.14073
1.14084
1.14096
1.14107
1.14119
1.14131
1.14143
1.14155
1.14168
1.1418
1.14193
1.14206
1.1422
1.14233
1.14247
1.14261
1.14275
1.14289
1.14304
1.14319
1.14334
1.14349
1.14365
1.1438
1.14396
1.14413
1.14429
1.14446
1.14463
1.1448
1.14497
1.14514
1.14532
1.1455
1.14567
1.14586
1.14604
1.14622
1.14641
1.1466
1.14678
1.14698
1.14717
1.14736
1.14756
1.14776
1.14796
1.14816
1.14837
1.14858
1.14879
1.14901
1.14923
1.14946
1.14968
1.14992
1.15015
1.1504
1.15065
1.1509
1.15116
1.15142
1.1517
1.15197
1.15226
1.15255
1.15285
1.15316
1.15347
1.15379
1.15411
1.15445
1.15479
1.15513
1.15549
1.15584
1.15621
1.15657
1.15694
1.15732
1.1577
1.15808
1.15846
1.15884
1.15922
1.1596
1.15997
1.16034
1.16071
1.16108
1.16143
1.16178
1.16213
1.16247
1.1628
1.16312
1.16343
1.16374
1.16403
1.16432
1.1646
1.16488
1.16514
1.1654
1.16566
1.1659
1.16614
1.16638
1.16661
1.16683
1.16705
1.16726
1.16747
1.16768
1.16788
1.16807
1.16826
1.16845
1.16863
1.1688
1.16897
1.16913
1.16929
1.16944
1.16958
1.16972
1.16985
1.16997
1.17009
1.1702
1.1703
1.17039
1.17047
1.17055
1.17062
1.17068
1.17073
1.17078
1.17081
1.17085
1.17087
1.17089
1.17091
1.17092
1.17092
1.17092
1.17092
1.17092
1.17091
1.17091
1.1709
1.1709
1.1709
1.1709
1.17091
1.17092
1.17094
1.17096
1.171
1.17104
1.1711
1.17116
1.17125
1.17135
1.17146
1.17159
1.17175
1.17192
1.17212
1.17234
1.17258
1.17285
1.17315
1.17348
1.17383
1.17422
1.17464
1.17509
1.17558
1.17611
1.17667
1.17727
1.1779
1.17858
1.1793
1.18006
1.18086
1.18171
1.18261
1.18355
1.18455
1.18559
1.1867
1.18786
1.18909
1.19038
1.19173
1.19315
1.19463
1.19614
1.19768
1.19918
1.20058
1.2018
1.20274
1.20331
1.20346
1.20314
1.11357
1.11327
1.11313
1.11313
1.11326
1.11347
1.11375
1.11405
1.11437
1.11468
1.11498
1.11526
1.11552
1.11576
1.11597
1.11616
1.11633
1.11648
1.11662
1.11673
1.11684
1.11693
1.11701
1.11708
1.11713
1.11718
1.11722
1.11726
1.11729
1.11731
1.11732
1.11734
1.11734
1.11735
1.11735
1.11734
1.11734
1.11733
1.11732
1.11731
1.1173
1.11728
1.11727
1.11726
1.11724
1.11723
1.11722
1.11721
1.1172
1.1172
1.11719
1.11719
1.1172
1.11721
1.11722
1.11724
1.11726
1.1173
1.11733
1.11738
1.11743
1.11749
1.11755
1.11763
1.11771
1.11781
1.11791
1.11802
1.11814
1.11828
1.11842
1.11857
1.11874
1.11891
1.11909
1.11929
1.11949
1.11971
1.11994
1.12017
1.12042
1.12068
1.12095
1.12123
1.12151
1.12181
1.12211
1.12243
1.12275
1.12308
1.12342
1.12376
1.1241
1.12445
1.1248
1.12516
1.12551
1.12587
1.12623
1.12658
1.12693
1.12728
1.12763
1.12797
1.12831
1.12864
1.12897
1.12928
1.1296
1.1299
1.13019
1.13048
1.13075
1.13102
1.13127
1.13151
1.13175
1.13197
1.13218
1.13238
1.13257
1.13275
1.13292
1.13308
1.13324
1.13338
1.13352
1.13366
1.13379
1.13391
1.13403
1.13415
1.13426
1.13437
1.13448
1.13458
1.13469
1.13479
1.13489
1.13499
1.13509
1.13519
1.13529
1.13539
1.13549
1.13559
1.13569
1.13579
1.13589
1.136
1.1361
1.1362
1.13631
1.13641
1.13652
1.13662
1.13673
1.13684
1.13694
1.13705
1.13716
1.13727
1.13738
1.13749
1.1376
1.13771
1.13782
1.13793
1.13805
1.13816
1.13827
1.13838
1.13849
1.1386
1.13871
1.13882
1.13893
1.13904
1.13915
1.13926
1.13937
1.13947