# vtk DataFile Version 2.0
LBE mesh
ASCII
DATASET STRUCTURED_POINTS
DIMENSIONS 400 100 1
ASPECT_RATIO 1 1 1
ORIGIN 0 0 0
POINT_DATA 40000
SCALARS rho double 1
LOOKUP_TABLE default
1.08822
1.15706
1.17725
1.18159
1.18376
1.18559
1.18692
1.18779
1.18838
1.18882
1.18916
1.18942
1.18963
1.18979
1.18993
1.19003
1.19012
1.19019
1.19024
1.19028
1.19031
1.19033
1.19035
1.19035
1.19035
1.19034
1.19032
1.1903
1.19028
1.19025
1.19021
1.19018
1.19013
1.19009
1.19004
1.18998
1.18993
1.18987
1.18981
1.18975
1.18968
1.18961
1.18955
1.18948
1.18941
1.18933
1.18926
1.18919
1.18912
1.18905
1.18898
1.18892
1.18885
1.18879
1.18873
1.18867
1.18862
1.18857
1.18853
1.18849
1.18845
1.18843
1.1884
1.18839
1.18838
1.18838
1.18838
1.1884
1.18842
1.18845
1.18849
1.18853
1.18859
1.18865
1.18872
1.1888
1.18889
1.18899
1.18909
1.18921
1.18933
1.18946
1.1896
1.18974
1.1899
1.19006
1.19022
1.1904
1.19057
1.19076
1.19094
1.19114
1.19133
1.19153
1.19173
1.19193
1.19213
1.19234
1.19254
1.19274
1.19294
1.19314
1.19333
1.19352
1.19371
1.19389
1.19407
1.19424
1.1944
1.19456
1.1947
1.19484
1.19497
1.1951
1.19521
1.19531
1.1954
1.19548
1.19555
1.19561
1.19566
1.19569
1.19572
1.19574
1.19575
1.19575
1.19574
1.19572
1.1957
1.19567
1.19563
1.19559
1.19554
1.19548
1.19543
1.19537
1.1953
1.19523
1.19516
1.19509
1.19502
1.19495
1.19487
1.1948
1.19472
1.19465
1.19457
1.1945
1.19442
1.19435
1.19428
1.1942
1.19413
1.19406
1.19399
1.19393
1.19386
1.19379
1.19373
1.19367
1.19361
1.19355
1.19349
1.19343
1.19337
1.19332
1.19326
1.19321
1.19316
1.19311
1.19306
1.19301
1.19296
1.19291
1.19287
1.19282
1.19278
1.19273
1.19269
1.19265
1.1926
1.19256
1.19252
1.19248
1.19244
1.1924
1.19236
1.19232
1.19229
1.19225
1.19221
1.19217
1.19214
1.1921
1.19206
1.19203
1.19199
1.19195
1.19192
1.19188
1.19185
1.19181
1.19177
1.19174
1.1917
1.19167
1.19163
1.1916
1.19156
1.19152
1.19149
1.19145
1.19142
1.19139
1.19135
1.19132
1.19129
1.19125
1.19122
1.19119
1.19116
1.19113
1.19111
1.19108
1.19106
1.19104
1.19102
1.191
1.19098
1.19097
1.19096
1.19096
1.19096
1.19096
1.19096
1.19097
1.19099
1.19101
1.19103
1.19106
1.1911
1.19114
1.19119
1.19125
1.19131
1.19138
1.19146
1.19154
1.19164
1.19174
1.19185
1.19196
1.19209
1.19223
1.19237
1.19252
1.19268
1.19285
1.19303
1.19321
1.19341
1.19361
1.19382
1.19403
1.19426
1.19448
1.19472
1.19496
1.1952
1.19545
1.1957
1.19596
1.19621
1.19647
1.19672
1.19698
1.19723
1.19748
1.19773
1.19798
1.19822
1.19845
1.19868
1.1989
1.19912
1.19933
1.19953
1.19972
1.19991
1.20009
1.20026
1.20042
1.20058
1.20073
1.20087
1.201
1.20113
1.20125
1.20137
1.20148
1.20158
1.20168
1.20178
1.20187
1.20196
1.20205
1.20213
1.20221
1.20229
1.20236
1.20243
1.2025
1.20257
1.20263
1.20269
1.20275
1.20281
1.20286
1.20292
1.20296
1.20301
1.20305
1.20309
1.20313
1.20316
1.20319
1.20322
1.20324
1.20326
1.20328
1.2033
1.20332
1.20333
1.20335
1.20336
1.20338
1.2034
1.20341
1.20343
1.20346
1.20349
1.20352
1.20356
1.2036
1.20365
1.20371
1.20379
1.20387
1.20396
1.20406
1.20418
1.20431
1.20446
1.20463
1.20481
1.20501
1.20523
1.20547
1.20573
1.20601
1.20632
1.20665
1.207
1.20739
1.20779
1.20823
1.2087
1.20919
1.20972
1.21028
1.21087
1.2115
1.21216
1.21286
1.2136
1.21439
1.21521
1.21608
1.21701
1.21798
1.21901
1.22011
1.22128
1.22253
1.22386
1.2253
1.22685
1.22854
1.23039
1.23245
1.23474
1.23736
1.24038
1.24394
1.24829
1.25391
1.26168
1.27261
1.28921
1.32403
1.14529
1.15557
1.16715
1.17643
1.18128
1.18378
1.18536
1.1865
1.18735
1.18797
1.18844
1.18881
1.1891
1.18933
1.18952
1.18967
1.18979
1.18989
1.18998
1.19004
1.19009
1.19013
1.19016
1.19017
1.19018
1.19019
1.19018
1.19017
1.19015
1.19013
1.1901
1.19007
1.19003
1.18999
1.18995
1.1899
1.18985
1.18979
1.18973
1.18967
1.18961
1.18955
1.18948
1.18942
1.18935
1.18928
1.18921
1.18914
1.18908
1.18901
1.18894
1.18888
1.18881
1.18875
1.1887
1.18864
1.18859
1.18855
1.1885
1.18847
1.18844
1.18841
1.18839
1.18838
1.18837
1.18837
1.18838
1.1884
1.18842
1.18845
1.18849
1.18854
1.1886
1.18866
1.18873
1.18882
1.18891
1.18901
1.18911
1.18923
1.18935
1.18948
1.18962
1.18977
1.18992
1.19008
1.19025
1.19042
1.1906
1.19078
1.19097
1.19116
1.19136
1.19156
1.19176
1.19196
1.19216
1.19236
1.19256
1.19276
1.19296
1.19316
1.19335
1.19354
1.19373
1.19391
1.19408
1.19425
1.19441
1.19456
1.19471
1.19484
1.19497
1.19509
1.1952
1.1953
1.19539
1.19547
1.19554
1.19559
1.19564
1.19568
1.1957
1.19572
1.19573
1.19573
1.19572
1.1957
1.19567
1.19564
1.1956
1.19556
1.19551
1.19546
1.1954
1.19534
1.19527
1.19521
1.19514
1.19507
1.195
1.19492
1.19485
1.19477
1.1947
1.19462
1.19455
1.19448
1.1944
1.19433
1.19426
1.19419
1.19412
1.19405
1.19398
1.19391
1.19385
1.19378
1.19372
1.19366
1.1936
1.19354
1.19348
1.19342
1.19336
1.19331
1.19326
1.1932
1.19315
1.1931
1.19305
1.193
1.19295
1.19291
1.19286
1.19282
1.19277
1.19273
1.19268
1.19264
1.1926
1.19256
1.19252
1.19248
1.19244
1.1924
1.19236
1.19232
1.19228
1.19225
1.19221
1.19217
1.19214
1.1921
1.19206
1.19203
1.19199
1.19195
1.19192
1.19188
1.19185
1.19181
1.19177
1.19174
1.1917
1.19167
1.19163
1.1916
1.19156
1.19152
1.19149
1.19146
1.19142
1.19139
1.19135
1.19132
1.19129
1.19125
1.19122
1.19119
1.19116
1.19114
1.19111
1.19108
1.19106
1.19104
1.19102
1.191
1.19099
1.19098
1.19097
1.19096
1.19096
1.19097
1.19097
1.19098
1.191
1.19102
1.19105
1.19108
1.19111
1.19116
1.19121
1.19126
1.19133
1.1914
1.19148
1.19156
1.19166
1.19176
1.19187
1.19199
1.19212
1.19225
1.1924
1.19255
1.19271
1.19288
1.19306
1.19325
1.19344
1.19364
1.19385
1.19407
1.19429
1.19452
1.19475
1.19499
1.19524
1.19549
1.19574
1.19599
1.19624
1.1965
1.19675
1.19701
1.19726
1.19751
1.19776
1.198
1.19824
1.19847
1.1987
1.19892
1.19914
1.19934
1.19954
1.19973
1.19992
1.2001
1.20027
1.20043
1.20058
1.20073
1.20087
1.201
1.20113
1.20125
1.20137
1.20148
1.20158
1.20168
1.20178
1.20187
1.20196
1.20205
1.20213
1.20221
1.20228
1.20236
1.20243
1.2025
1.20256
1.20263
1.20269
1.20275
1.2028
1.20286
1.20291
1.20296
1.203
1.20304
1.20308
1.20312
1.20315
1.20318
1.20321
1.20323
1.20325
1.20327
1.20329
1.20331
1.20332
1.20334
1.20335
1.20337
1.20339
1.2034
1.20343
1.20345
1.20348
1.20351
1.20355
1.2036
1.20365
1.20372
1.20379
1.20387
1.20397
1.20408
1.2042
1.20433
1.20448
1.20465
1.20483
1.20504
1.20526
1.2055
1.20577
1.20605
1.20636
1.2067
1.20706
1.20744
1.20786
1.2083
1.20877
1.20927
1.2098
1.21036
1.21096
1.21159
1.21226
1.21297
1.21372
1.21451
1.21534
1.21622
1.21715
1.21814
1.21918
1.22029
1.22148
1.22274
1.2241
1.22556
1.22715
1.22888
1.23078
1.2329
1.23529
1.23802
1.2412
1.245
1.24969
1.25561
1.26334
1.27473
1.29447
1.32529
1.16451
1.16325
1.1702
1.17599
1.17965
1.18228
1.18418
1.18552
1.1865
1.18724
1.18781
1.18826
1.18862
1.1889
1.18914
1.18933
1.18949
1.18962
1.18972
1.18981
1.18988
1.18993
1.18997
1.19
1.19003
1.19004
1.19004
1.19004
1.19003
1.19001
1.18999
1.18996
1.18993
1.1899
1.18986
1.18981
1.18977
1.18971
1.18966
1.1896
1.18955
1.18948
1.18942
1.18936
1.18929
1.18923
1.18916
1.18909
1.18903
1.18896
1.1889
1.18884
1.18878
1.18872
1.18866
1.18861
1.18856
1.18852
1.18848
1.18844
1.18841
1.18839
1.18837
1.18836
1.18836
1.18836
1.18837
1.18839
1.18841
1.18845
1.18849
1.18854
1.1886
1.18866
1.18874
1.18882
1.18892
1.18902
1.18913
1.18924
1.18937
1.1895
1.18964
1.18979
1.18994
1.19011
1.19027
1.19045
1.19063
1.19081
1.191
1.19119
1.19139
1.19158
1.19178
1.19198
1.19219
1.19239
1.19259
1.19279
1.19299
1.19318
1.19338
1.19356
1.19375
1.19393
1.1941
1.19426
1.19442
1.19458
1.19472
1.19486
1.19498
1.1951
1.19521
1.1953
1.19539
1.19547
1.19553
1.19559
1.19563
1.19567
1.19569
1.19571
1.19571
1.19571
1.1957
1.19568
1.19565
1.19562
1.19558
1.19554
1.19549
1.19543
1.19538
1.19531
1.19525
1.19518
1.19511
1.19504
1.19497
1.1949
1.19483
1.19475
1.19468
1.1946
1.19453
1.19446
1.19438
1.19431
1.19424
1.19417
1.1941
1.19403
1.19396
1.1939
1.19383
1.19377
1.19371
1.19364
1.19358
1.19352
1.19347
1.19341
1.19335
1.1933
1.19325
1.19319
1.19314
1.19309
1.19304
1.193
1.19295
1.1929
1.19286
1.19281
1.19277
1.19272
1.19268
1.19264
1.1926
1.19256
1.19252
1.19248
1.19244
1.1924
1.19236
1.19232
1.19228
1.19225
1.19221
1.19217
1.19214
1.1921
1.19206
1.19203
1.19199
1.19195
1.19192
1.19188
1.19185
1.19181
1.19178
1.19174
1.1917
1.19167
1.19163
1.1916
1.19156
1.19153
1.19149
1.19146
1.19142
1.19139
1.19135
1.19132
1.19129
1.19126
1.19122
1.19119
1.19117
1.19114
1.19111
1.19109
1.19106
1.19104
1.19102
1.19101
1.19099
1.19098
1.19097
1.19097
1.19097
1.19097
1.19098
1.19099
1.191
1.19103
1.19105
1.19108
1.19112
1.19117
1.19122
1.19127
1.19134
1.19141
1.19149
1.19158
1.19167
1.19178
1.19189
1.19201
1.19213
1.19227
1.19242
1.19257
1.19273
1.1929
1.19308
1.19327
1.19347
1.19367
1.19388
1.1941
1.19432
1.19455
1.19479
1.19503
1.19527
1.19552
1.19577
1.19602
1.19628
1.19653
1.19679
1.19704
1.19729
1.19754
1.19779
1.19803
1.19827
1.1985
1.19873
1.19895
1.19916
1.19937
1.19956
1.19976
1.19994
1.20011
1.20028
1.20044
1.2006
1.20074
1.20088
1.20101
1.20114
1.20126
1.20137
1.20148
1.20159
1.20169
1.20178
1.20187
1.20196
1.20205
1.20213
1.20221
1.20229
1.20236
1.20243
1.2025
1.20257
1.20263
1.20269
1.20275
1.2028
1.20286
1.20291
1.20295
1.203
1.20304
1.20308
1.20311
1.20315
1.20318
1.2032
1.20323
1.20325
1.20327
1.20328
1.2033
1.20332
1.20333
1.20335
1.20336
1.20338
1.2034
1.20342
1.20344
1.20347
1.20351
1.20355
1.20359
1.20365
1.20371
1.20379
1.20387
1.20397
1.20408
1.2042
1.20434
1.20449
1.20466
1.20484
1.20505
1.20528
1.20552
1.20579
1.20608
1.20639
1.20673
1.20709
1.20748
1.2079
1.20834
1.20881
1.20932
1.20985
1.21042
1.21102
1.21166
1.21233
1.21304
1.21379
1.21458
1.21542
1.21631
1.21724
1.21823
1.21929
1.2204
1.22159
1.22287
1.22423
1.2257
1.2273
1.22904
1.23096
1.2331
1.2355
1.23824
1.24142
1.24518
1.24971
1.2554
1.26276
1.27203
1.2821
1.29127
1.17262
1.17174
1.17398
1.17667
1.17956
1.18188
1.18359
1.18489
1.18589
1.18668
1.18731
1.1878
1.1882
1.18853
1.1888
1.18902
1.18921
1.18936
1.18949
1.18959
1.18968
1.18975
1.1898
1.18984
1.18988
1.1899
1.18991
1.18991
1.18991
1.1899
1.18989
1.18987
1.18984
1.18981
1.18977
1.18973
1.18969
1.18964
1.18959
1.18953
1.18948
1.18942
1.18936
1.1893
1.18924
1.18917
1.18911
1.18904
1.18898
1.18892
1.18885
1.18879
1.18873
1.18868
1.18862
1.18857
1.18853
1.18848
1.18845
1.18841
1.18839
1.18836
1.18835
1.18834
1.18834
1.18834
1.18835
1.18837
1.1884
1.18844
1.18848
1.18853
1.18859
1.18866
1.18874
1.18882
1.18892
1.18902
1.18913
1.18925
1.18938
1.18951
1.18965
1.1898
1.18996
1.19012
1.19029
1.19047
1.19065
1.19083
1.19102
1.19121
1.19141
1.19161
1.19181
1.19201
1.19221
1.19242
1.19262
1.19282
1.19302
1.19321
1.1934
1.19359
1.19377
1.19395
1.19412
1.19429
1.19445
1.1946
1.19474
1.19487
1.195
1.19511
1.19522
1.19531
1.1954
1.19547
1.19554
1.19559
1.19563
1.19566
1.19569
1.1957
1.1957
1.1957
1.19569
1.19566
1.19564
1.1956
1.19556
1.19552
1.19547
1.19541
1.19535
1.19529
1.19523
1.19516
1.19509
1.19502
1.19495
1.19488
1.1948
1.19473
1.19466
1.19458
1.19451
1.19444
1.19436
1.19429
1.19422
1.19415
1.19408
1.19401
1.19395
1.19388
1.19382
1.19375
1.19369
1.19363
1.19357
1.19351
1.19346
1.1934
1.19334
1.19329
1.19324
1.19319
1.19314
1.19309
1.19304
1.19299
1.19294
1.1929
1.19285
1.19281
1.19276
1.19272
1.19268
1.19264
1.1926
1.19256
1.19252
1.19248
1.19244
1.1924
1.19236
1.19232
1.19229
1.19225
1.19221
1.19218
1.19214
1.1921
1.19207
1.19203
1.19199
1.19196
1.19192
1.19189
1.19185
1.19181
1.19178
1.19174
1.19171
1.19167
1.19164
1.1916
1.19156
1.19153
1.19149
1.19146
1.19142
1.19139
1.19135
1.19132
1.19129
1.19126
1.19122
1.19119
1.19117
1.19114
1.19111
1.19109
1.19106
1.19104
1.19102
1.19101
1.19099
1.19098
1.19097
1.19097
1.19097
1.19097
1.19098
1.19099
1.191
1.19103
1.19105
1.19109
1.19112
1.19117
1.19122
1.19128
1.19134
1.19142
1.1915
1.19158
1.19168
1.19178
1.1919
1.19202
1.19215
1.19228
1.19243
1.19259
1.19275
1.19292
1.1931
1.19329
1.19349
1.19369
1.1939
1.19412
1.19435
1.19458
1.19481
1.19506
1.1953
1.19555
1.1958
1.19606
1.19631
1.19657
1.19682
1.19708
1.19733
1.19758
1.19783
1.19807
1.19831
1.19854
1.19876
1.19898
1.19919
1.1994
1.1996
1.19978
1.19997
1.20014
1.20031
1.20047
1.20062
1.20076
1.2009
1.20103
1.20115
1.20127
1.20139
1.2015
1.2016
1.2017
1.20179
1.20188
1.20197
1.20206
1.20214
1.20222
1.20229
1.20237
1.20244
1.20251
1.20257
1.20264
1.2027
1.20275
1.20281
1.20286
1.20291
1.20296
1.203
1.20304
1.20308
1.20312
1.20315
1.20318
1.2032
1.20323
1.20325
1.20326
1.20328
1.2033
1.20331
1.20332
1.20334
1.20335
1.20337
1.20339
1.20341
1.20343
1.20346
1.2035
1.20354
1.20358
1.20364
1.2037
1.20378
1.20386
1.20396
1.20407
1.20419
1.20433
1.20448
1.20465
1.20484
1.20505
1.20527
1.20552
1.20579
1.20608
1.2064
1.20673
1.2071
1.20749
1.20791
1.20835
1.20883
1.20934
1.20987
1.21044
1.21105
1.21168
1.21236
1.21307
1.21383
1.21462
1.21546
1.21635
1.21728
1.21827
1.21933
1.22044
1.22163
1.2229
1.22426
1.22573
1.22731
1.22904
1.23094
1.23304
1.23539
1.23805
1.2411
1.24463
1.24878
1.25364
1.25928
1.26551
1.27058
1.27065
1.17692
1.17645
1.17707
1.17856
1.18039
1.18203
1.18344
1.18461
1.18555
1.18632
1.18694
1.18745
1.18788
1.18823
1.18852
1.18876
1.18896
1.18913
1.18928
1.1894
1.1895
1.18958
1.18964
1.18969
1.18974
1.18976
1.18979
1.1898
1.1898
1.1898
1.18979
1.18977
1.18975
1.18972
1.18969
1.18965
1.18961
1.18957
1.18952
1.18947
1.18941
1.18936
1.1893
1.18924
1.18918
1.18912
1.18905
1.18899
1.18893
1.18887
1.18881
1.18875
1.18869
1.18863
1.18858
1.18853
1.18849
1.18845
1.18841
1.18838
1.18835
1.18833
1.18832
1.18831
1.18831
1.18832
1.18833
1.18835
1.18838
1.18842
1.18846
1.18852
1.18858
1.18865
1.18873
1.18882
1.18891
1.18902
1.18913
1.18925
1.18938
1.18952
1.18966
1.18981
1.18997
1.19013
1.19031
1.19048
1.19067
1.19085
1.19104
1.19124
1.19144
1.19163
1.19184
1.19204
1.19224
1.19245
1.19265
1.19285
1.19305
1.19324
1.19343
1.19362
1.1938
1.19398
1.19415
1.19432
1.19448
1.19463
1.19477
1.1949
1.19502
1.19514
1.19524
1.19533
1.19542
1.19549
1.19555
1.1956
1.19564
1.19567
1.19569
1.1957
1.1957
1.1957
1.19568
1.19566
1.19563
1.19559
1.19555
1.1955
1.19545
1.19539
1.19534
1.19527
1.19521
1.19514
1.19507
1.195
1.19493
1.19485
1.19478
1.19471
1.19463
1.19456
1.19449
1.19441
1.19434
1.19427
1.1942
1.19413
1.19406
1.194
1.19393
1.19387
1.1938
1.19374
1.19368
1.19362
1.19356
1.1935
1.19344
1.19339
1.19333
1.19328
1.19323
1.19318
1.19313
1.19308
1.19303
1.19298
1.19294
1.19289
1.19285
1.19281
1.19276
1.19272
1.19268
1.19264
1.1926
1.19256
1.19252
1.19248
1.19244
1.1924
1.19236
1.19233
1.19229
1.19225
1.19222
1.19218
1.19214
1.19211
1.19207
1.19203
1.192
1.19196
1.19193
1.19189
1.19185
1.19182
1.19178
1.19175
1.19171
1.19167
1.19164
1.1916
1.19157
1.19153
1.1915
1.19146
1.19143
1.19139
1.19136
1.19132
1.19129
1.19126
1.19122
1.19119
1.19116
1.19114
1.19111
1.19108
1.19106
1.19104
1.19102
1.191
1.19099
1.19098
1.19097
1.19096
1.19096
1.19097
1.19097
1.19098
1.191
1.19102
1.19105
1.19108
1.19112
1.19117
1.19122
1.19128
1.19134
1.19142
1.1915
1.19158
1.19168
1.19179
1.1919
1.19202
1.19215
1.19229
1.19244
1.19259
1.19276
1.19293
1.19311
1.1933
1.1935
1.19371
1.19392
1.19414
1.19437
1.1946
1.19484
1.19508
1.19533
1.19558
1.19583
1.19609
1.19635
1.1966
1.19686
1.19712
1.19737
1.19762
1.19787
1.19811
1.19835
1.19858
1.1988
1.19902
1.19923
1.19944
1.19963
1.19982
1.2
1.20018
1.20034
1.2005
1.20065
1.20079
1.20093
1.20106
1.20118
1.2013
1.20141
1.20152
1.20162
1.20172
1.20181
1.2019
1.20199
1.20207
1.20215
1.20223
1.20231
1.20238
1.20245
1.20252
1.20258
1.20265
1.20271
1.20276
1.20282
1.20287
1.20292
1.20297
1.20301
1.20305
1.20309
1.20312
1.20315
1.20318
1.20321
1.20323
1.20325
1.20327
1.20328
1.2033
1.20331
1.20332
1.20333
1.20335
1.20336
1.20338
1.2034
1.20342
1.20345
1.20348
1.20352
1.20357
1.20362
1.20369
1.20376
1.20385
1.20394
1.20405
1.20417
1.20431
1.20446
1.20463
1.20482
1.20503
1.20526
1.2055
1.20577
1.20607
1.20638
1.20672
1.20709
1.20748
1.2079
1.20834
1.20882
1.20933
1.20987
1.21044
1.21104
1.21168
1.21235
1.21307
1.21382
1.21461
1.21545
1.21633
1.21727
1.21826
1.2193
1.22041
1.22159
1.22284
1.22419
1.22563
1.22719
1.22887
1.23072
1.23274
1.23499
1.23749
1.2403
1.24346
1.24702
1.25093
1.25496
1.25855
1.261
1.26033
1.17987
1.17937
1.17953
1.18034
1.1814
1.18255
1.18364
1.18461
1.18543
1.18613
1.18672
1.18722
1.18764
1.18799
1.18829
1.18854
1.18876
1.18894
1.18909
1.18922
1.18933
1.18942
1.1895
1.18956
1.18961
1.18964
1.18967
1.18969
1.1897
1.1897
1.18969
1.18968
1.18966
1.18964
1.18961
1.18957
1.18954
1.1895
1.18945
1.1894
1.18935
1.1893
1.18924
1.18918
1.18912
1.18906
1.189
1.18894
1.18888
1.18882
1.18876
1.1887
1.18864
1.18859
1.18854
1.18849
1.18845
1.18841
1.18837
1.18834
1.18832
1.1883
1.18828
1.18828
1.18828
1.18829
1.1883
1.18832
1.18836
1.18839
1.18844
1.1885
1.18856
1.18863
1.18872
1.1888
1.1889
1.18901
1.18912
1.18925
1.18938
1.18952
1.18966
1.18981
1.18998
1.19014
1.19032
1.19049
1.19068
1.19087
1.19106
1.19126
1.19146
1.19166
1.19186
1.19207
1.19227
1.19247
1.19268
1.19288
1.19308
1.19327
1.19347
1.19365
1.19384
1.19402
1.19419
1.19435
1.19451
1.19466
1.1948
1.19493
1.19506
1.19517
1.19527
1.19536
1.19544
1.19551
1.19557
1.19562
1.19566
1.19569
1.1957
1.19571
1.19571
1.1957
1.19568
1.19566
1.19562
1.19559
1.19554
1.19549
1.19544
1.19538
1.19532
1.19526
1.19519
1.19512
1.19505
1.19498
1.19491
1.19483
1.19476
1.19469
1.19461
1.19454
1.19447
1.19439
1.19432
1.19425
1.19418
1.19411
1.19405
1.19398
1.19391
1.19385
1.19379
1.19372
1.19366
1.1936
1.19355
1.19349
1.19343
1.19338
1.19333
1.19327
1.19322
1.19317
1.19312
1.19307
1.19303
1.19298
1.19293
1.19289
1.19285
1.1928
1.19276
1.19272
1.19268
1.19264
1.1926
1.19256
1.19252
1.19248
1.19244
1.1924
1.19237
1.19233
1.19229
1.19226
1.19222
1.19218
1.19215
1.19211
1.19208
1.19204
1.192
1.19197
1.19193
1.1919
1.19186
1.19182
1.19179
1.19175
1.19172
1.19168
1.19164
1.19161
1.19157
1.19153
1.1915
1.19146
1.19143
1.19139
1.19136
1.19132
1.19129
1.19126
1.19122
1.19119
1.19116
1.19113
1.19111
1.19108
1.19106
1.19103
1.19101
1.191
1.19098
1.19097
1.19096
1.19096
1.19096
1.19096
1.19097
1.19098
1.19099
1.19101
1.19104
1.19107
1.19111
1.19116
1.19121
1.19127
1.19133
1.19141
1.19149
1.19158
1.19167
1.19178
1.19189
1.19202
1.19215
1.19229
1.19244
1.19259
1.19276
1.19294
1.19312
1.19331
1.19351
1.19372
1.19393
1.19416
1.19438
1.19462
1.19486
1.19511
1.19535
1.19561
1.19586
1.19612
1.19638
1.19664
1.1969
1.19716
1.19741
1.19766
1.19791
1.19816
1.19839
1.19863
1.19885
1.19907
1.19928
1.19949
1.19968
1.19987
1.20005
1.20022
1.20038
1.20054
1.20069
1.20083
1.20096
1.20109
1.20121
1.20133
1.20144
1.20154
1.20164
1.20174
1.20183
1.20192
1.20201
1.20209
1.20217
1.20225
1.20232
1.2024
1.20247
1.20253
1.2026
1.20266
1.20272
1.20278
1.20284
1.20289
1.20294
1.20298
1.20303
1.20307
1.2031
1.20314
1.20317
1.20319
1.20322
1.20324
1.20326
1.20327
1.20329
1.2033
1.20331
1.20332
1.20333
1.20334
1.20336
1.20337
1.20339
1.20341
1.20344
1.20347
1.20351
1.20355
1.2036
1.20367
1.20374
1.20382
1.20392
1.20402
1.20415
1.20428
1.20443
1.2046
1.20479
1.205
1.20522
1.20547
1.20574
1.20603
1.20635
1.20669
1.20705
1.20744
1.20786
1.20831
1.20878
1.20929
1.20983
1.2104
1.211
1.21164
1.21231
1.21302
1.21377
1.21456
1.21539
1.21627
1.2172
1.21818
1.21921
1.2203
1.22146
1.2227
1.22401
1.22542
1.22693
1.22855
1.23032
1.23223
1.23433
1.23662
1.23914
1.24187
1.24479
1.24777
1.25058
1.25275
1.25384
1.25357
1.18191
1.18139
1.18138
1.18179
1.18244
1.18322
1.18403
1.18479
1.18548
1.18609
1.18662
1.18708
1.18748
1.18782
1.18812
1.18837
1.18859
1.18878
1.18894
1.18907
1.18919
1.18928
1.18937
1.18943
1.18949
1.18953
1.18956
1.18958
1.1896
1.1896
1.1896
1.18959
1.18958
1.18956
1.18953
1.1895
1.18947
1.18943
1.18938
1.18934
1.18929
1.18924
1.18918
1.18913
1.18907
1.18901
1.18895
1.18889
1.18883
1.18877
1.18871
1.18865
1.1886
1.18854
1.18849
1.18845
1.1884
1.18836
1.18833
1.1883
1.18828
1.18826
1.18825
1.18824
1.18824
1.18825
1.18827
1.18829
1.18833
1.18837
1.18842
1.18847
1.18854
1.18861
1.1887
1.18879
1.18889
1.189
1.18911
1.18924
1.18937
1.18951
1.18966
1.18981
1.18998
1.19015
1.19032
1.1905
1.19069
1.19088
1.19108
1.19127
1.19148
1.19168
1.19189
1.19209
1.1923
1.1925
1.19271
1.19291
1.19311
1.19331
1.1935
1.19369
1.19388
1.19405
1.19423
1.19439
1.19455
1.1947
1.19484
1.19497
1.1951
1.19521
1.19531
1.1954
1.19548
1.19555
1.1956
1.19565
1.19568
1.19571
1.19572
1.19573
1.19572
1.19571
1.19569
1.19566
1.19562
1.19558
1.19554
1.19548
1.19543
1.19537
1.19531
1.19524
1.19517
1.1951
1.19503
1.19496
1.19489
1.19481
1.19474
1.19466
1.19459
1.19452
1.19444
1.19437
1.1943
1.19423
1.19416
1.19409
1.19403
1.19396
1.1939
1.19383
1.19377
1.19371
1.19365
1.19359
1.19353
1.19348
1.19342
1.19337
1.19332
1.19326
1.19321
1.19316
1.19312
1.19307
1.19302
1.19298
1.19293
1.19289
1.19285
1.1928
1.19276
1.19272
1.19268
1.19264
1.1926
1.19256
1.19252
1.19248
1.19245
1.19241
1.19237
1.19234
1.1923
1.19226
1.19223
1.19219
1.19216
1.19212
1.19208
1.19205
1.19201
1.19198
1.19194
1.1919
1.19187
1.19183
1.19179
1.19176
1.19172
1.19168
1.19165
1.19161
1.19157
1.19154
1.1915
1.19147
1.19143
1.19139
1.19136
1.19132
1.19129
1.19126
1.19122
1.19119
1.19116
1.19113
1.1911
1.19108
1.19105
1.19103
1.19101
1.19099
1.19098
1.19096
1.19095
1.19095
1.19095
1.19095
1.19095
1.19097
1.19098
1.191
1.19103
1.19106
1.1911
1.19114
1.1912
1.19125
1.19132
1.19139
1.19148
1.19156
1.19166
1.19177
1.19188
1.19201
1.19214
1.19228
1.19243
1.19259
1.19276
1.19293
1.19312
1.19331
1.19351
1.19372
1.19394
1.19416
1.1944
1.19463
1.19488
1.19512
1.19538
1.19563
1.19589
1.19615
1.19641
1.19668
1.19694
1.1972
1.19746
1.19771
1.19796
1.19821
1.19845
1.19868
1.19891
1.19912
1.19934
1.19954
1.19973
1.19992
1.2001
1.20027
1.20043
1.20059
1.20073
1.20087
1.201
1.20113
1.20125
1.20136
1.20147
1.20157
1.20167
1.20177
1.20186
1.20195
1.20203
1.20211
1.20219
1.20227
1.20234
1.20242
1.20249
1.20255
1.20262
1.20268
1.20274
1.2028
1.20286
1.20291
1.20296
1.203
1.20305
1.20308
1.20312
1.20315
1.20318
1.20321
1.20323
1.20325
1.20327
1.20328
1.20329
1.2033
1.20331
1.20332
1.20333
1.20334
1.20335
1.20336
1.20338
1.2034
1.20342
1.20345
1.20349
1.20353
1.20358
1.20364
1.20371
1.20379
1.20388
1.20399
1.20411
1.20424
1.20439
1.20456
1.20475
1.20495
1.20518
1.20542
1.20569
1.20598
1.20629
1.20663
1.207
1.20739
1.2078
1.20825
1.20872
1.20923
1.20976
1.21033
1.21093
1.21157
1.21224
1.21294
1.21369
1.21447
1.21529
1.21616
1.21708
1.21804
1.21906
1.22013
1.22127
1.22247
1.22375
1.2251
1.22655
1.2281
1.22976
1.23155
1.23347
1.23553
1.23773
1.24003
1.24237
1.24461
1.24654
1.24792
1.24845
1.24821
1.18333
1.18288
1.18279
1.18297
1.18338
1.18391
1.18449
1.18508
1.18564
1.18615
1.18662
1.18704
1.1874
1.18772
1.18801
1.18825
1.18846
1.18865
1.18881
1.18895
1.18907
1.18917
1.18925
1.18932
1.18938
1.18943
1.18946
1.18949
1.18951
1.18952
1.18952
1.18951
1.1895
1.18948
1.18946
1.18943
1.1894
1.18936
1.18932
1.18928
1.18923
1.18918
1.18913
1.18907
1.18901
1.18896
1.1889
1.18884
1.18878
1.18872
1.18866
1.18861
1.18855
1.1885
1.18845
1.1884
1.18836
1.18832
1.18829
1.18826
1.18824
1.18822
1.18821
1.1882
1.18821
1.18822
1.18823
1.18826
1.18829
1.18833
1.18839
1.18844
1.18851
1.18859
1.18867
1.18877
1.18887
1.18898
1.1891
1.18922
1.18936
1.1895
1.18965
1.18981
1.18997
1.19014
1.19032
1.19051
1.1907
1.19089
1.19109
1.19129
1.19149
1.1917
1.19191
1.19212
1.19232
1.19253
1.19274
1.19294
1.19315
1.19334
1.19354
1.19373
1.19392
1.1941
1.19427
1.19443
1.19459
1.19474
1.19489
1.19502
1.19514
1.19525
1.19535
1.19544
1.19552
1.19558
1.19564
1.19568
1.19571
1.19573
1.19575
1.19575
1.19574
1.19572
1.1957
1.19567
1.19563
1.19558
1.19553
1.19548
1.19542
1.19536
1.19529
1.19523
1.19516
1.19509
1.19501
1.19494
1.19487
1.19479
1.19472
1.19464
1.19457
1.1945
1.19442
1.19435
1.19428
1.19421
1.19414
1.19407
1.19401
1.19394
1.19388
1.19381
1.19375
1.19369
1.19363
1.19358
1.19352
1.19346
1.19341
1.19336
1.19331
1.19326
1.19321
1.19316
1.19311
1.19306
1.19302
1.19297
1.19293
1.19289
1.19284
1.1928
1.19276
1.19272
1.19268
1.19264
1.1926
1.19257
1.19253
1.19249
1.19245
1.19242
1.19238
1.19234
1.19231
1.19227
1.19224
1.1922
1.19216
1.19213
1.19209
1.19206
1.19202
1.19198
1.19195
1.19191
1.19187
1.19184
1.1918
1.19176
1.19173
1.19169
1.19165
1.19162
1.19158
1.19154
1.19151
1.19147
1.19143
1.1914
1.19136
1.19132
1.19129
1.19125
1.19122
1.19119
1.19116
1.19113
1.1911
1.19107
1.19104
1.19102
1.191
1.19098
1.19096
1.19095
1.19094
1.19094
1.19093
1.19093
1.19094
1.19095
1.19097
1.19099
1.19101
1.19104
1.19108
1.19113
1.19118
1.19124
1.1913
1.19137
1.19146
1.19155
1.19164
1.19175
1.19186
1.19199
1.19212
1.19226
1.19241
1.19257
1.19274
1.19292
1.19311
1.1933
1.19351
1.19372
1.19394
1.19417
1.1944
1.19464
1.19489
1.19514
1.19539
1.19565
1.19592
1.19618
1.19645
1.19671
1.19698
1.19724
1.1975
1.19776
1.19801
1.19826
1.1985
1.19874
1.19896
1.19918
1.1994
1.1996
1.19979
1.19998
1.20016
1.20033
1.20049
1.20064
1.20078
1.20092
1.20105
1.20117
1.20129
1.2014
1.20151
1.20161
1.20171
1.2018
1.20189
1.20198
1.20206
1.20214
1.20222
1.2023
1.20237
1.20244
1.20251
1.20258
1.20264
1.20271
1.20277
1.20282
1.20288
1.20293
1.20298
1.20303
1.20307
1.20311
1.20314
1.20318
1.2032
1.20323
1.20325
1.20327
1.20328
1.2033
1.20331
1.20331
1.20332
1.20333
1.20333
1.20334
1.20335
1.20336
1.20337
1.20339
1.20341
1.20343
1.20347
1.20351
1.20355
1.20361
1.20368
1.20375
1.20384
1.20395
1.20406
1.2042
1.20434
1.20451
1.20469
1.2049
1.20512
1.20536
1.20563
1.20591
1.20622
1.20656
1.20692
1.20731
1.20772
1.20817
1.20864
1.20914
1.20967
1.21023
1.21083
1.21146
1.21212
1.21282
1.21356
1.21433
1.21515
1.216
1.2169
1.21785
1.21885
1.21989
1.221
1.22216
1.22339
1.22469
1.22607
1.22753
1.22908
1.23072
1.23246
1.23428
1.23617
1.23809
1.23994
1.24162
1.24297
1.24386
1.24416
1.24383
1.18438
1.184
1.18387
1.18394
1.18419
1.18454
1.18497
1.18541
1.18586
1.18629
1.18669
1.18705
1.18738
1.18767
1.18794
1.18817
1.18837
1.18855
1.18871
1.18885
1.18897
1.18907
1.18915
1.18923
1.18929
1.18934
1.18937
1.1894
1.18942
1.18943
1.18944
1.18944
1.18943
1.18941
1.18939
1.18937
1.18934
1.1893
1.18926
1.18922
1.18917
1.18912
1.18907
1.18902
1.18896
1.1889
1.18885
1.18879
1.18873
1.18867
1.18861
1.18856
1.1885
1.18845
1.1884
1.18836
1.18831
1.18828
1.18824
1.18821
1.18819
1.18817
1.18817
1.18816
1.18817
1.18818
1.1882
1.18822
1.18826
1.1883
1.18835
1.18841
1.18848
1.18856
1.18865
1.18874
1.18884
1.18896
1.18908
1.18921
1.18934
1.18949
1.18964
1.1898
1.18997
1.19014
1.19032
1.19051
1.1907
1.1909
1.1911
1.1913
1.19151
1.19172
1.19193
1.19214
1.19235
1.19256
1.19277
1.19298
1.19318
1.19338
1.19358
1.19377
1.19396
1.19414
1.19431
1.19448
1.19464
1.19479
1.19493
1.19507
1.19519
1.1953
1.1954
1.19549
1.19556
1.19563
1.19568
1.19572
1.19575
1.19576
1.19577
1.19577
1.19576
1.19574
1.19571
1.19568
1.19563
1.19559
1.19553
1.19548
1.19542
1.19535
1.19528
1.19521
1.19514
1.19507
1.195
1.19492
1.19485
1.19477
1.1947
1.19462
1.19455
1.19448
1.1944
1.19433
1.19426
1.19419
1.19412
1.19405
1.19399
1.19392
1.19386
1.1938
1.19374
1.19368
1.19362
1.19356
1.19351
1.19345
1.1934
1.19335
1.1933
1.19325
1.1932
1.19315
1.19311
1.19306
1.19302
1.19297
1.19293
1.19289
1.19284
1.1928
1.19276
1.19272
1.19269
1.19265
1.19261
1.19257
1.19253
1.1925
1.19246
1.19242
1.19239
1.19235
1.19232
1.19228
1.19224
1.19221
1.19217
1.19214
1.1921
1.19207
1.19203
1.19199
1.19196
1.19192
1.19188
1.19185
1.19181
1.19177
1.19174
1.1917
1.19166
1.19162
1.19159
1.19155
1.19151
1.19147
1.19144
1.1914
1.19136
1.19132
1.19129
1.19125
1.19122
1.19119
1.19115
1.19112
1.19109
1.19106
1.19104
1.19101
1.19099
1.19097
1.19095
1.19094
1.19093
1.19092
1.19092
1.19092
1.19092
1.19093
1.19095
1.19097
1.19099
1.19102
1.19106
1.1911
1.19115
1.19121
1.19128
1.19135
1.19143
1.19152
1.19162
1.19173
1.19184
1.19196
1.1921
1.19224
1.19239
1.19255
1.19272
1.1929
1.19309
1.19329
1.1935
1.19371
1.19393
1.19416
1.1944
1.19464
1.19489
1.19515
1.19541
1.19567
1.19594
1.19621
1.19648
1.19675
1.19701
1.19728
1.19755
1.19781
1.19806
1.19831
1.19856
1.1988
1.19903
1.19925
1.19946
1.19966
1.19986
1.20004
1.20022
1.20039
1.20055
1.2007
1.20084
1.20097
1.2011
1.20122
1.20134
1.20145
1.20155
1.20165
1.20175
1.20184
1.20193
1.20201
1.20209
1.20217
1.20225
1.20232
1.2024
1.20247
1.20254
1.20261
1.20267
1.20273
1.20279
1.20285
1.20291
1.20296
1.20301
1.20305
1.2031
1.20314
1.20317
1.2032
1.20323
1.20325
1.20327
1.20329
1.2033
1.20331
1.20332
1.20333
1.20333
1.20333
1.20334
1.20334
1.20335
1.20335
1.20336
1.20337
1.20339
1.20341
1.20344
1.20348
1.20352
1.20358
1.20364
1.20371
1.2038
1.2039
1.20401
1.20414
1.20429
1.20445
1.20463
1.20483
1.20505
1.20529
1.20555
1.20583
1.20614
1.20647
1.20683
1.20721
1.20763
1.20806
1.20853
1.20903
1.20956
1.21011
1.2107
1.21133
1.21198
1.21267
1.2134
1.21416
1.21496
1.2158
1.21669
1.21761
1.21858
1.2196
1.22066
1.22179
1.22296
1.2242
1.2255
1.22686
1.22829
1.22979
1.23135
1.23295
1.23456
1.23613
1.2376
1.23887
1.23984
1.24043
1.24058
1.24022
1.18519
1.18487
1.18472
1.18473
1.18488
1.18512
1.18542
1.18576
1.18612
1.18647
1.1868
1.18712
1.18741
1.18767
1.18791
1.18813
1.18832
1.18849
1.18864
1.18877
1.18889
1.18899
1.18907
1.18915
1.18921
1.18926
1.1893
1.18933
1.18935
1.18936
1.18937
1.18937
1.18936
1.18935
1.18933
1.18931
1.18928
1.18924
1.18921
1.18916
1.18912
1.18907
1.18902
1.18897
1.18891
1.18886
1.1888
1.18874
1.18868
1.18862
1.18857
1.18851
1.18846
1.18841
1.18836
1.18831
1.18827
1.18823
1.1882
1.18817
1.18815
1.18813
1.18812
1.18812
1.18812
1.18814
1.18816
1.18818
1.18822
1.18826
1.18832
1.18838
1.18845
1.18853
1.18862
1.18871
1.18882
1.18893
1.18905
1.18918
1.18932
1.18947
1.18962
1.18979
1.18996
1.19013
1.19032
1.1905
1.1907
1.1909
1.1911
1.19131
1.19152
1.19173
1.19195
1.19216
1.19237
1.19259
1.1928
1.19301
1.19321
1.19342
1.19361
1.19381
1.194
1.19418
1.19436
1.19453
1.19469
1.19484
1.19498
1.19511
1.19524
1.19535
1.19545
1.19553
1.19561
1.19567
1.19572
1.19576
1.19579
1.1958
1.1958
1.1958
1.19578
1.19576
1.19573
1.19569
1.19564
1.19559
1.19554
1.19548
1.19541
1.19534
1.19528
1.1952
1.19513
1.19506
1.19498
1.19491
1.19483
1.19475
1.19468
1.1946
1.19453
1.19446
1.19438
1.19431
1.19424
1.19417
1.1941
1.19404
1.19397
1.19391
1.19384
1.19378
1.19372
1.19366
1.19361
1.19355
1.1935
1.19344
1.19339
1.19334
1.19329
1.19324
1.19319
1.19315
1.1931
1.19306
1.19301
1.19297
1.19293
1.19289
1.19285
1.19281
1.19277
1.19273
1.19269
1.19265
1.19262
1.19258
1.19254