# vtk DataFile Version 2.0
LBE mesh
ASCII
DATASET STRUCTURED_POINTS
DIMENSIONS 400 100 1
ASPECT_RATIO 1 1 1
ORIGIN 0 0 0
POINT_DATA 40000
SCALARS rho double 1
LOOKUP_TABLE default
0.982452
1.02297
1.03549
1.0395
1.04179
1.0434
1.04449
1.04521
1.04571
1.04607
1.04634
1.04654
1.04669
1.0468
1.04688
1.04694
1.04698
1.047
1.04701
1.04702
1.04701
1.047
1.04699
1.04697
1.04695
1.04693
1.0469
1.04688
1.04685
1.04682
1.0468
1.04678
1.04676
1.04674
1.04672
1.04671
1.0467
1.0467
1.0467
1.04671
1.04672
1.04675
1.04677
1.04681
1.04685
1.04691
1.04697
1.04704
1.04711
1.0472
1.0473
1.04741
1.04752
1.04765
1.04779
1.04794
1.04809
1.04826
1.04844
1.04862
1.04882
1.04903
1.04924
1.04947
1.04971
1.04995
1.05021
1.05048
1.05075
1.05104
1.05133
1.05164
1.05195
1.05227
1.05261
1.05295
1.0533
1.05366
1.05403
1.0544
1.05479
1.05517
1.05557
1.05597
1.05638
1.05679
1.0572
1.05761
1.05802
1.05843
1.05884
1.05925
1.05965
1.06005
1.06043
1.06081
1.06118
1.06154
1.06188
1.06221
1.06253
1.06282
1.06311
1.06337
1.06361
1.06384
1.06404
1.06422
1.06438
1.06452
1.06464
1.06473
1.06481
1.06486
1.06489
1.0649
1.06489
1.06486
1.06482
1.06475
1.06467
1.06458
1.06447
1.06434
1.06421
1.06406
1.06391
1.06374
1.06357
1.06339
1.06321
1.06302
1.06282
1.06262
1.06242
1.06222
1.06202
1.06182
1.06161
1.06141
1.06121
1.06101
1.06082
1.06062
1.06043
1.06025
1.06007
1.05989
1.05972
1.05956
1.0594
1.05925
1.05911
1.05898
1.05885
1.05874
1.05863
1.05853
1.05844
1.05837
1.0583
1.05824
1.0582
1.05816
1.05814
1.05812
1.05812
1.05812
1.05814
1.05817
1.0582
1.05825
1.0583
1.05836
1.05843
1.05851
1.0586
1.05869
1.05879
1.0589
1.05901
1.05913
1.05925
1.05937
1.0595
1.05964
1.05978
1.05992
1.06006
1.06021
1.06036
1.06051
1.06066
1.06081
1.06097
1.06113
1.06128
1.06144
1.0616
1.06176
1.06192
1.06208
1.06224
1.0624
1.06256
1.06272
1.06288
1.06304
1.06319
1.06335
1.0635
1.06366
1.06381
1.06396
1.06411
1.06426
1.06441
1.06456
1.0647
1.06485
1.06499
1.06514
1.06528
1.06542
1.06556
1.0657
1.06584
1.06598
1.06611
1.06625
1.06639
1.06652
1.06665
1.06679
1.06692
1.06706
1.06719
1.06732
1.06746
1.06759
1.06773
1.06786
1.068
1.06814
1.06828
1.06842
1.06857
1.06872
1.06887
1.06903
1.06919
1.06936
1.06954
1.06973
1.06993
1.07013
1.07035
1.07057
1.07081
1.07107
1.07133
1.07162
1.07191
1.07223
1.07255
1.0729
1.07326
1.07364
1.07403
1.07444
1.07487
1.07531
1.07576
1.07623
1.07671
1.0772
1.0777
1.07821
1.07872
1.07924
1.07976
1.08028
1.0808
1.08132
1.08184
1.08234
1.08284
1.08333
1.08381
1.08427
1.08472
1.08515
1.08557
1.08597
1.08634
1.0867
1.08704
1.08736
1.08766
1.08793
1.08818
1.08841
1.08862
1.08881
1.08898
1.08912
1.08924
1.08935
1.08943
1.08949
1.08954
1.08956
1.08957
1.08956
1.08953
1.08948
1.08942
1.08935
1.08926
1.08915
1.08904
1.08891
1.08878
1.08863
1.08848
1.08831
1.08815
1.08797
1.0878
1.08762
1.08743
1.08725
1.08706
1.08688
1.0867
1.08651
1.08633
1.08616
1.08598
1.08582
1.08565
1.08549
1.08533
1.08519
1.08504
1.0849
1.08477
1.08464
1.08453
1.08441
1.08431
1.08422
1.08413
1.08405
1.08399
1.08393
1.08389
1.08386
1.08385
1.08385
1.08387
1.08391
1.08397
1.08405
1.08416
1.0843
1.08446
1.08466
1.08489
1.08515
1.08546
1.08581
1.0862
1.08664
1.08713
1.08768
1.08828
1.08894
1.08966
1.09045
1.09132
1.09226
1.09328
1.09439
1.0956
1.09692
1.09835
1.09992
1.10165
1.10357
1.10571
1.10813
1.11091
1.11418
1.11812
1.12317
1.13023
1.14018
1.15398
1.18027
1.00649
1.01954
1.0296
1.03622
1.0398
1.04186
1.04321
1.04416
1.04485
1.04536
1.04574
1.04602
1.04624
1.0464
1.04653
1.04662
1.0467
1.04675
1.04678
1.04681
1.04682
1.04683
1.04683
1.04682
1.04681
1.0468
1.04678
1.04676
1.04674
1.04673
1.04671
1.04669
1.04667
1.04666
1.04665
1.04664
1.04664
1.04664
1.04665
1.04666
1.04668
1.0467
1.04673
1.04677
1.04682
1.04687
1.04693
1.04701
1.04709
1.04718
1.04728
1.04738
1.0475
1.04763
1.04777
1.04792
1.04808
1.04825
1.04842
1.04861
1.04881
1.04902
1.04924
1.04947
1.0497
1.04995
1.05021
1.05048
1.05075
1.05104
1.05134
1.05164
1.05196
1.05228
1.05262
1.05296
1.05331
1.05367
1.05404
1.05442
1.0548
1.05519
1.05559
1.05599
1.0564
1.05681
1.05722
1.05763
1.05804
1.05846
1.05886
1.05927
1.05967
1.06007
1.06045
1.06083
1.0612
1.06155
1.06189
1.06222
1.06253
1.06283
1.06311
1.06337
1.06361
1.06383
1.06403
1.06421
1.06437
1.06451
1.06462
1.06472
1.06479
1.06484
1.06487
1.06488
1.06486
1.06483
1.06479
1.06472
1.06464
1.06454
1.06443
1.06431
1.06417
1.06403
1.06387
1.06371
1.06353
1.06335
1.06317
1.06298
1.06279
1.06259
1.06239
1.06219
1.06199
1.06178
1.06158
1.06138
1.06118
1.06098
1.06079
1.0606
1.06041
1.06022
1.06004
1.05987
1.0597
1.05954
1.05938
1.05923
1.05909
1.05896
1.05884
1.05872
1.05861
1.05852
1.05843
1.05836
1.05829
1.05823
1.05819
1.05816
1.05813
1.05812
1.05811
1.05812
1.05814
1.05817
1.0582
1.05825
1.0583
1.05837
1.05844
1.05852
1.0586
1.0587
1.0588
1.0589
1.05902
1.05913
1.05926
1.05938
1.05951
1.05965
1.05979
1.05993
1.06007
1.06022
1.06037
1.06052
1.06067
1.06083
1.06098
1.06114
1.0613
1.06145
1.06161
1.06177
1.06193
1.06209
1.06225
1.06241
1.06257
1.06273
1.06288
1.06304
1.0632
1.06335
1.06351
1.06366
1.06381
1.06396
1.06411
1.06426
1.06441
1.06456
1.0647
1.06485
1.06499
1.06513
1.06528
1.06542
1.06556
1.0657
1.06583
1.06597
1.06611
1.06624
1.06638
1.06651
1.06665
1.06678
1.06691
1.06705
1.06718
1.06731
1.06744
1.06758
1.06771
1.06785
1.06798
1.06812
1.06826
1.06841
1.06855
1.0687
1.06886
1.06902
1.06918
1.06935
1.06953
1.06972
1.06992
1.07013
1.07034
1.07057
1.07081
1.07107
1.07134
1.07162
1.07192
1.07223
1.07256
1.07291
1.07327
1.07365
1.07405
1.07446
1.07489
1.07533
1.07578
1.07625
1.07673
1.07722
1.07772
1.07823
1.07874
1.07926
1.07978
1.0803
1.08082
1.08133
1.08184
1.08235
1.08285
1.08333
1.08381
1.08427
1.08471
1.08514
1.08556
1.08595
1.08633
1.08669
1.08702
1.08734
1.08763
1.08791
1.08816
1.08839
1.08859
1.08878
1.08894
1.08909
1.08921
1.08931
1.08939
1.08945
1.0895
1.08952
1.08952
1.08951
1.08948
1.08944
1.08937
1.0893
1.08921
1.0891
1.08899
1.08886
1.08873
1.08858
1.08842
1.08826
1.0881
1.08792
1.08775
1.08757
1.08739
1.0872
1.08702
1.08684
1.08665
1.08647
1.08629
1.08612
1.08595
1.08578
1.08562
1.08546
1.0853
1.08516
1.08501
1.08488
1.08475
1.08462
1.08451
1.0844
1.08429
1.0842
1.08412
1.08404
1.08398
1.08392
1.08388
1.08386
1.08385
1.08385
1.08387
1.08392
1.08398
1.08407
1.08418
1.08432
1.08449
1.08469
1.08493
1.0852
1.08552
1.08587
1.08627
1.08672
1.08722
1.08777
1.08838
1.08905
1.08979
1.09059
1.09147
1.09242
1.09346
1.09459
1.09582
1.09716
1.09863
1.10024
1.10202
1.10399
1.10621
1.10873
1.11165
1.11512
1.11937
1.12471
1.13159
1.14152
1.15906
1.18718
1.02351
1.02534
1.03099
1.03554
1.03858
1.04073
1.04226
1.04335
1.04415
1.04475
1.0452
1.04555
1.04582
1.04604
1.0462
1.04633
1.04643
1.0465
1.04656
1.0466
1.04663
1.04665
1.04666
1.04667
1.04667
1.04666
1.04666
1.04665
1.04663
1.04662
1.04661
1.0466
1.04658
1.04658
1.04657
1.04657
1.04657
1.04657
1.04658
1.0466
1.04662
1.04664
1.04668
1.04672
1.04677
1.04682
1.04689
1.04696
1.04704
1.04714
1.04724
1.04735
1.04747
1.0476
1.04774
1.04789
1.04805
1.04822
1.0484
1.04859
1.04879
1.049
1.04922
1.04945
1.04968
1.04993
1.05019
1.05046
1.05074
1.05103
1.05132
1.05163
1.05195
1.05228
1.05261
1.05296
1.05331
1.05367
1.05404
1.05442
1.05481
1.0552
1.0556
1.056
1.05641
1.05682
1.05723
1.05764
1.05806
1.05847
1.05888
1.05929
1.05969
1.06008
1.06047
1.06085
1.06121
1.06157
1.06191
1.06224
1.06255
1.06284
1.06312
1.06338
1.06362
1.06384
1.06403
1.06421
1.06437
1.0645
1.06461
1.0647
1.06477
1.06482
1.06485
1.06485
1.06484
1.06481
1.06476
1.06469
1.06461
1.06451
1.06439
1.06427
1.06413
1.06398
1.06383
1.06366
1.06349
1.06331
1.06312
1.06293
1.06274
1.06254
1.06235
1.06214
1.06194
1.06174
1.06154
1.06134
1.06114
1.06094
1.06075
1.06056
1.06037
1.06019
1.06001
1.05984
1.05967
1.05951
1.05935
1.05921
1.05907
1.05894
1.05881
1.0587
1.0586
1.0585
1.05842
1.05834
1.05828
1.05822
1.05818
1.05815
1.05812
1.05811
1.05811
1.05812
1.05814
1.05817
1.0582
1.05825
1.05831
1.05837
1.05844
1.05852
1.05861
1.0587
1.05881
1.05891
1.05903
1.05914
1.05927
1.05939
1.05953
1.05966
1.0598
1.05994
1.06009
1.06023
1.06038
1.06053
1.06068
1.06084
1.06099
1.06115
1.06131
1.06147
1.06162
1.06178
1.06194
1.0621
1.06226
1.06242
1.06258
1.06273
1.06289
1.06305
1.0632
1.06336
1.06351
1.06366
1.06381
1.06396
1.06411
1.06426
1.06441
1.06455
1.0647
1.06484
1.06498
1.06512
1.06526
1.0654
1.06554
1.06568
1.06581
1.06595
1.06609
1.06622
1.06635
1.06649
1.06662
1.06675
1.06689
1.06702
1.06715
1.06728
1.06741
1.06755
1.06768
1.06782
1.06795
1.06809
1.06823
1.06837
1.06852
1.06867
1.06882
1.06898
1.06915
1.06932
1.0695
1.06969
1.06989
1.0701
1.07032
1.07055
1.07079
1.07105
1.07132
1.0716
1.0719
1.07222
1.07255
1.0729
1.07327
1.07365
1.07404
1.07446
1.07489
1.07533
1.07579
1.07626
1.07674
1.07723
1.07773
1.07823
1.07875
1.07926
1.07978
1.0803
1.08082
1.08134
1.08185
1.08235
1.08284
1.08333
1.0838
1.08426
1.0847
1.08513
1.08554
1.08594
1.08631
1.08666
1.087
1.08731
1.0876
1.08788
1.08812
1.08835
1.08856
1.08874
1.08891
1.08905
1.08917
1.08927
1.08935
1.08941
1.08945
1.08947
1.08948
1.08946
1.08943
1.08938
1.08932
1.08925
1.08915
1.08905
1.08893
1.08881
1.08867
1.08852
1.08837
1.08821
1.08804
1.08787
1.08769
1.08751
1.08733
1.08715
1.08697
1.08678
1.0866
1.08642
1.08625
1.08607
1.0859
1.08574
1.08557
1.08542
1.08527
1.08512
1.08498
1.08484
1.08471
1.08459
1.08447
1.08437
1.08426
1.08417
1.08409
1.08402
1.08395
1.0839
1.08386
1.08384
1.08383
1.08384
1.08386
1.08391
1.08397
1.08406
1.08418
1.08432
1.08449
1.0847
1.08494
1.08521
1.08553
1.08589
1.08629
1.08675
1.08725
1.08781
1.08842
1.0891
1.08984
1.09065
1.09154
1.0925
1.09355
1.09469
1.09593
1.09729
1.09876
1.10039
1.10218
1.10417
1.1064
1.10893
1.11185
1.11528
1.11938
1.12451
1.13111
1.13934
1.14827
1.1571
1.03208
1.03157
1.03364
1.03615
1.03851
1.04037
1.04177
1.04283
1.04365
1.04428
1.04478
1.04516
1.04547
1.04571
1.04591
1.04606
1.04618
1.04627
1.04635
1.04641
1.04645
1.04648
1.0465
1.04652
1.04652
1.04653
1.04653
1.04652
1.04652
1.04651
1.0465
1.0465
1.04649
1.04648
1.04648
1.04648
1.04649
1.04649
1.04651
1.04652
1.04655
1.04658
1.04661
1.04666
1.04671
1.04677
1.04683
1.04691
1.04699
1.04709
1.04719
1.0473
1.04742
1.04756
1.0477
1.04785
1.04801
1.04818
1.04836
1.04855
1.04875
1.04896
1.04918
1.04941
1.04965
1.0499
1.05016
1.05043
1.05071
1.051
1.0513
1.05161
1.05193
1.05226
1.05259
1.05294
1.0533
1.05366
1.05403
1.05441
1.0548
1.05519
1.05559
1.056
1.05641
1.05682
1.05723
1.05765
1.05806
1.05848
1.05889
1.0593
1.0597
1.06009
1.06048
1.06086
1.06123
1.06158
1.06192
1.06225
1.06256
1.06285
1.06313
1.06339
1.06362
1.06384
1.06404
1.06421
1.06437
1.0645
1.06461
1.0647
1.06476
1.06481
1.06483
1.06483
1.06482
1.06478
1.06473
1.06466
1.06457
1.06447
1.06435
1.06423
1.06409
1.06394
1.06378
1.06361
1.06344
1.06326
1.06307
1.06288
1.06269
1.06249
1.06229
1.06209
1.06189
1.06169
1.06149
1.06129
1.06109
1.0609
1.0607
1.06051
1.06033
1.06014
1.05997
1.0598
1.05963
1.05947
1.05932
1.05917
1.05904
1.05891
1.05879
1.05868
1.05857
1.05848
1.0584
1.05833
1.05826
1.05821
1.05817
1.05814
1.05812
1.05811
1.05811
1.05812
1.05814
1.05817
1.05821
1.05825
1.05831
1.05838
1.05845
1.05853
1.05862
1.05871
1.05882
1.05892
1.05904
1.05916
1.05928
1.05941
1.05954
1.05968
1.05982
1.05996
1.0601
1.06025
1.0604
1.06055
1.0607
1.06086
1.06101
1.06117
1.06132
1.06148
1.06164
1.0618
1.06195
1.06211
1.06227
1.06243
1.06258
1.06274
1.06289
1.06305
1.0632
1.06335
1.06351
1.06366
1.06381
1.06395
1.0641
1.06425
1.06439
1.06454
1.06468
1.06482
1.06496
1.0651
1.06524
1.06538
1.06551
1.06565
1.06579
1.06592
1.06605
1.06619
1.06632
1.06645
1.06658
1.06671
1.06684
1.06697
1.0671
1.06724
1.06737
1.0675
1.06763
1.06776
1.0679
1.06804
1.06818
1.06832
1.06846
1.06861
1.06877
1.06893
1.0691
1.06927
1.06945
1.06964
1.06984
1.07005
1.07027
1.0705
1.07075
1.07101
1.07128
1.07157
1.07187
1.07219
1.07252
1.07287
1.07324
1.07362
1.07402
1.07444
1.07487
1.07532
1.07577
1.07624
1.07673
1.07722
1.07772
1.07823
1.07874
1.07926
1.07978
1.0803
1.08082
1.08133
1.08184
1.08234
1.08283
1.08332
1.08379
1.08424
1.08469
1.08511
1.08552
1.08591
1.08628
1.08664
1.08697
1.08728
1.08757
1.08784
1.08809
1.08831
1.08852
1.0887
1.08886
1.089
1.08912
1.08922
1.0893
1.08936
1.0894
1.08942
1.08942
1.08941
1.08938
1.08933
1.08927
1.08919
1.0891
1.08899
1.08888
1.08875
1.08861
1.08846
1.08831
1.08815
1.08798
1.08781
1.08763
1.08745
1.08727
1.08709
1.08691
1.08673
1.08655
1.08637
1.08619
1.08602
1.08585
1.08569
1.08552
1.08537
1.08522
1.08507
1.08493
1.0848
1.08467
1.08455
1.08443
1.08432
1.08422
1.08413
1.08405
1.08398
1.08392
1.08387
1.08383
1.0838
1.0838
1.0838
1.08383
1.08387
1.08394
1.08403
1.08415
1.08429
1.08446
1.08467
1.08491
1.08519
1.08551
1.08587
1.08627
1.08673
1.08724
1.0878
1.08841
1.08909
1.08984
1.09065
1.09154
1.0925
1.09355
1.09469
1.09593
1.09728
1.09875
1.10037
1.10214
1.1041
1.10629
1.10875
1.11155
1.11478
1.11854
1.12293
1.12799
1.13363
1.1382
1.13841
1.03603
1.03553
1.03625
1.03759
1.03912
1.04048
1.04165
1.0426
1.04336
1.04398
1.04447
1.04487
1.04519
1.04545
1.04566
1.04582
1.04596
1.04607
1.04615
1.04622
1.04628
1.04632
1.04635
1.04637
1.04638
1.04639
1.0464
1.0464
1.0464
1.0464
1.04639
1.04639
1.04639
1.04639
1.04639
1.04639
1.0464
1.04641
1.04642
1.04644
1.04647
1.0465
1.04654
1.04658
1.04664
1.0467
1.04677
1.04684
1.04693
1.04702
1.04713
1.04724
1.04736
1.0475
1.04764
1.04779
1.04795
1.04813
1.04831
1.0485
1.0487
1.04891
1.04913
1.04936
1.0496
1.04985
1.05012
1.05039
1.05067
1.05096
1.05126
1.05157
1.05189
1.05222
1.05256
1.05291
1.05326
1.05363
1.05401
1.05439
1.05478
1.05517
1.05558
1.05598
1.05639
1.05681
1.05723
1.05764
1.05806
1.05848
1.05889
1.0593
1.0597
1.0601
1.06049
1.06087
1.06124
1.06159
1.06193
1.06226
1.06257
1.06287
1.06314
1.0634
1.06363
1.06385
1.06405
1.06422
1.06437
1.0645
1.06461
1.06469
1.06476
1.0648
1.06482
1.06482
1.0648
1.06476
1.0647
1.06463
1.06454
1.06443
1.06431
1.06418
1.06404
1.06389
1.06373
1.06356
1.06338
1.0632
1.06301
1.06282
1.06263
1.06243
1.06223
1.06203
1.06183
1.06163
1.06143
1.06123
1.06103
1.06084
1.06065
1.06046
1.06027
1.06009
1.05992
1.05975
1.05959
1.05943
1.05928
1.05914
1.059
1.05887
1.05876
1.05865
1.05855
1.05846
1.05838
1.05831
1.05825
1.0582
1.05816
1.05813
1.05811
1.0581
1.0581
1.05811
1.05813
1.05817
1.05821
1.05826
1.05831
1.05838
1.05846
1.05854
1.05863
1.05873
1.05883
1.05894
1.05905
1.05917
1.0593
1.05942
1.05956
1.05969
1.05983
1.05998
1.06012
1.06027
1.06042
1.06057
1.06072
1.06087
1.06103
1.06118
1.06134
1.06149
1.06165
1.06181
1.06196
1.06212
1.06228
1.06243
1.06259
1.06274
1.06289
1.06305
1.0632
1.06335
1.0635
1.06365
1.06379
1.06394
1.06409
1.06423
1.06437
1.06451
1.06465
1.06479
1.06493
1.06507
1.06521
1.06534
1.06548
1.06561
1.06574
1.06588
1.06601
1.06614
1.06627
1.0664
1.06653
1.06666
1.06678
1.06691
1.06704
1.06717
1.0673
1.06743
1.06756
1.06769
1.06783
1.06796
1.0681
1.06825
1.06839
1.06854
1.0687
1.06886
1.06902
1.0692
1.06938
1.06957
1.06977
1.06998
1.0702
1.07043
1.07068
1.07094
1.07122
1.07151
1.07181
1.07213
1.07247
1.07282
1.07319
1.07358
1.07398
1.0744
1.07483
1.07528
1.07574
1.07622
1.0767
1.0772
1.0777
1.07821
1.07873
1.07924
1.07976
1.08028
1.0808
1.08132
1.08182
1.08232
1.08282
1.0833
1.08377
1.08422
1.08466
1.08508
1.08549
1.08588
1.08625
1.0866
1.08693
1.08724
1.08753
1.08779
1.08804
1.08827
1.08847
1.08865
1.08881
1.08895
1.08907
1.08917
1.08925
1.0893
1.08934
1.08936
1.08937
1.08935
1.08932
1.08927
1.08921
1.08913
1.08904
1.08893
1.08881
1.08869
1.08855
1.0884
1.08824
1.08808
1.08791
1.08774
1.08757
1.08739
1.08721
1.08702
1.08684
1.08666
1.08648
1.0863
1.08613
1.08596
1.08579
1.08562
1.08547
1.08531
1.08516
1.08501
1.08488
1.08474
1.08461
1.08449
1.08438
1.08427
1.08417
1.08408
1.084
1.08393
1.08387
1.08382
1.08378
1.08375
1.08374
1.08375
1.08378
1.08382
1.08389
1.08398
1.08409
1.08424
1.08441
1.08461
1.08485
1.08513
1.08545
1.08581
1.08621
1.08667
1.08717
1.08773
1.08835
1.08902
1.08976
1.09057
1.09146
1.09242
1.09346
1.09459
1.09582
1.09715
1.0986
1.10018
1.1019
1.1038
1.10589
1.10822
1.11081
1.11371
1.11695
1.12051
1.12414
1.12741
1.12968
1.12909
1.0385
1.0381
1.03831
1.03902
1.03994
1.04091
1.04181
1.04259
1.04326
1.04382
1.04428
1.04467
1.04498
1.04524
1.04545
1.04563
1.04577
1.04589
1.04598
1.04605
1.04611
1.04616
1.0462
1.04623
1.04625
1.04626
1.04627
1.04628
1.04628
1.04628
1.04628
1.04628
1.04628
1.04629
1.04629
1.0463
1.0463
1.04632
1.04634
1.04636
1.04639
1.04642
1.04646
1.04651
1.04656
1.04662
1.04669
1.04677
1.04686
1.04696
1.04706
1.04718
1.0473
1.04743
1.04758
1.04773
1.04789
1.04806
1.04824
1.04844
1.04864
1.04885
1.04907
1.0493
1.04955
1.0498
1.05006
1.05033
1.05061
1.05091
1.05121
1.05152
1.05184
1.05217
1.05251
1.05286
1.05322
1.05359
1.05397
1.05435
1.05474
1.05514
1.05555
1.05596
1.05637
1.05679
1.05721
1.05763
1.05805
1.05847
1.05889
1.0593
1.0597
1.0601
1.06049
1.06088
1.06124
1.0616
1.06194
1.06227
1.06258
1.06288
1.06315
1.06341
1.06364
1.06386
1.06405
1.06423
1.06438
1.0645
1.06461
1.06469
1.06475
1.06479
1.0648
1.0648
1.06478
1.06473
1.06467
1.0646
1.0645
1.06439
1.06427
1.06414
1.06399
1.06384
1.06367
1.0635
1.06332
1.06314
1.06295
1.06276
1.06256
1.06237
1.06217
1.06197
1.06176
1.06156
1.06136
1.06117
1.06097
1.06078
1.06059
1.0604
1.06022
1.06004
1.05986
1.0597
1.05954
1.05938
1.05923
1.05909
1.05896
1.05884
1.05872
1.05862
1.05852
1.05843
1.05835
1.05828
1.05823
1.05818
1.05814
1.05812
1.0581
1.05809
1.0581
1.05811
1.05813
1.05817
1.05821
1.05826
1.05832
1.05839
1.05847
1.05855
1.05864
1.05874
1.05884
1.05895
1.05907
1.05919
1.05931
1.05944
1.05958
1.05971
1.05985
1.06
1.06014
1.06029
1.06044
1.06059
1.06074
1.06089
1.06105
1.0612
1.06136
1.06151
1.06167
1.06182
1.06198
1.06213
1.06228
1.06244
1.06259
1.06274
1.06289
1.06304
1.06319
1.06334
1.06349
1.06363
1.06378
1.06392
1.06407
1.06421
1.06435
1.06449
1.06462
1.06476
1.0649
1.06503
1.06517
1.0653
1.06543
1.06556
1.06569
1.06582
1.06595
1.06608
1.06621
1.06633
1.06646
1.06659
1.06671
1.06684
1.06697
1.06709
1.06722
1.06735
1.06748
1.06761
1.06774
1.06788
1.06801
1.06816
1.0683
1.06845
1.0686
1.06876
1.06893
1.06911
1.06929
1.06948
1.06968
1.06989
1.07011
1.07035
1.0706
1.07086
1.07114
1.07143
1.07174
1.07206
1.0724
1.07276
1.07313
1.07352
1.07393
1.07435
1.07478
1.07524
1.0757
1.07618
1.07666
1.07716
1.07767
1.07818
1.0787
1.07922
1.07974
1.08026
1.08078
1.08129
1.0818
1.0823
1.08279
1.08327
1.08374
1.08419
1.08463
1.08505
1.08546
1.08584
1.08621
1.08656
1.08689
1.08719
1.08748
1.08774
1.08799
1.08821
1.08841
1.08859
1.08875
1.08889
1.08901
1.08911
1.08919
1.08924
1.08928
1.0893
1.08931
1.08929
1.08926
1.08921
1.08915
1.08907
1.08897
1.08887
1.08875
1.08862
1.08848
1.08833
1.08818
1.08801
1.08784
1.08767
1.08749
1.08732
1.08713
1.08695
1.08677
1.08659
1.08641
1.08623
1.08606
1.08589
1.08572
1.08556
1.0854
1.08524
1.0851
1.08495
1.08481
1.08468
1.08455
1.08443
1.08432
1.08421
1.08411
1.08402
1.08394
1.08387
1.0838
1.08375
1.08371
1.08369
1.08368
1.08369
1.08371
1.08375
1.08382
1.08391
1.08402
1.08416
1.08433
1.08453
1.08477
1.08504
1.08536
1.08571
1.08611
1.08656
1.08706
1.08762
1.08823
1.0889
1.08963
1.09043
1.09131
1.09225
1.09328
1.09439
1.0956
1.0969
1.09831
1.09984
1.10149
1.1033
1.10526
1.1074
1.10973
1.11226
1.11493
1.11766
1.12023
1.12221
1.12324
1.12302
1.04024
1.03986
1.03988
1.04025
1.04081
1.04147
1.04213
1.04275
1.04331
1.04379
1.0442
1.04455
1.04485
1.0451
1.0453
1.04548
1.04562
1.04574
1.04583
1.04591
1.04597
1.04602
1.04606
1.0461
1.04612
1.04614
1.04615
1.04616
1.04617
1.04617
1.04617
1.04618
1.04618
1.04618
1.04619
1.0462
1.04621
1.04622
1.04624
1.04627
1.0463
1.04633
1.04637
1.04642
1.04648
1.04654
1.04661
1.04669
1.04678
1.04688
1.04698
1.0471
1.04722
1.04736
1.0475
1.04765
1.04781
1.04799
1.04817
1.04836
1.04856
1.04878
1.049
1.04923
1.04947
1.04973
1.04999
1.05026
1.05054
1.05084
1.05114
1.05145
1.05178
1.05211
1.05245
1.0528
1.05316
1.05354
1.05391
1.0543
1.0547
1.0551
1.05551
1.05592
1.05634
1.05676
1.05718
1.05761
1.05803
1.05845
1.05887
1.05929
1.0597
1.0601
1.06049
1.06087
1.06125
1.0616
1.06195
1.06228
1.06259
1.06289
1.06316
1.06342
1.06365
1.06387
1.06406
1.06423
1.06438
1.06451
1.06461
1.06469
1.06475
1.06478
1.06479
1.06479
1.06476
1.06471
1.06465
1.06456
1.06447
1.06435
1.06423
1.06409
1.06394
1.06378
1.06362
1.06344
1.06326
1.06307
1.06288
1.06269
1.06249
1.06229
1.06209
1.06189
1.06169
1.06149
1.06129
1.06109
1.0609
1.06071
1.06052
1.06033
1.06015
1.05997
1.0598
1.05964
1.05948
1.05933
1.05918
1.05905
1.05892
1.05879
1.05868
1.05858
1.05848
1.0584
1.05832
1.05826
1.0582
1.05816
1.05812
1.0581
1.05809
1.05808
1.05809
1.0581
1.05813
1.05817
1.05821
1.05826
1.05833
1.0584
1.05847
1.05856
1.05865
1.05875
1.05886
1.05897
1.05909
1.05921
1.05933
1.05946
1.0596
1.05974
1.05988
1.06002
1.06016
1.06031
1.06046
1.06061
1.06076
1.06091
1.06107
1.06122
1.06137
1.06153
1.06168
1.06183
1.06199
1.06214
1.06229
1.06244
1.06259
1.06274
1.06289
1.06304
1.06318
1.06333
1.06347
1.06362
1.06376
1.0639
1.06404
1.06418
1.06431
1.06445
1.06459
1.06472
1.06485
1.06498
1.06511
1.06524
1.06537
1.0655
1.06563
1.06575
1.06588
1.06601
1.06613
1.06626
1.06638
1.0665
1.06663
1.06675
1.06688
1.067
1.06712
1.06725
1.06738
1.06751
1.06764
1.06777
1.06791
1.06805
1.06819
1.06834
1.06849
1.06865
1.06882
1.06899
1.06918
1.06937
1.06957
1.06978
1.07001
1.07024
1.07049
1.07076
1.07104
1.07133
1.07164
1.07197
1.07231
1.07267
1.07305
1.07344
1.07385
1.07427
1.07471
1.07517
1.07564
1.07612
1.07661
1.07711
1.07762
1.07813
1.07865
1.07917
1.0797
1.08022
1.08074
1.08125
1.08176
1.08226
1.08275
1.08323
1.0837
1.08415
1.08459
1.08501
1.08541
1.0858
1.08616
1.08651
1.08683
1.08714
1.08742
1.08769
1.08793
1.08815
1.08835
1.08853
1.08869
1.08883
1.08895
1.08904
1.08912
1.08918
1.08922
1.08924
1.08924
1.08923
1.08919
1.08914
1.08908
1.089
1.08891
1.0888
1.08868
1.08855
1.08841
1.08826
1.0881
1.08794
1.08777
1.0876
1.08742
1.08724
1.08706
1.08688
1.08669
1.08651
1.08633
1.08616
1.08598
1.08581
1.08565
1.08548
1.08532
1.08517
1.08502
1.08488
1.08474
1.08461
1.08448
1.08436
1.08425
1.08414
1.08404
1.08395
1.08387
1.08379
1.08373
1.08368
1.08364
1.08361
1.0836
1.0836
1.08363
1.08367
1.08373
1.08381
1.08392
1.08406
1.08423
1.08442
1.08466
1.08492
1.08523
1.08558
1.08598
1.08642
1.08691
1.08746
1.08806
1.08872
1.08944
1.09023
1.09109
1.09201
1.09302
1.0941
1.09527
1.09654
1.09789
1.09935
1.10092
1.10261
1.10442
1.10636
1.10842
1.11057
1.11274
1.11481
1.1166
1.11788
1.1184
1.11821
1.0415
1.04115
1.04109
1.04126
1.04161
1.04205
1.04252
1.043
1.04344
1.04384
1.0442
1.04451
1.04478
1.04501
1.0452
1.04536
1.0455
1.04561
1.04571
1.04579
1.04585
1.0459
1.04594
1.04598
1.046
1.04602
1.04604
1.04605
1.04606
1.04606
1.04607
1.04607
1.04608
1.04608
1.04609
1.0461
1.04611
1.04613
1.04615
1.04618
1.04621
1.04624
1.04629
1.04634
1.04639
1.04646
1.04653
1.04661
1.0467
1.0468
1.0469
1.04702
1.04714
1.04728
1.04742
1.04757
1.04773
1.04791
1.04809
1.04828
1.04848
1.0487
1.04892
1.04915
1.04939
1.04965
1.04991
1.05018
1.05047
1.05076
1.05106
1.05138
1.0517
1.05204
1.05238
1.05274
1.0531
1.05347
1.05385
1.05424
1.05464
1.05504
1.05546
1.05587
1.05629
1.05672
1.05714
1.05757
1.058
1.05843
1.05885
1.05927
1.05968
1.06009
1.06048
1.06087
1.06124
1.0616
1.06195
1.06228
1.06259
1.06289
1.06317
1.06342
1.06366
1.06388
1.06407
1.06424
1.06438
1.06451
1.06461
1.06469
1.06474
1.06477
1.06478
1.06477
1.06474
1.06469
1.06462
1.06453
1.06443
1.06431
1.06418
1.06404
1.06389
1.06372
1.06355
1.06338
1.06319
1.063
1.06281
1.06262
1.06242
1.06222
1.06202
1.06182
1.06161
1.06141
1.06122
1.06102
1.06082
1.06063
1.06045
1.06026
1.06008
1.05991
1.05974
1.05958
1.05942
1.05927
1.05913
1.059
1.05887
1.05875
1.05864
1.05854
1.05845
1.05837
1.05829
1.05823
1.05818
1.05814
1.05811
1.05809
1.05807
1.05807
1.05808
1.0581
1.05813
1.05817
1.05821
1.05827
1.05833
1.05841
1.05849
1.05857
1.05867
1.05877
1.05888
1.05899
1.05911
1.05923
1.05936
1.05949
1.05962
1.05976
1.0599
1.06004
1.06019
1.06034
1.06048
1.06063
1.06078
1.06094
1.06109
1.06124
1.06139
1.06154
1.06169
1.06185
1.062
1.06215
1.0623
1.06244
1.06259
1.06274
1.06288
1.06303
1.06317
1.06332
1.06346
1.0636
1.06373
1.06387
1.06401
1.06414
1.06428
1.06441
1.06454
1.06467
1.0648
1.06493
1.06506
1.06518
1.06531
1.06543
1.06556
1.06568
1.0658
1.06593
1.06605
1.06617
1.06629
1.06641
1.06653
1.06665
1.06677
1.0669
1.06702
1.06714
1.06727
1.06739
1.06752
1.06766
1.06779
1.06793
1.06807
1.06822
1.06837
1.06853
1.0687
1.06887
1.06905
1.06925
1.06945
1.06966
1.06989
1.07012
1.07038
1.07064
1.07092
1.07122
1.07153
1.07186
1.07221
1.07257
1.07295
1.07334
1.07376
1.07419
1.07463
1.07509
1.07556
1.07604
1.07654
1.07704
1.07755
1.07807
1.0786
1.07912
1.07965
1.08017
1.08069
1.08121
1.08172
1.08222
1.08271
1.08319
1.08365
1.0841
1.08454
1.08496
1.08536
1.08574
1.08611
1.08645
1.08677
1.08708
1.08736
1.08762
1.08787
1.08809
1.08829
1.08846
1.08862
1.08876
1.08888
1.08897
1.08905
1.08911
1.08915
1.08917
1.08917
1.08916
1.08912
1.08907
1.08901
1.08893
1.08883
1.08873
1.08861
1.08847
1.08833
1.08818
1.08802
1.08786
1.08769
1.08752
1.08734
1.08716
1.08698
1.08679
1.08661
1.08643
1.08625
1.08608
1.0859
1.08573
1.08557
1.0854
1.08524
1.08509
1.08494
1.0848
1.08466
1.08453
1.0844
1.08428
1.08417
1.08406
1.08396
1.08387
1.08379
1.08371
1.08365
1.0836
1.08355
1.08353
1.08351
1.08351
1.08353
1.08357
1.08363
1.08371
1.08381
1.08394
1.0841
1.0843
1.08452
1.08478
1.08508
1.08543
1.08581
1.08625
1.08673
1.08726
1.08785
1.0885
1.08921
1.08998
1.09081
1.09172
1.09269
1.09374
1.09487
1.09608
1.09738
1.09876
1.10024
1.1018
1.10346
1.10519
1.10698
1.10878
1.11053
1.11211
1.11339
1.11424
1.11453
1.11426
1.04244
1.04214
1.04204
1.04211
1.04231
1.0426
1.04294
1.0433
1.04364
1.04397
1.04427
1.04453
1.04477
1.04497
1.04514
1.04529
1.04542
1.04553
1.04562
1.04569
1.04575
1.0458
1.04584
1.04587
1.0459
1.04592
1.04593
1.04595
1.04595
1.04596
1.04597
1.04597
1.04598
1.04598
1.04599
1.046
1.04602
1.04604
1.04606
1.04608
1.04611
1.04615
1.0462
1.04625
1.0463
1.04637
1.04644
1.04652
1.04661
1.04671
1.04681
1.04693
1.04705
1.04719
1.04733
1.04748
1.04765
1.04782
1.048
1.04819
1.04839
1.04861
1.04883
1.04906
1.0493
1.04956
1.04982
1.05009
1.05038
1.05067
1.05097
1.05129
1.05162
1.05195
1.0523
1.05265
1.05302
1.05339
1.05378
1.05417
1.05457
1.05498
1.05539
1.05581
1.05623
1.05666
1.05709
1.05752
1.05796
1.05839
1.05881
1.05924
1.05965
1.06006
1.06046
1.06085
1.06123
1.06159
1.06194
1.06228
1.06259
1.06289
1.06317
1.06343
1.06366
1.06388
1.06407
1.06424
1.06438
1.06451
1.06461
1.06468
1.06473
1.06476
1.06477
1.06475
1.06472
1.06466
1.06459
1.0645
1.06439
1.06427
1.06413
1.06399
1.06383
1.06366
1.06349
1.06331
1.06312
1.06293
1.06274
1.06254
1.06234
1.06214
1.06194
1.06173
1.06153
1.06133
1.06113
1.06094
1.06074
1.06055
1.06037
1.06019
1.06001
1.05984
1.05967
1.05951
1.05936
1.05921
1.05907
1.05894
1.05882
1.0587
1.05859
1.0585
1.05841
1.05833
1.05826
1.0582
1.05815
1.05811
1.05809
1.05807
1.05806
1.05806
1.05807
1.05809
1.05812
1.05816
1.05821
1.05827
1.05834
1.05841
1.05849
1.05858
1.05868
1.05878
1.05889
1.05901
1.05913
1.05925
1.05938
1.05951
1.05965
1.05978
1.05992
1.06007
1.06021
1.06036
1.06051
1.06066
1.06081
1.06096
1.06111
1.06126
1.06141
1.06156
1.06171
1.06186
1.06201
1.06215
1.0623
1.06245
1.06259
1.06273
1.06288
1.06302
1.06316
1.0633
1.06343
1.06357
1.06371
1.06384
1.06397
1.0641
1.06423
1.06436
1.06449
1.06462
1.06474
1.06487
1.06499
1.06511
1.06524
1.06536
1.06548
1.0656
1.06572
1.06583
1.06595
1.06607
1.06619
1.06631
1.06642
1.06654
1.06666
1.06678
1.0669
1.06702
1.06714
1.06727
1.06739
1.06752
1.06766
1.06779
1.06793
1.06808
1.06823
1.06839
1.06856
1.06873
1.06891
1.0691
1.06931
1.06952
1.06975
1.06998
1.07024
1.07051
1.07079
1.07109
1.0714
1.07173
1.07208
1.07245
1.07283
1.07323
1.07365
1.07408
1.07453
1.07499
1.07546
1.07595
1.07645
1.07696
1.07747
1.078
1.07852
1.07905
1.07958
1.08011
1.08063
1.08115
1.08166
1.08216
1.08265
1.08313
1.0836
1.08405
1.08448
1.0849
1.0853
1.08568
1.08604
1.08639
1.08671
1.08701
1.08729
1.08755
1.08779
1.08801
1.08821
1.08839
1.08855
1.08868
1.0888
1.0889
1.08898
1.08903
1.08907
1.08909
1.0891
1.08908
1.08905
1.089
1.08893
1.08885
1.08876
1.08865
1.08853
1.08839
1.08825
1.0881
1.08794
1.08778
1.0876
1.08743
1.08725
1.08707
1.08689
1.0867
1.08652
1.08634
1.08616
1.08599
1.08581
1.08564
1.08548
1.08531
1.08516
1.085
1.08486
1.08471
1.08458
1.08444
1.08432
1.0842
1.08408
1.08398
1.08388
1.08378
1.0837
1.08362
1.08356
1.0835
1.08346
1.08343
1.08341
1.08341
1.08342
1.08346
1.08351
1.08358
1.08368
1.08381
1.08396
1.08415
1.08437
1.08462
1.08491
1.08524
1.08562
1.08604
1.08651
1.08703
1.0876
1.08823
1.08892
1.08967
1.09048
1.09136
1.0923
1.09331
1.0944
1.09555
1.09678
1.09808
1.09945
1.10089
1.10239
1.10393
1.10548
1.10699
1.10841
1.10963
1.11058
1.11115
1.11131
1.111
1.04318
1.04291
1.04279
1.0428
1.04292
1.04311
1.04334
1.0436
1.04387
1.04413
1.04437
1.04459
1.04479
1.04497
1.04512
1.04525
1.04537
1.04546
1.04555
1.04561
1.04567
1.04572
1.04575
1.04578
1.04581
1.04583
1.04584
1.04585
1.04586
1.04587
1.04587
1.04588
1.04588
1.04589
1.0459
1.04591
1.04593
1.04594
1.04597
1.04599
1.04603
1.04606
1.04611
1.04616
1.04622
1.04628
1.04635
1.04643
1.04652
1.04662
1.04673
1.04684
1.04697
1.0471
1.04724
1.04739
1.04756
1.04773
1.04791
1.0481
1.0483
1.04851
1.04874
1.04897
1.04921
1.04946
1.04972
1.05
1.05028
1.05058
1.05088
1.0512
1.05152
1.05186
1.05221
1.05257
1.05293
1.05331
1.05369
1.05409
1.05449
1.0549
1.05532
1.05574
1.05617
1.0566
1.05703
1.05747
1.05791
1.05834
1.05877
1.0592
1.05962
1.06003
1.06043
1.06083
1.06121
1.06158
1.06193
1.06226
1.06258
1.06288
1.06316
1.06342
1.06366
1.06387
1.06406
1.06423
1.06438
1.0645
1.0646
1.06467
1.06472
1.06475
1.06475
1.06473
1.06469
1.06463
1.06455
1.06446
1.06435
1.06422
1.06408
1.06393
1.06377
1.0636
1.06342
1.06324
1.06305
1.06286
1.06266
1.06246
1.06226
1.06206
1.06185
1.06165
1.06145
1.06125
1.06105
1.06086
1.06066
1.06048
1.06029
1.06011
1.05994
1.05977
1.0596
1.05944
1.05929
1.05915
1.05901
1.05888
1.05876
1.05865
1.05855
1.05845
1.05837
1.05829
1.05823
1.05817
1.05813
1.05809
1.05807
1.05805
1.05805
1.05805
1.05806
1.05809
1.05812
1.05817
1.05822
1.05828
1.05835
1.05842
1.05851
1.0586
1.0587
1.0588
1.05891