# vtk DataFile Version 2.0
LBE mesh
ASCII
DATASET STRUCTURED_POINTS
DIMENSIONS 400 100 1
ASPECT_RATIO 1 1 1
ORIGIN 0 0 0
POINT_DATA 40000
SCALARS rho double 1
LOOKUP_TABLE default
1.0188
1.06892
1.08409
1.08822
1.09046
1.09214
1.0933
1.09406
1.09458
1.09494
1.09521
1.09541
1.09555
1.09565
1.09571
1.09575
1.09576
1.09576
1.09574
1.0957
1.09566
1.0956
1.09554
1.09547
1.09539
1.0953
1.09522
1.09512
1.09503
1.09493
1.09483
1.09472
1.09462
1.09451
1.09441
1.0943
1.09419
1.09409
1.09398
1.09387
1.09377
1.09366
1.09356
1.09345
1.09335
1.09325
1.09315
1.09306
1.09296
1.09287
1.09278
1.09269
1.09261
1.09253
1.09245
1.09237
1.0923
1.09224
1.09217
1.09212
1.09206
1.09202
1.09197
1.09194
1.0919
1.09188
1.09186
1.09185
1.09184
1.09184
1.09185
1.09187
1.09189
1.09192
1.09196
1.092
1.09206
1.09212
1.09218
1.09226
1.09234
1.09243
1.09252
1.09262
1.09273
1.09284
1.09296
1.09308
1.09321
1.09334
1.09347
1.09361
1.09375
1.09389
1.09403
1.09417
1.09431
1.09445
1.09459
1.09472
1.09485
1.09498
1.0951
1.09522
1.09534
1.09544
1.09554
1.09564
1.09572
1.0958
1.09587
1.09593
1.09598
1.09603
1.09606
1.09608
1.09609
1.0961
1.09609
1.09608
1.09605
1.09602
1.09598
1.09593
1.09588
1.09582
1.09575
1.09568
1.09561
1.09554
1.09546
1.09538
1.0953
1.09521
1.09513
1.09506
1.09498
1.0949
1.09483
1.09476
1.09469
1.09463
1.09457
1.09451
1.09446
1.09442
1.09437
1.09433
1.0943
1.09427
1.09424
1.09422
1.0942
1.09419
1.09418
1.09417
1.09416
1.09416
1.09416
1.09417
1.09417
1.09418
1.0942
1.09421
1.09423
1.09424
1.09426
1.09429
1.09431
1.09434
1.09436
1.09439
1.09442
1.09445
1.09448
1.09452
1.09455
1.09459
1.09463
1.09466
1.0947
1.09474
1.09478
1.09482
1.09486
1.09491
1.09495
1.09499
1.09503
1.09508
1.09512
1.09516
1.0952
1.09524
1.09528
1.09532
1.09536
1.0954
1.09543
1.09547
1.0955
1.09553
1.09556
1.09558
1.09561
1.09563
1.09565
1.09567
1.09569
1.0957
1.09571
1.09572
1.09573
1.09574
1.09574
1.09574
1.09574
1.09574
1.09574
1.09574
1.09573
1.09572
1.09572
1.09571
1.0957
1.0957
1.09569
1.09568
1.09568
1.09567
1.09567
1.09566
1.09566
1.09566
1.09567
1.09567
1.09568
1.09569
1.0957
1.09572
1.09573
1.09576
1.09578
1.09581
1.09584
1.09587
1.09591
1.09595
1.096
1.09605
1.0961
1.09616
1.09622
1.09628
1.09635
1.09642
1.0965
1.09658
1.09666
1.09674
1.09683
1.09693
1.09702
1.09712
1.09722
1.09733
1.09743
1.09754
1.09766
1.09777
1.09789
1.09801
1.09813
1.09825
1.09837
1.09849
1.09861
1.09873
1.09885
1.09897
1.09909
1.0992
1.09932
1.09943
1.09954
1.09964
1.09974
1.09984
1.09994
1.10004
1.10013
1.10021
1.1003
1.10038
1.10046
1.10054
1.10061
1.10068
1.10075
1.10082
1.10088
1.10095
1.10101
1.10107
1.10112
1.10118
1.10123
1.10128
1.10133
1.10138
1.10143
1.10147
1.10151
1.10155
1.10158
1.10161
1.10164
1.10167
1.10169
1.1017
1.10172
1.10173
1.10173
1.10173
1.10173
1.10172
1.10171
1.10169
1.10167
1.10164
1.10162
1.10158
1.10154
1.1015
1.10146
1.10141
1.10136
1.10131
1.10126
1.1012
1.10115
1.10109
1.10103
1.10098
1.10092
1.10087
1.10081
1.10077
1.10072
1.10068
1.10065
1.10062
1.1006
1.10058
1.10058
1.10059
1.10061
1.10064
1.10069
1.10075
1.10083
1.10093
1.10105
1.1012
1.10136
1.10155
1.10177
1.10202
1.10229
1.1026
1.10295
1.10333
1.10375
1.10421
1.10471
1.10525
1.10585
1.1065
1.10719
1.10795
1.10877
1.10966
1.11062
1.11166
1.11278
1.11401
1.11535
1.11682
1.11845
1.12026
1.1223
1.12462
1.12733
1.13053
1.13445
1.13954
1.14655
1.1564
1.17204
1.20596
1.05413
1.06619
1.07675
1.08428
1.0883
1.0905
1.09192
1.09293
1.09366
1.09418
1.09457
1.09486
1.09507
1.09523
1.09534
1.09542
1.09547
1.09549
1.0955
1.09548
1.09546
1.09542
1.09537
1.09531
1.09524
1.09517
1.09509
1.09501
1.09492
1.09483
1.09473
1.09463
1.09453
1.09443
1.09433
1.09423
1.09413
1.09402
1.09392
1.09382
1.09371
1.09361
1.09351
1.09341
1.09331
1.09321
1.09312
1.09302
1.09293
1.09284
1.09275
1.09267
1.09258
1.0925
1.09243
1.09236
1.09229
1.09222
1.09216
1.09211
1.09205
1.09201
1.09197
1.09193
1.0919
1.09188
1.09186
1.09185
1.09185
1.09185
1.09186
1.09188
1.0919
1.09194
1.09197
1.09202
1.09207
1.09214
1.0922
1.09228
1.09236
1.09245
1.09254
1.09265
1.09275
1.09287
1.09298
1.09311
1.09323
1.09336
1.0935
1.09363
1.09377
1.09391
1.09405
1.09419
1.09433
1.09447
1.09461
1.09474
1.09487
1.095
1.09512
1.09524
1.09535
1.09546
1.09556
1.09565
1.09573
1.09581
1.09588
1.09594
1.09599
1.09603
1.09606
1.09608
1.09609
1.09609
1.09609
1.09607
1.09605
1.09601
1.09597
1.09592
1.09587
1.09581
1.09575
1.09568
1.0956
1.09553
1.09545
1.09537
1.09529
1.09521
1.09513
1.09505
1.09498
1.0949
1.09483
1.09476
1.0947
1.09463
1.09457
1.09452
1.09447
1.09442
1.09438
1.09434
1.09431
1.09428
1.09425
1.09423
1.09421
1.0942
1.09419
1.09418
1.09418
1.09417
1.09418
1.09418
1.09419
1.0942
1.09421
1.09422
1.09424
1.09426
1.09428
1.0943
1.09432
1.09435
1.09438
1.0944
1.09443
1.09446
1.0945
1.09453
1.09457
1.0946
1.09464
1.09468
1.09471
1.09475
1.09479
1.09484
1.09488
1.09492
1.09496
1.095
1.09505
1.09509
1.09513
1.09517
1.09521
1.09526
1.0953
1.09533
1.09537
1.09541
1.09544
1.09548
1.09551
1.09554
1.09557
1.0956
1.09562
1.09564
1.09566
1.09568
1.0957
1.09571
1.09572
1.09573
1.09574
1.09575
1.09575
1.09575
1.09575
1.09575
1.09575
1.09575
1.09574
1.09573
1.09573
1.09572
1.09571
1.09571
1.0957
1.09569
1.09569
1.09568
1.09568
1.09568
1.09567
1.09568
1.09568
1.09568
1.09569
1.0957
1.09571
1.09573
1.09575
1.09577
1.0958
1.09582
1.09586
1.09589
1.09593
1.09597
1.09602
1.09607
1.09612
1.09618
1.09624
1.09631
1.09638
1.09645
1.09652
1.0966
1.09669
1.09677
1.09686
1.09696
1.09705
1.09715
1.09726
1.09736
1.09747
1.09758
1.09769
1.09781
1.09792
1.09804
1.09816
1.09828
1.0984
1.09852
1.09864
1.09876
1.09888
1.099
1.09912
1.09923
1.09935
1.09946
1.09956
1.09967
1.09977
1.09987
1.09996
1.10006
1.10015
1.10023
1.10032
1.1004
1.10048
1.10055
1.10062
1.10069
1.10076
1.10083
1.10089
1.10096
1.10102
1.10107
1.10113
1.10119
1.10124
1.10129
1.10134
1.10139
1.10143
1.10147
1.10151
1.10155
1.10158
1.10162
1.10164
1.10167
1.10169
1.1017
1.10172
1.10173
1.10173
1.10173
1.10173
1.10172
1.1017
1.10169
1.10167
1.10164
1.10161
1.10158
1.10154
1.1015
1.10146
1.10141
1.10136
1.10131
1.10126
1.1012
1.10115
1.10109
1.10103
1.10098
1.10092
1.10087
1.10082
1.10077
1.10073
1.10069
1.10066
1.10063
1.10061
1.1006
1.1006
1.10061
1.10063
1.10067
1.10072
1.10079
1.10087
1.10098
1.1011
1.10125
1.10142
1.10161
1.10184
1.10209
1.10237
1.10269
1.10304
1.10342
1.10385
1.10431
1.10482
1.10538
1.10598
1.10664
1.10735
1.10811
1.10895
1.10985
1.11082
1.11188
1.11303
1.11428
1.11565
1.11716
1.11883
1.1207
1.12282
1.12526
1.1281
1.13152
1.13575
1.1411
1.14814
1.15861
1.17661
1.20434
1.07185
1.07262
1.07871
1.08368
1.08693
1.08925
1.0909
1.09206
1.09291
1.09354
1.09401
1.09437
1.09465
1.09485
1.09501
1.09512
1.0952
1.09525
1.09527
1.09528
1.09527
1.09525
1.09521
1.09516
1.09511
1.09504
1.09497
1.0949
1.09482
1.09473
1.09464
1.09455
1.09446
1.09436
1.09426
1.09417
1.09407
1.09397
1.09387
1.09377
1.09367
1.09357
1.09347
1.09337
1.09327
1.09318
1.09308
1.09299
1.0929
1.09281
1.09273
1.09264
1.09256
1.09248
1.09241
1.09234
1.09227
1.09221
1.09215
1.09209
1.09204
1.092
1.09196
1.09193
1.0919
1.09188
1.09186
1.09185
1.09185
1.09186
1.09187
1.09189
1.09191
1.09195
1.09199
1.09203
1.09209
1.09215
1.09222
1.0923
1.09238
1.09247
1.09257
1.09267
1.09278
1.09289
1.09301
1.09313
1.09326
1.09339
1.09353
1.09366
1.0938
1.09394
1.09408
1.09422
1.09436
1.0945
1.09464
1.09477
1.0949
1.09503
1.09515
1.09527
1.09538
1.09548
1.09558
1.09567
1.09576
1.09583
1.0959
1.09596
1.09601
1.09605
1.09608
1.0961
1.09611
1.09611
1.0961
1.09608
1.09606
1.09602
1.09598
1.09593
1.09588
1.09582
1.09575
1.09568
1.09561
1.09554
1.09546
1.09538
1.0953
1.09522
1.09514
1.09506
1.09499
1.09491
1.09484
1.09477
1.09471
1.09465
1.09459
1.09454
1.09449
1.09444
1.0944
1.09436
1.09433
1.0943
1.09427
1.09425
1.09423
1.09422
1.09421
1.0942
1.0942
1.0942
1.0942
1.0942
1.09421
1.09422
1.09423
1.09424
1.09426
1.09428
1.0943
1.09432
1.09435
1.09437
1.0944
1.09443
1.09446
1.09449
1.09452
1.09455
1.09459
1.09462
1.09466
1.0947
1.09474
1.09478
1.09482
1.09486
1.0949
1.09494
1.09499
1.09503
1.09507
1.09511
1.09515
1.0952
1.09524
1.09528
1.09532
1.09536
1.09539
1.09543
1.09547
1.0955
1.09553
1.09556
1.09559
1.09562
1.09564
1.09566
1.09568
1.0957
1.09572
1.09573
1.09574
1.09575
1.09576
1.09577
1.09577
1.09577
1.09577
1.09577
1.09577
1.09576
1.09576
1.09575
1.09575
1.09574
1.09573
1.09573
1.09572
1.09571
1.09571
1.0957
1.0957
1.0957
1.09569
1.0957
1.0957
1.0957
1.09571
1.09572
1.09573
1.09575
1.09577
1.09579
1.09582
1.09585
1.09588
1.09591
1.09595
1.096
1.09604
1.09609
1.09615
1.09621
1.09627
1.09633
1.0964
1.09648
1.09655
1.09663
1.09672
1.0968
1.09689
1.09699
1.09709
1.09719
1.09729
1.0974
1.09751
1.09762
1.09773
1.09785
1.09796
1.09808
1.0982
1.09832
1.09845
1.09857
1.09869
1.09881
1.09893
1.09905
1.09916
1.09928
1.09939
1.0995
1.0996
1.09971
1.09981
1.0999
1.1
1.10009
1.10018
1.10026
1.10035
1.10043
1.1005
1.10058
1.10065
1.10072
1.10079
1.10085
1.10092
1.10098
1.10104
1.10109
1.10115
1.10121
1.10126
1.10131
1.10136
1.1014
1.10145
1.10149
1.10153
1.10157
1.1016
1.10163
1.10166
1.10168
1.1017
1.10172
1.10173
1.10174
1.10174
1.10174
1.10174
1.10173
1.10172
1.1017
1.10168
1.10165
1.10162
1.10159
1.10155
1.10151
1.10146
1.10142
1.10137
1.10131
1.10126
1.10121
1.10115
1.10109
1.10104
1.10098
1.10093
1.10087
1.10082
1.10078
1.10073
1.1007
1.10066
1.10064
1.10062
1.10061
1.10061
1.10062
1.10065
1.10069
1.10074
1.10081
1.10089
1.101
1.10113
1.10128
1.10145
1.10165
1.10188
1.10213
1.10242
1.10274
1.10309
1.10349
1.10392
1.10439
1.1049
1.10546
1.10607
1.10673
1.10745
1.10823
1.10906
1.10997
1.11096
1.11202
1.11318
1.11444
1.11582
1.11734
1.11903
1.12092
1.12305
1.12549
1.12834
1.13171
1.13581
1.14095
1.14762
1.15606
1.16524
1.17329
1.08023
1.0796
1.08174
1.08431
1.08686
1.08888
1.09037
1.09151
1.09238
1.09305
1.09357
1.09397
1.09429
1.09453
1.09472
1.09486
1.09496
1.09503
1.09508
1.0951
1.09511
1.0951
1.09507
1.09503
1.09499
1.09493
1.09487
1.0948
1.09473
1.09465
1.09457
1.09448
1.09439
1.0943
1.09421
1.09411
1.09402
1.09392
1.09382
1.09372
1.09363
1.09353
1.09343
1.09334
1.09324
1.09315
1.09306
1.09296
1.09288
1.09279
1.0927
1.09262
1.09254
1.09247
1.09239
1.09232
1.09226
1.09219
1.09214
1.09208
1.09204
1.09199
1.09195
1.09192
1.0919
1.09188
1.09186
1.09185
1.09185
1.09186
1.09187
1.09189
1.09192
1.09196
1.092
1.09205
1.0921
1.09217
1.09224
1.09232
1.0924
1.09249
1.09259
1.09269
1.0928
1.09292
1.09304
1.09316
1.09329
1.09342
1.09356
1.0937
1.09384
1.09398
1.09412
1.09426
1.0944
1.09454
1.09467
1.09481
1.09494
1.09506
1.09519
1.0953
1.09542
1.09552
1.09562
1.09571
1.09579
1.09587
1.09594
1.09599
1.09604
1.09608
1.09611
1.09613
1.09614
1.09614
1.09613
1.09611
1.09609
1.09605
1.09601
1.09596
1.0959
1.09584
1.09578
1.09571
1.09563
1.09556
1.09548
1.0954
1.09532
1.09524
1.09516
1.09509
1.09501
1.09494
1.09487
1.0948
1.09473
1.09467
1.09462
1.09456
1.09451
1.09447
1.09443
1.09439
1.09436
1.09433
1.0943
1.09428
1.09426
1.09425
1.09424
1.09423
1.09423
1.09423
1.09423
1.09423
1.09424
1.09425
1.09426
1.09428
1.09429
1.09431
1.09433
1.09435
1.09438
1.0944
1.09443
1.09446
1.09449
1.09452
1.09455
1.09459
1.09462
1.09466
1.0947
1.09473
1.09477
1.09481
1.09485
1.09489
1.09494
1.09498
1.09502
1.09506
1.09511
1.09515
1.09519
1.09523
1.09527
1.09531
1.09535
1.09539
1.09543
1.09547
1.0955
1.09553
1.09557
1.0956
1.09562
1.09565
1.09567
1.0957
1.09572
1.09573
1.09575
1.09576
1.09578
1.09579
1.09579
1.0958
1.0958
1.0958
1.0958
1.0958
1.0958
1.09579
1.09579
1.09578
1.09578
1.09577
1.09576
1.09575
1.09575
1.09574
1.09573
1.09573
1.09573
1.09572
1.09572
1.09572
1.09572
1.09573
1.09574
1.09575
1.09576
1.09578
1.09579
1.09582
1.09584
1.09587
1.0959
1.09594
1.09598
1.09602
1.09607
1.09612
1.09617
1.09623
1.09629
1.09636
1.09643
1.0965
1.09658
1.09666
1.09675
1.09683
1.09693
1.09702
1.09712
1.09722
1.09733
1.09744
1.09755
1.09766
1.09777
1.09789
1.09801
1.09813
1.09825
1.09837
1.0985
1.09862
1.09874
1.09886
1.09898
1.0991
1.09921
1.09933
1.09944
1.09955
1.09965
1.09976
1.09986
1.09995
1.10005
1.10014
1.10022
1.10031
1.10039
1.10047
1.10054
1.10062
1.10069
1.10075
1.10082
1.10089
1.10095
1.10101
1.10107
1.10113
1.10118
1.10123
1.10129
1.10134
1.10139
1.10143
1.10148
1.10152
1.10156
1.1016
1.10163
1.10166
1.10169
1.10171
1.10173
1.10175
1.10176
1.10177
1.10177
1.10177
1.10176
1.10175
1.10174
1.10172
1.1017
1.10167
1.10164
1.1016
1.10157
1.10152
1.10148
1.10143
1.10138
1.10133
1.10127
1.10122
1.10116
1.1011
1.10105
1.10099
1.10093
1.10088
1.10083
1.10078
1.10074
1.1007
1.10067
1.10064
1.10063
1.10062
1.10062
1.10063
1.10065
1.10069
1.10075
1.10082
1.1009
1.10101
1.10114
1.10129
1.10147
1.10167
1.1019
1.10216
1.10244
1.10277
1.10313
1.10352
1.10395
1.10443
1.10495
1.10551
1.10612
1.10679
1.10751
1.10829
1.10913
1.11004
1.11102
1.11209
1.11324
1.1145
1.11588
1.11738
1.11905
1.12091
1.123
1.12536
1.12809
1.13126
1.13499
1.13938
1.14448
1.1501
1.15467
1.15467
1.08429
1.08381
1.08451
1.08591
1.08754
1.089
1.09025
1.09127
1.09209
1.09274
1.09326
1.09368
1.09401
1.09427
1.09448
1.09464
1.09476
1.09485
1.09491
1.09495
1.09496
1.09496
1.09495
1.09492
1.09489
1.09484
1.09478
1.09472
1.09465
1.09458
1.0945
1.09442
1.09434
1.09425
1.09416
1.09407
1.09397
1.09388
1.09379
1.09369
1.09359
1.0935
1.0934
1.09331
1.09322
1.09312
1.09303
1.09294
1.09286
1.09277
1.09269
1.0926
1.09253
1.09245
1.09238
1.09231
1.09224
1.09218
1.09213
1.09207
1.09203
1.09198
1.09195
1.09192
1.09189
1.09187
1.09186
1.09185
1.09185
1.09186
1.09187
1.0919
1.09193
1.09196
1.09201
1.09206
1.09211
1.09218
1.09225
1.09233
1.09242
1.09251
1.09261
1.09272
1.09283
1.09294
1.09307
1.09319
1.09332
1.09346
1.09359
1.09373
1.09387
1.09401
1.09416
1.0943
1.09444
1.09458
1.09472
1.09485
1.09498
1.09511
1.09523
1.09535
1.09546
1.09557
1.09567
1.09576
1.09584
1.09592
1.09599
1.09604
1.09609
1.09613
1.09616
1.09618
1.09619
1.09619
1.09618
1.09616
1.09613
1.0961
1.09605
1.096
1.09595
1.09588
1.09582
1.09575
1.09567
1.0956
1.09552
1.09544
1.09536
1.09528
1.0952
1.09512
1.09505
1.09497
1.0949
1.09483
1.09477
1.09471
1.09465
1.0946
1.09455
1.0945
1.09446
1.09443
1.09439
1.09436
1.09434
1.09432
1.0943
1.09429
1.09428
1.09427
1.09426
1.09426
1.09427
1.09427
1.09428
1.09429
1.0943
1.09432
1.09433
1.09435
1.09437
1.09439
1.09442
1.09444
1.09447
1.0945
1.09453
1.09456
1.0946
1.09463
1.09466
1.0947
1.09474
1.09478
1.09482
1.09486
1.0949
1.09494
1.09498
1.09502
1.09507
1.09511
1.09515
1.09519
1.09524
1.09528
1.09532
1.09536
1.0954
1.09544
1.09547
1.09551
1.09555
1.09558
1.09561
1.09564
1.09567
1.09569
1.09572
1.09574
1.09576
1.09578
1.09579
1.09581
1.09582
1.09583
1.09583
1.09584
1.09584
1.09584
1.09584
1.09584
1.09584
1.09583
1.09583
1.09582
1.09582
1.09581
1.0958
1.09579
1.09578
1.09578
1.09577
1.09576
1.09576
1.09576
1.09576
1.09576
1.09576
1.09576
1.09577
1.09578
1.09579
1.09581
1.09582
1.09585
1.09587
1.0959
1.09593
1.09597
1.09601
1.09605
1.0961
1.09615
1.0962
1.09626
1.09632
1.09639
1.09646
1.09653
1.09661
1.09669
1.09678
1.09687
1.09696
1.09706
1.09716
1.09726
1.09737
1.09748
1.09759
1.0977
1.09782
1.09794
1.09806
1.09818
1.09831
1.09843
1.09855
1.09868
1.0988
1.09892
1.09904
1.09916
1.09928
1.09939
1.0995
1.09961
1.09972
1.09982
1.09992
1.10001
1.10011
1.10019
1.10028
1.10036
1.10044
1.10052
1.10059
1.10066
1.10073
1.1008
1.10087
1.10093
1.10099
1.10105
1.10111
1.10117
1.10122
1.10128
1.10133
1.10138
1.10143
1.10147
1.10152
1.10156
1.1016
1.10164
1.10167
1.1017
1.10173
1.10175
1.10177
1.10179
1.1018
1.10181
1.10181
1.10181
1.1018
1.10179
1.10178
1.10176
1.10173
1.1017
1.10167
1.10164
1.1016
1.10155
1.10151
1.10146
1.1014
1.10135
1.10129
1.10124
1.10118
1.10112
1.10106
1.101
1.10095
1.10089
1.10084
1.10079
1.10075
1.10071
1.10067
1.10065
1.10063
1.10062
1.10062
1.10063
1.10065
1.10069
1.10074
1.10081
1.1009
1.10101
1.10114
1.10129
1.10146
1.10167
1.10189
1.10215
1.10244
1.10277
1.10313
1.10352
1.10396
1.10443
1.10495
1.10552
1.10613
1.1068
1.10752
1.10829
1.10913
1.11004
1.11102
1.11207
1.11321
1.11445
1.1158
1.11728
1.1189
1.12069
1.12268
1.1249
1.12741
1.13024
1.13343
1.13695
1.14057
1.1438
1.14598
1.14535
1.08692
1.0865
1.08671
1.08746
1.08844
1.08947
1.09044
1.09128
1.092
1.09259
1.09309
1.09349
1.09382
1.09409
1.0943
1.09447
1.0946
1.0947
1.09477
1.09481
1.09484
1.09485
1.09484
1.09483
1.0948
1.09476
1.09471
1.09465
1.09459
1.09452
1.09445
1.09437
1.09429
1.09421
1.09412
1.09403
1.09394
1.09385
1.09376
1.09366
1.09357
1.09348
1.09338
1.09329
1.0932
1.09311
1.09302
1.09293
1.09284
1.09276
1.09267
1.09259
1.09251
1.09244
1.09237
1.0923
1.09223
1.09217
1.09212
1.09206
1.09202
1.09198
1.09194
1.09191
1.09189
1.09187
1.09186
1.09185
1.09185
1.09186
1.09188
1.0919
1.09193
1.09197
1.09201
1.09207
1.09213
1.09219
1.09227
1.09235
1.09244
1.09253
1.09263
1.09274
1.09285
1.09297
1.09309
1.09322
1.09335
1.09349
1.09363
1.09377
1.09391
1.09406
1.0942
1.09434
1.09449
1.09463
1.09477
1.0949
1.09504
1.09516
1.09529
1.09541
1.09552
1.09563
1.09573
1.09582
1.0959
1.09598
1.09605
1.09611
1.09616
1.09619
1.09622
1.09624
1.09625
1.09625
1.09624
1.09622
1.09619
1.09615
1.09611
1.09606
1.096
1.09594
1.09587
1.0958
1.09572
1.09564
1.09557
1.09549
1.0954
1.09532
1.09525
1.09517
1.09509
1.09502
1.09495
1.09488
1.09482
1.09475
1.0947
1.09464
1.0946
1.09455
1.09451
1.09447
1.09444
1.09441
1.09439
1.09436
1.09435
1.09433
1.09432
1.09432
1.09431
1.09431
1.09431
1.09432
1.09433
1.09434
1.09435
1.09436
1.09438
1.0944
1.09442
1.09444
1.09447
1.09449
1.09452
1.09455
1.09458
1.09461
1.09465
1.09468
1.09472
1.09476
1.09479
1.09483
1.09487
1.09491
1.09495
1.09499
1.09504
1.09508
1.09512
1.09516
1.09521
1.09525
1.09529
1.09533
1.09537
1.09542
1.09545
1.09549
1.09553
1.09557
1.0956
1.09563
1.09567
1.0957
1.09572
1.09575
1.09577
1.09579
1.09581
1.09583
1.09585
1.09586
1.09587
1.09588
1.09589
1.09589
1.09589
1.0959
1.09589
1.09589
1.09589
1.09588
1.09588
1.09587
1.09586
1.09586
1.09585
1.09584
1.09583
1.09582
1.09582
1.09581
1.0958
1.0958
1.0958
1.0958
1.0958
1.0958
1.09581
1.09582
1.09583
1.09584
1.09586
1.09588
1.09591
1.09593
1.09596
1.096
1.09604
1.09608
1.09613
1.09618
1.09623
1.09629
1.09635
1.09642
1.09649
1.09656
1.09664
1.09672
1.09681
1.0969
1.09699
1.09709
1.09719
1.0973
1.09741
1.09752
1.09763
1.09775
1.09787
1.09799
1.09811
1.09824
1.09836
1.09849
1.09862
1.09874
1.09887
1.09899
1.09911
1.09923
1.09935
1.09946
1.09958
1.09969
1.09979
1.09989
1.09999
1.10008
1.10018
1.10026
1.10035
1.10043
1.10051
1.10058
1.10065
1.10072
1.10079
1.10086
1.10092
1.10098
1.10104
1.1011
1.10116
1.10122
1.10127
1.10132
1.10138
1.10143
1.10148
1.10152
1.10157
1.10161
1.10165
1.10169
1.10172
1.10175
1.10178
1.10181
1.10183
1.10184
1.10185
1.10186
1.10186
1.10186
1.10185
1.10184
1.10182
1.1018
1.10178
1.10175
1.10171
1.10168
1.10163
1.10159
1.10154
1.10149
1.10144
1.10138
1.10132
1.10126
1.1012
1.10114
1.10108
1.10102
1.10096
1.1009
1.10085
1.1008
1.10075
1.10071
1.10068
1.10065
1.10063
1.10061
1.10061
1.10062
1.10064
1.10068
1.10073
1.1008
1.10089
1.10099
1.10112
1.10127
1.10144
1.10165
1.10187
1.10213
1.10242
1.10275
1.1031
1.1035
1.10393
1.10441
1.10493
1.10549
1.1061
1.10677
1.10748
1.10825
1.10908
1.10998
1.11094
1.11198
1.1131
1.11431
1.11562
1.11704
1.11859
1.12028
1.12213
1.12417
1.12641
1.12885
1.13145
1.13412
1.13663
1.13856
1.13951
1.13925
1.08877
1.08835
1.08838
1.08877
1.08938
1.09008
1.0908
1.09147
1.09206
1.09258
1.09302
1.0934
1.09371
1.09397
1.09418
1.09435
1.09448
1.09458
1.09466
1.09471
1.09475
1.09476
1.09476
1.09475
1.09473
1.09469
1.09465
1.0946
1.09454
1.09447
1.09441
1.09433
1.09425
1.09417
1.09409
1.094
1.09392
1.09383
1.09374
1.09365
1.09355
1.09346
1.09337
1.09328
1.09319
1.0931
1.09301
1.09292
1.09283
1.09275
1.09266
1.09258
1.0925
1.09243
1.09236
1.09229
1.09223
1.09217
1.09211
1.09206
1.09201
1.09197
1.09193
1.0919
1.09188
1.09186
1.09185
1.09185
1.09185
1.09186
1.09188
1.0919
1.09193
1.09197
1.09202
1.09207
1.09213
1.0922
1.09228
1.09236
1.09245
1.09255
1.09265
1.09276
1.09288
1.093
1.09312
1.09325
1.09339
1.09352
1.09367
1.09381
1.09395
1.0941
1.09425
1.09439
1.09454
1.09468
1.09482
1.09496
1.09509
1.09522
1.09535
1.09547
1.09559
1.09569
1.0958
1.09589
1.09598
1.09605
1.09612
1.09618
1.09623
1.09627
1.0963
1.09632
1.09633
1.09633
1.09632
1.0963
1.09627
1.09623
1.09618
1.09613
1.09607
1.09601
1.09594
1.09586
1.09579
1.09571
1.09563
1.09555
1.09546
1.09538
1.0953
1.09523
1.09515
1.09507
1.095
1.09494
1.09487
1.09481
1.09475
1.0947
1.09465
1.0946
1.09456
1.09453
1.09449
1.09446
1.09444
1.09442
1.0944
1.09439
1.09438
1.09437
1.09437
1.09437
1.09437
1.09437
1.09438
1.09439
1.0944
1.09442
1.09444
1.09446
1.09448
1.0945
1.09453
1.09455
1.09458
1.09461
1.09464
1.09467
1.09471
1.09474
1.09478
1.09482
1.09486
1.0949
1.09494
1.09498
1.09502
1.09506
1.0951
1.09514
1.09519
1.09523
1.09527
1.09532
1.09536
1.0954
1.09544
1.09548
1.09552
1.09556
1.0956
1.09563
1.09567
1.0957
1.09573
1.09576
1.09579
1.09581
1.09584
1.09586
1.09588
1.0959
1.09591
1.09592
1.09593
1.09594
1.09595
1.09595
1.09596
1.09596
1.09596
1.09595
1.09595
1.09594
1.09594
1.09593
1.09592
1.09591
1.0959
1.09589
1.09588
1.09588
1.09587
1.09586
1.09585
1.09585
1.09585
1.09584
1.09585
1.09585
1.09585
1.09586
1.09587
1.09588
1.0959
1.09592
1.09594
1.09597
1.096
1.09603
1.09607
1.09611
1.09616
1.09621
1.09626
1.09632
1.09638
1.09645
1.09652
1.09659
1.09667
1.09676
1.09684
1.09693
1.09703
1.09713
1.09723
1.09734
1.09745
1.09756
1.09768
1.0978
1.09792
1.09805
1.09817
1.0983
1.09843
1.09856
1.09868
1.09881
1.09894
1.09907
1.09919
1.09931
1.09943
1.09955
1.09966
1.09977
1.09987
1.09997
1.10007
1.10017
1.10026
1.10034
1.10042
1.1005
1.10058
1.10065
1.10072
1.10079
1.10086
1.10092
1.10098
1.10105
1.1011
1.10116
1.10122
1.10128
1.10133
1.10138
1.10144
1.10149
1.10153
1.10158
1.10163
1.10167
1.10171
1.10175
1.10178
1.10182
1.10184
1.10187
1.10189
1.10191
1.10192
1.10192
1.10193
1.10192
1.10192
1.1019
1.10189
1.10186
1.10184
1.1018
1.10177
1.10173
1.10168
1.10164
1.10159
1.10153
1.10148
1.10142
1.10136
1.1013
1.10123
1.10117
1.10111
1.10104
1.10098
1.10092
1.10086
1.10081
1.10076
1.10072
1.10068
1.10065
1.10062
1.10061
1.1006
1.10061
1.10063
1.10066
1.10071
1.10078
1.10086
1.10096
1.10109
1.10124
1.10141
1.10161
1.10183
1.10209
1.10238
1.1027
1.10305
1.10345
1.10388
1.10435
1.10487
1.10543
1.10603
1.10669
1.10739
1.10816
1.10897
1.10985
1.1108
1.11181
1.1129
1.11407
1.11532
1.11667
1.11813
1.11971
1.1214
1.12323
1.12518
1.12723
1.12931
1.13129
1.13301
1.13422
1.13468
1.13443
1.0901
1.08973
1.08967
1.08986
1.09024
1.09072
1.09123
1.09175
1.09223
1.09267
1.09305
1.09339
1.09367
1.09391
1.09411
1.09427
1.0944
1.09451
1.09458
1.09464
1.09468
1.0947
1.0947
1.09469
1.09467
1.09464
1.0946
1.09455
1.0945
1.09444
1.09437
1.0943
1.09423
1.09415
1.09407
1.09399
1.0939
1.09381
1.09372
1.09363
1.09354
1.09345
1.09336
1.09327
1.09318
1.09309
1.093
1.09291
1.09283
1.09274
1.09266
1.09258
1.0925
1.09243
1.09235
1.09229
1.09222
1.09216
1.09211
1.09205
1.09201
1.09197
1.09193
1.0919
1.09188
1.09186
1.09185
1.09185
1.09185
1.09186
1.09188
1.09191
1.09194
1.09198
1.09203
1.09208
1.09215
1.09222
1.09229
1.09238
1.09247
1.09257
1.09267
1.09278
1.0929
1.09302
1.09315
1.09329
1.09342
1.09356
1.09371
1.09385
1.094
1.09415
1.0943
1.09444
1.09459
1.09474
1.09488
1.09502
1.09516
1.09529
1.09542
1.09554
1.09566
1.09577
1.09587
1.09597
1.09606
1.09614
1.09621
1.09627
1.09632
1.09636
1.09639
1.09641
1.09642
1.09642
1.0964
1.09638
1.09635
1.09631
1.09627
1.09621
1.09615
1.09608
1.09601
1.09594
1.09586
1.09578
1.0957
1.09562
1.09553
1.09545
1.09537
1.09529
1.09521
1.09514
1.09507
1.095
1.09494
1.09487
1.09482
1.09476
1.09471
1.09467
1.09463
1.09459
1.09456
1.09453
1.0945
1.09448
1.09446
1.09445
1.09444
1.09443
1.09443
1.09443
1.09443
1.09444
1.09445
1.09446
1.09447
1.09448
1.0945
1.09452
1.09454
1.09457
1.09459
1.09462
1.09465
1.09468
1.09471
1.09474
1.09478
1.09481
1.09485
1.09489
1.09493
1.09497
1.09501
1.09505
1.09509
1.09513
1.09518
1.09522
1.09526
1.09531
1.09535
1.09539
1.09543
1.09548
1.09552
1.09556
1.0956
1.09564
1.09567
1.09571
1.09574
1.09578
1.09581
1.09584
1.09586
1.09589
1.09591
1.09593
1.09595
1.09597
1.09598
1.096
1.09601
1.09601
1.09602
1.09602
1.09603
1.09603
1.09602
1.09602
1.09602
1.09601
1.096
1.096
1.09599
1.09598
1.09597
1.09596
1.09595
1.09594
1.09593
1.09592
1.09591
1.09591
1.0959
1.0959
1.0959
1.0959
1.0959
1.09591
1.09592
1.09593
1.09595
1.09596
1.09599
1.09601
1.09604
1.09607
1.09611
1.09615
1.09619
1.09624
1.0963
1.09635
1.09642
1.09648
1.09655
1.09663
1.09671
1.09679
1.09688
1.09697
1.09707
1.09717
1.09727
1.09738
1.09749
1.09761
1.09773
1.09785
1.09798
1.0981
1.09823
1.09836
1.0985
1.09863
1.09876
1.09889
1.09902
1.09915
1.09927
1.0994
1.09952
1.09964
1.09975
1.09986
1.09996
1.10007
1.10016
1.10026
1.10034
1.10043
1.10051
1.10059
1.10066
1.10073
1.1008
1.10087
1.10093
1.101
1.10106
1.10112
1.10117
1.10123
1.10129
1.10134
1.1014
1.10145
1.1015
1.10155
1.1016
1.10165
1.1017
1.10174
1.10178
1.10182
1.10186
1.10189
1.10192
1.10194
1.10196
1.10198
1.10199
1.102
1.102
1.102
1.10199
1.10197
1.10196
1.10193
1.1019
1.10187
1.10183
1.10179
1.10174
1.10169
1.10164
1.10158
1.10152
1.10146
1.1014
1.10133
1.10127
1.1012
1.10114
1.10107
1.10101
1.10094
1.10088
1.10082
1.10077
1.10072
1.10068
1.10065
1.10062
1.1006
1.10059
1.1006
1.10061
1.10064
1.10069
1.10075
1.10083
1.10093
1.10105
1.10119
1.10136
1.10156
1.10178
1.10203
1.10231
1.10263
1.10298
1.10337
1.1038
1.10427
1.10477
1.10533
1.10593
1.10657
1.10727
1.10801
1.10882
1.10967
1.11059
1.11157
1.11262
1.11374
1.11493
1.11621
1.11757
1.11901
1.12054
1.12216
1.12383
1.12552
1.12716
1.12864
1.12983
1.1306
1.13084
1.13052
1.0911
1.09079
1.09069
1.09077
1.091
1.09132
1.0917
1.09209
1.09247
1.09283
1.09315
1.09344
1.09369
1.09391
1.09409
1.09425
1.09437
1.09447
1.09454
1.0946
1.09463
1.09466
1.09466
1.09466
1.09464
1.09461
1.09457
1.09453
1.09448
1.09442
1.09436
1.09429
1.09422
1.09414
1.09406
1.09398
1.09389
1.09381
1.09372
1.09363
1.09354
1.09345
1.09336
1.09327
1.09318
1.09309
1.093
1.09292
1.09283
1.09275
1.09266
1.09258
1.0925
1.09243
1.09236
1.09229
1.09222
1.09216
1.0921
1.09205
1.09201
1.09197
1.09193
1.0919
1.09188
1.09186
1.09185
1.09185
1.09185
1.09187
1.09188
1.09191
1.09194
1.09199
1.09203
1.09209
1.09216
1.09223
1.09231
1.09239
1.09249
1.09259
1.09269
1.09281
1.09292
1.09305
1.09318
1.09332
1.09345
1.0936
1.09374
1.09389
1.09404
1.09419
1.09435
1.0945
1.09465
1.0948
1.09494
1.09509
1.09522
1.09536
1.09549
1.09562
1.09574
1.09585
1.09596
1.09606
1.09615
1.09623
1.0963
1.09636
1.09642
1.09646
1.09649
1.09651
1.09652
1.09652
1.09651
1.09648
1.09645
1.09641
1.09636
1.09631
1.09624
1.09618
1.0961
1.09603
1.09595
1.09586
1.09578
1.0957
1.09561
1.09553
1.09545
1.09537
1.09529
1.09522
1.09514
1.09507
1.09501
1.09495
1.09489
1.09484
1.09479
1.09474
1.0947
1.09466
1.09463
1.0946
1.09457
1.09455
1.09453
1.09452
1.09451
1.0945
1.0945
1.0945
1.0945
1.09451
1.09452
1.09453
1.09454
1.09456
1.09457
1.0946
1.09462
1.09464
1.09467
1.0947
1.09472
1.09476
1.09479
1.09482
1.09486
1.09489
1.09493
1.09497
1.09501
1.09505
1.09509
1.09513
1.09517
1.09522
1.09526
1.0953
1.09535
1.09539
1.09543
1.09548
1.09552
1.09556
1.0956
1.09564
1.09568
1.09572
1.09576
1.09579
1.09583
1.09586
1.09589
1.09592
1.09595
1.09597
1.096
1.09602
1.09603
1.09605
1.09607
1.09608
1.09609
1.0961
1.0961
1.0961
1.09611
1.09611
1.0961
1.0961
1.09609
1.09609
1.09608
1.09607
1.09606
1.09605
1.09604
1.09603
1.09602
1.09601
1.096
1.09599
1.09598
1.09597
1.09596
1.09596
1.09596
1.09596
1.09596
1.09596
1.09597
1.09598
1.096
1.09601
1.09603
1.09606
1.09608
1.09611
1.09615
1.09619
1.09623
1.09628
1.09633
1.09639
1.09645
1.09652
1.09659
1.09666
1.09674
1.09682
1.09691
1.09701
1.0971
1.09721
1.09731
1.09742
1.09754
1.09766
1.09778
1.0979
1.09803
1.09816
1.0983
1.09843
1.09857
1.0987
1.09884
1.09897
1.0991
1.09924
1.09936
1.09949
1.09961
1.09973
1.09985
1.09996
1.10006
1.10017
1.10026
1.10035
1.10044
1.10053
1.10061
1.10068
1.10075
1.10082
1.10089
1.10095
1.10102
1.10108
1.10114
1.10119
1.10125
1.10131
1.10136
1.10142
1.10147
1.10152
1.10158
1.10163
1.10168
1.10172
1.10177
1.10182
1.10186
1.1019
1.10194
1.10197
1.102
1.10203
1.10205
1.10206
1.10208
1.10208
1.10208
1.10208
1.10207
1.10206
1.10204
1.10201
1.10198
1.10194
1.1019
1.10186
1.10181
1.10176
1.1017
1.10164
1.10158
1.10152
1.10145
1.10138
1.10131
1.10124
1.10117
1.1011
1.10103
1.10097
1.1009
1.10084
1.10079
1.10073
1.10069
1.10065
1.10062
1.10059
1.10058
1.10058
1.10059
1.10061
1.10065
1.10071
1.10079
1.10088
1.101
1.10113
1.1013
1.10149
1.10171
1.10195
1.10223
1.10254
1.10289
1.10327
1.10369
1.10415
1.10465
1.10519
1.10578
1.10641
1.10709
1.10782
1.1086
1.10944
1.11033
1.11127
1.11227
1.11334
1.11446
1.11565
1.11691
1.11822
1.11959
1.121
1.12242
1.12381
1.1251
1.12621
1.12706
1.12756
1.12766
1.12732
1.09189
1.09163
1.09151
1.09153
1.09167
1.09188
1.09215
1.09245
1.09274
1.09303
1.0933
1.09355
1.09376
1.09395
1.09412
1.09425
1.09437
1.09446
1.09453
1.09458
1.09462
1.09464
1.09464
1.09464
1.09462
1.09459
1.09456
1.09451
1.09446
1.09441
1.09435
1.09428
1.09421
1.09414
1.09406
1.09398
1.0939
1.09381
1.09373
1.09364
1.09355
1.09346
1.09337
1.09328
1.09319
1.0931
1.09301
1.09292
1.09284
1.09275
1.09267
1.09259
1.09251
1.09244
1.09236
1.09229
1.09223
1.09217
1.09211
1.09206
1.09201
1.09197
1.09194
1.09191
1.09188
1.09187
1.09186
1.09186
1.09186
1.09187
1.09189
1.09192
1.09195
1.092
1.09205
1.09211
1.09217
1.09224
1.09232
1.09241
1.09251
1.09261
1.09272
1.09283
1.09295
1.09308
1.09321
1.09335
1.09349
1.09364
1.09379
1.09394
1.09409
1.09425
1.0944
1.09455
1.09471
1.09486
1.09501
1.09515
1.0953
1.09544
1.09557
1.0957
1.09582
1.09594
1.09605
1.09615
1.09624
1.09633
1.0964
1.09647
1.09652
1.09656
1.0966
1.09662
1.09663
1.09663
1.09661
1.09659
1.09656
1.09652
1.09647
1.09641
1.09634
1.09627
1.0962
1.09612
1.09604
1.09596
1.09587
1.09579
1.0957
1.09562
1.09553
1.09545
1.09537
1.0953
1.09523
1.09516
1.09509
1.09503
1.09497
1.09492
1.09486
1.09482
1.09478
1.09474
1.09471
1.09468
1.09465
1.09463
1.09461
1.0946
1.09459
1.09458
1.09458
1.09458
1.09458
1.09459
1.0946
1.09461
1.09462
1.09464
1.09466
1.09468
1.0947
1.09472
1.09475
1.09478
1.09481
1.09484
1.09487
1.09491
1.09494
1.09498
1.09502
1.09506
1.0951
1.09514
1.09518
1.09522
1.09527