# vtk DataFile Version 2.0
LBE mesh
ASCII
DATASET STRUCTURED_POINTS
DIMENSIONS 400 100 1
ASPECT_RATIO 1 1 1
ORIGIN 0 0 0
POINT_DATA 40000
SCALARS rho double 1
LOOKUP_TABLE default
1.09264
1.16268
1.18318
1.18753
1.18969
1.19152
1.19284
1.1937
1.19429
1.19471
1.19504
1.19529
1.19548
1.19563
1.19574
1.19583
1.19589
1.19594
1.19597
1.19598
1.19599
1.19599
1.19597
1.19595
1.19592
1.19589
1.19585
1.19581
1.19576
1.19571
1.19565
1.19559
1.19553
1.19546
1.1954
1.19533
1.19526
1.19519
1.19512
1.19505
1.19498
1.19491
1.19484
1.19477
1.19471
1.19464
1.19458
1.19452
1.19446
1.19441
1.19436
1.19431
1.19427
1.19424
1.19421
1.19418
1.19416
1.19415
1.19414
1.19415
1.19416
1.19417
1.1942
1.19423
1.19427
1.19432
1.19438
1.19445
1.19453
1.19461
1.19471
1.19481
1.19493
1.19505
1.19518
1.19531
1.19546
1.19561
1.19578
1.19595
1.19612
1.1963
1.19649
1.19669
1.19689
1.19709
1.1973
1.19751
1.19773
1.19795
1.19817
1.19839
1.19861
1.19883
1.19905
1.19927
1.19949
1.1997
1.19991
1.20012
1.20032
1.20051
1.2007
1.20088
1.20105
1.20121
1.20137
1.20151
1.20165
1.20177
1.20189
1.20199
1.20208
1.20216
1.20222
1.20228
1.20232
1.20235
1.20236
1.20236
1.20235
1.20233
1.2023
1.20225
1.2022
1.20213
1.20206
1.20197
1.20188
1.20178
1.20168
1.20156
1.20145
1.20132
1.2012
1.20107
1.20094
1.2008
1.20066
1.20053
1.20039
1.20025
1.20012
1.19998
1.19985
1.19971
1.19958
1.19945
1.19933
1.1992
1.19908
1.19896
1.19885
1.19874
1.19863
1.19853
1.19843
1.19833
1.19824
1.19815
1.19806
1.19798
1.1979
1.19783
1.19776
1.19769
1.19762
1.19756
1.1975
1.19745
1.1974
1.19735
1.1973
1.19726
1.19721
1.19717
1.19714
1.1971
1.19707
1.19703
1.197
1.19697
1.19694
1.19691
1.19688
1.19686
1.19683
1.1968
1.19677
1.19674
1.19672
1.19669
1.19666
1.19663
1.1966
1.19657
1.19653
1.1965
1.19646
1.19643
1.19639
1.19635
1.19631
1.19627
1.19623
1.19618
1.19614
1.19609
1.19605
1.196
1.19595
1.1959
1.19585
1.1958
1.19575
1.1957
1.19565
1.1956
1.19555
1.19551
1.19546
1.19541
1.19537
1.19533
1.19529
1.19526
1.19522
1.19519
1.19517
1.19515
1.19513
1.19512
1.19511
1.19511
1.19511
1.19512
1.19513
1.19516
1.19519
1.19522
1.19527
1.19532
1.19538
1.19545
1.19553
1.19561
1.19571
1.19582
1.19593
1.19606
1.19619
1.19634
1.19649
1.19666
1.19683
1.19702
1.19722
1.19742
1.19764
1.19786
1.19809
1.19834
1.19859
1.19884
1.19911
1.19938
1.19966
1.19995
1.20024
1.20054
1.20083
1.20114
1.20144
1.20174
1.20205
1.20236
1.20266
1.20296
1.20326
1.20355
1.20384
1.20413
1.20441
1.20468
1.20494
1.2052
1.20545
1.20569
1.20592
1.20615
1.20636
1.20657
1.20676
1.20695
1.20713
1.2073
1.20747
1.20762
1.20777
1.20791
1.20804
1.20817
1.20829
1.2084
1.20851
1.20861
1.20871
1.2088
1.20889
1.20897
1.20905
1.20912
1.20919
1.20925
1.20931
1.20936
1.20941
1.20946
1.2095
1.20953
1.20956
1.20959
1.20961
1.20963
1.20964
1.20965
1.20966
1.20966
1.20966
1.20965
1.20965
1.20964
1.20963
1.20961
1.2096
1.20959
1.20957
1.20956
1.20955
1.20955
1.20955
1.20955
1.20956
1.20957
1.20959
1.20963
1.20967
1.20972
1.20978
1.20985
1.20994
1.21004
1.21016
1.21029
1.21045
1.21062
1.21081
1.21102
1.21125
1.2115
1.21178
1.21208
1.21241
1.21276
1.21314
1.21355
1.21399
1.21446
1.21496
1.21549
1.21606
1.21666
1.2173
1.21798
1.2187
1.21946
1.22026
1.22111
1.22202
1.22297
1.22399
1.22507
1.22622
1.22745
1.22877
1.2302
1.23174
1.23342
1.23527
1.23731
1.23961
1.24222
1.24524
1.24881
1.25317
1.2588
1.2666
1.27756
1.29429
1.32956
1.15109
1.16125
1.1729
1.18229
1.18718
1.1897
1.19127
1.19241
1.19324
1.19385
1.19431
1.19467
1.19494
1.19515
1.19532
1.19546
1.19556
1.19564
1.19569
1.19573
1.19576
1.19577
1.19578
1.19577
1.19576
1.19573
1.1957
1.19567
1.19563
1.19558
1.19553
1.19548
1.19543
1.19537
1.19531
1.19524
1.19518
1.19511
1.19505
1.19498
1.19491
1.19484
1.19478
1.19471
1.19465
1.19459
1.19453
1.19447
1.19441
1.19436
1.19432
1.19427
1.19423
1.1942
1.19417
1.19415
1.19413
1.19412
1.19412
1.19413
1.19414
1.19416
1.19418
1.19422
1.19426
1.19432
1.19438
1.19445
1.19453
1.19461
1.19471
1.19481
1.19493
1.19505
1.19518
1.19532
1.19547
1.19563
1.19579
1.19596
1.19614
1.19632
1.19651
1.1967
1.19691
1.19711
1.19732
1.19753
1.19775
1.19797
1.19819
1.19841
1.19863
1.19885
1.19907
1.19929
1.1995
1.19972
1.19993
1.20013
1.20033
1.20052
1.20071
1.20088
1.20105
1.20122
1.20137
1.20151
1.20165
1.20177
1.20188
1.20198
1.20207
1.20215
1.20221
1.20226
1.2023
1.20233
1.20234
1.20234
1.20233
1.20231
1.20227
1.20223
1.20217
1.20211
1.20203
1.20195
1.20185
1.20175
1.20165
1.20154
1.20142
1.2013
1.20117
1.20104
1.20091
1.20078
1.20064
1.2005
1.20037
1.20023
1.2001
1.19996
1.19983
1.1997
1.19957
1.19944
1.19931
1.19919
1.19907
1.19895
1.19884
1.19873
1.19862
1.19852
1.19842
1.19832
1.19823
1.19814
1.19806
1.19798
1.1979
1.19782
1.19775
1.19769
1.19762
1.19756
1.1975
1.19745
1.1974
1.19735
1.1973
1.19726
1.19721
1.19717
1.19714
1.1971
1.19707
1.19703
1.197
1.19697
1.19694
1.19691
1.19688
1.19686
1.19683
1.1968
1.19677
1.19674
1.19672
1.19669
1.19666
1.19663
1.1966
1.19656
1.19653
1.1965
1.19646
1.19643
1.19639
1.19635
1.19631
1.19627
1.19623
1.19618
1.19614
1.19609
1.19604
1.196
1.19595
1.1959
1.19585
1.1958
1.19575
1.1957
1.19565
1.1956
1.19556
1.19551
1.19546
1.19542
1.19538
1.19534
1.1953
1.19526
1.19523
1.1952
1.19518
1.19516
1.19514
1.19513
1.19512
1.19512
1.19512
1.19513
1.19515
1.19517
1.1952
1.19524
1.19529
1.19534
1.1954
1.19547
1.19555
1.19564
1.19574
1.19584
1.19596
1.19609
1.19622
1.19637
1.19653
1.19669
1.19687
1.19705
1.19725
1.19746
1.19767
1.1979
1.19813
1.19837
1.19862
1.19888
1.19915
1.19942
1.1997
1.19999
1.20028
1.20057
1.20087
1.20117
1.20147
1.20178
1.20208
1.20239
1.20269
1.20299
1.20328
1.20358
1.20386
1.20415
1.20442
1.20469
1.20496
1.20521
1.20546
1.2057
1.20593
1.20615
1.20636
1.20657
1.20676
1.20695
1.20713
1.2073
1.20746
1.20762
1.20776
1.2079
1.20803
1.20816
1.20828
1.20839
1.2085
1.2086
1.2087
1.20879
1.20888
1.20896
1.20904
1.20911
1.20918
1.20924
1.2093
1.20935
1.2094
1.20944
1.20948
1.20952
1.20955
1.20958
1.2096
1.20962
1.20963
1.20964
1.20964
1.20964
1.20964
1.20964
1.20963
1.20962
1.20961
1.2096
1.20959
1.20957
1.20956
1.20955
1.20954
1.20954
1.20954
1.20954
1.20955
1.20957
1.20959
1.20962
1.20967
1.20972
1.20978
1.20986
1.20995
1.21006
1.21018
1.21031
1.21047
1.21064
1.21084
1.21105
1.21128
1.21154
1.21182
1.21213
1.21246
1.21282
1.2132
1.21362
1.21406
1.21453
1.21504
1.21558
1.21615
1.21676
1.2174
1.21808
1.21881
1.21958
1.22039
1.22125
1.22216
1.22313
1.22415
1.22525
1.22641
1.22766
1.22901
1.23046
1.23203
1.23376
1.23566
1.23777
1.24016
1.24288
1.24607
1.24987
1.25457
1.26051
1.26827
1.27972
1.29954
1.33044
1.1704
1.16902
1.17602
1.18185
1.18553
1.18817
1.19007
1.19141
1.19238
1.19311
1.19367
1.1941
1.19445
1.19472
1.19493
1.1951
1.19524
1.19535
1.19543
1.19549
1.19554
1.19557
1.19559
1.19559
1.19559
1.19558
1.19556
1.19553
1.1955
1.19546
1.19542
1.19537
1.19532
1.19527
1.19521
1.19515
1.19509
1.19503
1.19497
1.1949
1.19484
1.19477
1.19471
1.19465
1.19459
1.19453
1.19447
1.19441
1.19436
1.19431
1.19427
1.19423
1.19419
1.19416
1.19413
1.19411
1.1941
1.19409
1.19409
1.1941
1.19411
1.19413
1.19416
1.1942
1.19424
1.1943
1.19436
1.19443
1.19451
1.1946
1.1947
1.19481
1.19492
1.19505
1.19518
1.19532
1.19547
1.19563
1.19579
1.19596
1.19614
1.19632
1.19652
1.19671
1.19691
1.19712
1.19733
1.19754
1.19776
1.19798
1.1982
1.19842
1.19864
1.19886
1.19909
1.1993
1.19952
1.19973
1.19994
1.20014
1.20034
1.20053
1.20072
1.20089
1.20106
1.20122
1.20138
1.20152
1.20165
1.20177
1.20188
1.20198
1.20207
1.20214
1.20221
1.20225
1.20229
1.20232
1.20233
1.20233
1.20232
1.20229
1.20226
1.20221
1.20215
1.20208
1.20201
1.20192
1.20183
1.20173
1.20162
1.20151
1.20139
1.20127
1.20115
1.20102
1.20089
1.20075
1.20062
1.20048
1.20035
1.20021
1.20008
1.19994
1.19981
1.19968
1.19955
1.19942
1.1993
1.19918
1.19906
1.19894
1.19883
1.19872
1.19862
1.19851
1.19841
1.19832
1.19823
1.19814
1.19805
1.19797
1.1979
1.19782
1.19775
1.19768
1.19762
1.19756
1.1975
1.19745
1.1974
1.19735
1.1973
1.19726
1.19722
1.19718
1.19714
1.1971
1.19707
1.19703
1.197
1.19697
1.19694
1.19691
1.19688
1.19686
1.19683
1.1968
1.19677
1.19674
1.19672
1.19669
1.19666
1.19663
1.1966
1.19656
1.19653
1.1965
1.19646
1.19643
1.19639
1.19635
1.19631
1.19627
1.19623
1.19618
1.19614
1.19609
1.19604
1.196
1.19595
1.1959
1.19585
1.1958
1.19575
1.1957
1.19565
1.19561
1.19556
1.19551
1.19547
1.19542
1.19538
1.19534
1.1953
1.19527
1.19524
1.19521
1.19518
1.19516
1.19515
1.19514
1.19513
1.19513
1.19513
1.19514
1.19516
1.19519
1.19522
1.19525
1.1953
1.19536
1.19542
1.19549
1.19557
1.19566
1.19576
1.19586
1.19598
1.19611
1.19625
1.19639
1.19655
1.19672
1.1969
1.19708
1.19728
1.19749
1.1977
1.19793
1.19816
1.19841
1.19866
1.19892
1.19918
1.19946
1.19974
1.20002
1.20031
1.20061
1.2009
1.20121
1.20151
1.20181
1.20212
1.20242
1.20272
1.20302
1.20331
1.20361
1.20389
1.20417
1.20445
1.20472
1.20498
1.20523
1.20548
1.20571
1.20594
1.20616
1.20637
1.20658
1.20677
1.20696
1.20713
1.2073
1.20746
1.20762
1.20776
1.2079
1.20803
1.20816
1.20828
1.20839
1.2085
1.2086
1.20869
1.20878
1.20887
1.20895
1.20903
1.2091
1.20917
1.20923
1.20929
1.20934
1.20939
1.20943
1.20947
1.20951
1.20954
1.20956
1.20958
1.2096
1.20961
1.20962
1.20963
1.20963
1.20963
1.20962
1.20961
1.2096
1.20959
1.20958
1.20957
1.20955
1.20954
1.20953
1.20953
1.20952
1.20952
1.20953
1.20954
1.20955
1.20958
1.20961
1.20966
1.20971
1.20978
1.20985
1.20995
1.21005
1.21018
1.21032
1.21047
1.21065
1.21084
1.21106
1.2113
1.21156
1.21184
1.21215
1.21249
1.21285
1.21323
1.21365
1.2141
1.21458
1.21508
1.21563
1.2162
1.21681
1.21746
1.21815
1.21888
1.21965
1.22046
1.22133
1.22225
1.22322
1.22425
1.22535
1.22653
1.22778
1.22914
1.2306
1.23218
1.23392
1.23583
1.23796
1.24036
1.2431
1.24629
1.25005
1.25459
1.2603
1.26768
1.27699
1.2871
1.29627
1.17849
1.17759
1.17983
1.18252
1.18542
1.18775
1.18946
1.19076
1.19176
1.19254
1.19315
1.19363
1.19402
1.19433
1.19458
1.19479
1.19495
1.19508
1.19519
1.19527
1.19533
1.19537
1.1954
1.19542
1.19543
1.19543
1.19542
1.1954
1.19537
1.19534
1.1953
1.19526
1.19522
1.19517
1.19512
1.19506
1.19501
1.19495
1.19489
1.19483
1.19477
1.1947
1.19464
1.19458
1.19452
1.19447
1.19441
1.19436
1.19431
1.19426
1.19422
1.19418
1.19414
1.19411
1.19409
1.19407
1.19406
1.19405
1.19405
1.19406
1.19407
1.1941
1.19413
1.19417
1.19421
1.19427
1.19433
1.19441
1.19449
1.19458
1.19468
1.19479
1.19491
1.19503
1.19517
1.19531
1.19546
1.19562
1.19578
1.19595
1.19613
1.19632
1.19651
1.19671
1.19691
1.19712
1.19733
1.19755
1.19777
1.19799
1.19821
1.19843
1.19865
1.19887
1.1991
1.19931
1.19953
1.19974
1.19995
1.20015
1.20035
1.20054
1.20073
1.2009
1.20107
1.20123
1.20139
1.20153
1.20166
1.20178
1.20189
1.20199
1.20207
1.20215
1.20221
1.20226
1.20229
1.20231
1.20233
1.20232
1.20231
1.20228
1.20225
1.2022
1.20214
1.20207
1.20199
1.20191
1.20181
1.20171
1.2016
1.20149
1.20137
1.20125
1.20112
1.201
1.20086
1.20073
1.2006
1.20046
1.20033
1.20019
1.20006
1.19992
1.19979
1.19966
1.19953
1.19941
1.19929
1.19916
1.19905
1.19893
1.19882
1.19871
1.19861
1.1985
1.19841
1.19831
1.19822
1.19813
1.19805
1.19797
1.19789
1.19782
1.19775
1.19768
1.19762
1.19756
1.1975
1.19745
1.1974
1.19735
1.1973
1.19726
1.19722
1.19718
1.19714
1.1971
1.19707
1.19704
1.19701
1.19697
1.19694
1.19692
1.19689
1.19686
1.19683
1.1968
1.19678
1.19675
1.19672
1.19669
1.19666
1.19663
1.1966
1.19657
1.19653
1.1965
1.19646
1.19643
1.19639
1.19635
1.19631
1.19627
1.19623
1.19618
1.19614
1.19609
1.19605
1.196
1.19595
1.1959
1.19585
1.1958
1.19576
1.19571
1.19566
1.19561
1.19556
1.19551
1.19547
1.19543
1.19538
1.19534
1.19531
1.19527
1.19524
1.19521
1.19519
1.19517
1.19515
1.19514
1.19514
1.19514
1.19514
1.19515
1.19517
1.19519
1.19523
1.19527
1.19531
1.19537
1.19543
1.1955
1.19558
1.19567
1.19577
1.19588
1.196
1.19613
1.19626
1.19641
1.19657
1.19674
1.19692
1.1971
1.1973
1.19751
1.19773
1.19795
1.19819
1.19843
1.19868
1.19894
1.19921
1.19949
1.19977
1.20005
1.20034
1.20064
1.20094
1.20124
1.20154
1.20185
1.20215
1.20245
1.20275
1.20305
1.20335
1.20364
1.20393
1.20421
1.20448
1.20475
1.20501
1.20526
1.2055
1.20574
1.20597
1.20618
1.20639
1.20659
1.20679
1.20697
1.20714
1.20731
1.20747
1.20762
1.20777
1.2079
1.20803
1.20816
1.20828
1.20839
1.20849
1.20859
1.20869
1.20878
1.20887
1.20895
1.20902
1.20909
1.20916
1.20922
1.20928
1.20933
1.20938
1.20942
1.20946
1.2095
1.20953
1.20955
1.20957
1.20959
1.2096
1.20961
1.20961
1.20961
1.20961
1.2096
1.2096
1.20959
1.20957
1.20956
1.20955
1.20953
1.20952
1.20951
1.2095
1.2095
1.2095
1.2095
1.20951
1.20953
1.20956
1.20959
1.20963
1.20969
1.20976
1.20983
1.20993
1.21004
1.21016
1.2103
1.21046
1.21063
1.21083
1.21105
1.21129
1.21155
1.21184
1.21215
1.21248
1.21285
1.21324
1.21366
1.2141
1.21458
1.21509
1.21564
1.21622
1.21683
1.21748
1.21817
1.2189
1.21967
1.22049
1.22136
1.22227
1.22325
1.22428
1.22538
1.22655
1.22781
1.22916
1.23061
1.23218
1.23391
1.2358
1.23789
1.24024
1.2429
1.24595
1.24949
1.25364
1.25852
1.26418
1.27043
1.27551
1.27558
1.18279
1.18232
1.18292
1.18441
1.18624
1.18788
1.18929
1.19046
1.1914
1.19216
1.19277
1.19327
1.19367
1.19401
1.19428
1.1945
1.19469
1.19484
1.19496
1.19505
1.19513
1.19519
1.19523
1.19526
1.19528
1.19528
1.19528
1.19527
1.19525
1.19522
1.19519
1.19516
1.19512
1.19507
1.19502
1.19497
1.19492
1.19486
1.19481
1.19475
1.19469
1.19463
1.19457
1.19451
1.19446
1.1944
1.19435
1.1943
1.19425
1.1942
1.19416
1.19412
1.19409
1.19406
1.19404
1.19402
1.19401
1.194
1.194
1.19401
1.19403
1.19405
1.19409
1.19413
1.19417
1.19423
1.1943
1.19437
1.19446
1.19455
1.19465
1.19476
1.19488
1.19501
1.19514
1.19529
1.19544
1.1956
1.19576
1.19594
1.19612
1.19631
1.1965
1.1967
1.19691
1.19711
1.19733
1.19754
1.19776
1.19799
1.19821
1.19843
1.19866
1.19888
1.1991
1.19932
1.19954
1.19975
1.19996
1.20016
1.20036
1.20055
1.20074
1.20092
1.20109
1.20125
1.2014
1.20154
1.20167
1.20179
1.2019
1.202
1.20208
1.20216
1.20222
1.20226
1.2023
1.20232
1.20233
1.20232
1.20231
1.20228
1.20224
1.20219
1.20213
1.20206
1.20198
1.20189
1.2018
1.20169
1.20159
1.20147
1.20135
1.20123
1.2011
1.20097
1.20084
1.20071
1.20058
1.20044
1.20031
1.20017
1.20004
1.19991
1.19978
1.19965
1.19952
1.19939
1.19927
1.19915
1.19903
1.19892
1.19881
1.1987
1.1986
1.1985
1.1984
1.1983
1.19821
1.19813
1.19805
1.19797
1.19789
1.19782
1.19775
1.19768
1.19762
1.19756
1.1975
1.19745
1.1974
1.19735
1.1973
1.19726
1.19722
1.19718
1.19714
1.19711
1.19707
1.19704
1.19701
1.19698
1.19695
1.19692
1.19689
1.19686
1.19684
1.19681
1.19678
1.19675
1.19672
1.19669
1.19666
1.19663
1.1966
1.19657
1.19654
1.1965
1.19647
1.19643
1.19639
1.19635
1.19632
1.19627
1.19623
1.19619
1.19614
1.1961
1.19605
1.196
1.19596
1.19591
1.19586
1.19581
1.19576
1.19571
1.19566
1.19561
1.19557
1.19552
1.19547
1.19543
1.19539
1.19535
1.19531
1.19528
1.19525
1.19522
1.19519
1.19517
1.19516
1.19515
1.19514
1.19514
1.19515
1.19516
1.19518
1.1952
1.19523
1.19527
1.19532
1.19537
1.19544
1.19551
1.19559
1.19568
1.19578
1.19589
1.19601
1.19614
1.19628
1.19642
1.19658
1.19675
1.19693
1.19712
1.19732
1.19753
1.19774
1.19797
1.19821
1.19845
1.19871
1.19897
1.19924
1.19951
1.19979
1.20008
1.20037
1.20067
1.20097
1.20127
1.20158
1.20188
1.20219
1.20249
1.20279
1.20309
1.20339
1.20368
1.20396
1.20424
1.20452
1.20478
1.20504
1.20529
1.20554
1.20577
1.206
1.20621
1.20642
1.20662
1.20681
1.20699
1.20716
1.20733
1.20748
1.20763
1.20778
1.20791
1.20804
1.20816
1.20828
1.20839
1.20849
1.20859
1.20869
1.20878
1.20886
1.20894
1.20902
1.20909
1.20915
1.20922
1.20927
1.20932
1.20937
1.20942
1.20945
1.20949
1.20952
1.20954
1.20956
1.20958
1.20959
1.20959
1.2096
1.2096
1.20959
1.20959
1.20958
1.20956
1.20955
1.20954
1.20952
1.20951
1.2095
1.20948
1.20947
1.20947
1.20947
1.20947
1.20948
1.2095
1.20952
1.20956
1.2096
1.20965
1.20972
1.2098
1.20989
1.21
1.21012
1.21027
1.21042
1.2106
1.2108
1.21102
1.21126
1.21152
1.21181
1.21212
1.21246
1.21282
1.21321
1.21363
1.21408
1.21456
1.21507
1.21562
1.2162
1.21681
1.21746
1.21815
1.21888
1.21965
1.22047
1.22133
1.22225
1.22322
1.22424
1.22533
1.2265
1.22774
1.22907
1.2305
1.23205
1.23373
1.23556
1.23758
1.23982
1.24233
1.24514
1.2483
1.25187
1.25579
1.25983
1.26344
1.26589
1.26522
1.18574
1.18523
1.18538
1.18619
1.18725
1.18839
1.18948
1.19044
1.19126
1.19195
1.19253
1.19301
1.19342
1.19375
1.19403
1.19427
1.19446
1.19462
1.19475
1.19486
1.19495
1.19502
1.19507
1.1951
1.19513
1.19514
1.19515
1.19514
1.19513
1.19511
1.19508
1.19505
1.19501
1.19497
1.19493
1.19488
1.19483
1.19478
1.19473
1.19467
1.19461
1.19456
1.1945
1.19444
1.19439
1.19434
1.19428
1.19423
1.19419
1.19414
1.1941
1.19406
1.19403
1.194
1.19398
1.19396
1.19395
1.19395
1.19395
1.19396
1.19398
1.194
1.19404
1.19408
1.19413
1.19419
1.19425
1.19433
1.19441
1.19451
1.19461
1.19472
1.19484
1.19497
1.19511
1.19525
1.19541
1.19557
1.19574
1.19591
1.1961
1.19629
1.19648
1.19668
1.19689
1.1971
1.19732
1.19753
1.19776
1.19798
1.19821
1.19843
1.19866
1.19888
1.19911
1.19933
1.19955
1.19976
1.19997
1.20018
1.20038
1.20057
1.20075
1.20093
1.2011
1.20126
1.20142
1.20156
1.20169
1.20181
1.20192
1.20202
1.2021
1.20217
1.20223
1.20228
1.20231
1.20233
1.20234
1.20233
1.20231
1.20228
1.20224
1.20219
1.20213
1.20205
1.20197
1.20188
1.20179
1.20168
1.20157
1.20146
1.20134
1.20121
1.20109
1.20096
1.20082
1.20069
1.20056
1.20042
1.20029
1.20015
1.20002
1.19989
1.19976
1.19963
1.1995
1.19938
1.19926
1.19914
1.19902
1.19891
1.1988
1.19869
1.19859
1.19849
1.19839
1.1983
1.19821
1.19812
1.19804
1.19796
1.19789
1.19781
1.19775
1.19768
1.19762
1.19756
1.1975
1.19745
1.1974
1.19735
1.19731
1.19726
1.19722
1.19718
1.19715
1.19711
1.19708
1.19705
1.19701
1.19698
1.19695
1.19693
1.1969
1.19687
1.19684
1.19681
1.19679
1.19676
1.19673
1.1967
1.19667
1.19664
1.19661
1.19658
1.19654
1.19651
1.19647
1.19644
1.1964
1.19636
1.19632
1.19628
1.19624
1.19619
1.19615
1.1961
1.19606
1.19601
1.19596
1.19591
1.19586
1.19581
1.19576
1.19571
1.19567
1.19562
1.19557
1.19552
1.19548
1.19543
1.19539
1.19535
1.19532
1.19528
1.19525
1.19522
1.1952
1.19518
1.19516
1.19515
1.19515
1.19514
1.19515
1.19516
1.19518
1.1952
1.19524
1.19528
1.19532
1.19538
1.19544
1.19551
1.19559
1.19568
1.19578
1.19589
1.19601
1.19614
1.19628
1.19643
1.19659
1.19676
1.19694
1.19713
1.19733
1.19754
1.19776
1.19798
1.19822
1.19847
1.19872
1.19899
1.19926
1.19953
1.19982
1.20011
1.2004
1.2007
1.201
1.2013
1.20161
1.20192
1.20222
1.20253
1.20283
1.20313
1.20343
1.20372
1.20401
1.20429
1.20456
1.20483
1.20508
1.20533
1.20557
1.20581
1.20603
1.20625
1.20645
1.20665
1.20684
1.20701
1.20719
1.20735
1.2075
1.20765
1.20779
1.20792
1.20805
1.20817
1.20829
1.2084
1.2085
1.2086
1.20869
1.20878
1.20886
1.20894
1.20902
1.20909
1.20915
1.20921
1.20927
1.20932
1.20937
1.20941
1.20945
1.20948
1.20951
1.20953
1.20955
1.20957
1.20958
1.20958
1.20958
1.20958
1.20958
1.20957
1.20956
1.20954
1.20953
1.20951
1.2095
1.20948
1.20947
1.20945
1.20944
1.20944
1.20943
1.20943
1.20944
1.20946
1.20948
1.20951
1.20956
1.20961
1.20967
1.20975
1.20984
1.20995
1.21007
1.21021
1.21037
1.21055
1.21075
1.21096
1.2112
1.21147
1.21175
1.21206
1.2124
1.21277
1.21316
1.21358
1.21403
1.21451
1.21502
1.21556
1.21614
1.21675
1.2174
1.21809
1.21882
1.21958
1.2204
1.22125
1.22216
1.22312
1.22414
1.22521
1.22636
1.22758
1.22888
1.23027
1.23177
1.23339
1.23514
1.23706
1.23915
1.24144
1.24396
1.2467
1.24962
1.2526
1.25543
1.25759
1.25869
1.25841
1.18777
1.18723
1.18722
1.18763
1.18827
1.18905
1.18985
1.1906
1.19128
1.19188
1.19241
1.19285
1.19324
1.19356
1.19384
1.19407
1.19427
1.19444
1.19458
1.19469
1.19478
1.19486
1.19492
1.19496
1.19499
1.19501
1.19502
1.19502
1.19501
1.19499
1.19497
1.19495
1.19491
1.19488
1.19484
1.19479
1.19474
1.19469
1.19464
1.19459
1.19454
1.19448
1.19443
1.19437
1.19432
1.19427
1.19422
1.19417
1.19412
1.19408
1.19404
1.194
1.19397
1.19394
1.19392
1.1939
1.19389
1.19389
1.19389
1.1939
1.19392
1.19395
1.19398
1.19402
1.19407
1.19413
1.1942
1.19428
1.19437
1.19446
1.19456
1.19468
1.1948
1.19493
1.19507
1.19521
1.19537
1.19553
1.1957
1.19588
1.19607
1.19626
1.19646
1.19666
1.19687
1.19708
1.1973
1.19752
1.19774
1.19797
1.1982
1.19842
1.19865
1.19888
1.19911
1.19933
1.19955
1.19977
1.19998
1.20019
1.20039
1.20058
1.20077
1.20095
1.20112
1.20128
1.20143
1.20158
1.20171
1.20183
1.20194
1.20204
1.20212
1.20219
1.20225
1.2023
1.20233
1.20235
1.20235
1.20235
1.20233
1.20229
1.20225
1.20219
1.20213
1.20205
1.20197
1.20188
1.20178
1.20167
1.20156
1.20144
1.20132
1.2012
1.20107
1.20094
1.20081
1.20067
1.20054
1.2004
1.20027
1.20013
1.2
1.19987
1.19974
1.19961
1.19948
1.19936
1.19924
1.19912
1.19901
1.19889
1.19879
1.19868
1.19858
1.19848
1.19838
1.19829
1.1982
1.19812
1.19804
1.19796
1.19788
1.19781
1.19774
1.19768
1.19762
1.19756
1.19751
1.19745
1.1974
1.19736
1.19731
1.19727
1.19723
1.19719
1.19715
1.19712
1.19708
1.19705
1.19702
1.19699
1.19696
1.19693
1.1969
1.19688
1.19685
1.19682
1.19679
1.19677
1.19674
1.19671
1.19668
1.19665
1.19662
1.19658
1.19655
1.19652
1.19648
1.19645
1.19641
1.19637
1.19633
1.19629
1.19624
1.1962
1.19616
1.19611
1.19606
1.19602
1.19597
1.19592
1.19587
1.19582
1.19577
1.19572
1.19567
1.19562
1.19558
1.19553
1.19548
1.19544
1.1954
1.19536
1.19532
1.19529
1.19525
1.19523
1.1952
1.19518
1.19516
1.19515
1.19515
1.19515
1.19515
1.19516
1.19518
1.1952
1.19524
1.19527
1.19532
1.19538
1.19544
1.19551
1.19559
1.19568
1.19578
1.19589
1.19601
1.19614
1.19628
1.19643
1.19659
1.19676
1.19694
1.19713
1.19733
1.19754
1.19776
1.19799
1.19823
1.19848
1.19873
1.199
1.19927
1.19955
1.19984
1.20013
1.20042
1.20072
1.20103
1.20134
1.20164
1.20195
1.20226
1.20257
1.20287
1.20317
1.20347
1.20376
1.20405
1.20433
1.20461
1.20487
1.20513
1.20538
1.20562
1.20585
1.20607
1.20629
1.20649
1.20668
1.20687
1.20705
1.20721
1.20737
1.20753
1.20767
1.20781
1.20794
1.20807
1.20818
1.2083
1.2084
1.20851
1.2086
1.20869
1.20878
1.20886
1.20894
1.20901
1.20908
1.20915
1.20921
1.20926
1.20931
1.20936
1.2094
1.20944
1.20947
1.2095
1.20952
1.20954
1.20956
1.20956
1.20957
1.20957
1.20957
1.20956
1.20955
1.20954
1.20952
1.2095
1.20949
1.20947
1.20945
1.20943
1.20942
1.2094
1.2094
1.20939
1.20939
1.2094
1.20941
1.20943
1.20946
1.2095
1.20955
1.20962
1.20969
1.20978
1.20989
1.21001
1.21015
1.2103
1.21048
1.21068
1.21089
1.21113
1.21139
1.21168
1.21199
1.21232
1.21269
1.21308
1.2135
1.21394
1.21442
1.21493
1.21547
1.21605
1.21666
1.2173
1.21799
1.21871
1.21947
1.22027
1.22112
1.22202
1.22296
1.22396
1.22502
1.22614
1.22733
1.22859
1.22994
1.23137
1.23291
1.23457
1.23635
1.23827
1.24033
1.24253
1.24483
1.24717
1.24941
1.25135
1.25273
1.25327
1.25302
1.18917
1.18871
1.18861
1.18879
1.18919
1.18971
1.19029
1.19087
1.19142
1.19192
1.19238
1.19278
1.19313
1.19344
1.1937
1.19393
1.19412
1.19429
1.19443
1.19454
1.19464
1.19472
1.19478
1.19483
1.19486
1.19489
1.1949
1.1949
1.1949
1.19489
1.19487
1.19485
1.19482
1.19478
1.19475
1.1947
1.19466
1.19461
1.19456
1.19451
1.19446
1.19441
1.19435
1.1943
1.19425
1.1942
1.19415
1.1941
1.19405
1.19401
1.19397
1.19394
1.19391
1.19388
1.19386
1.19384
1.19383
1.19383
1.19383
1.19384
1.19386
1.19389
1.19392
1.19396
1.19402
1.19407
1.19414
1.19422
1.19431
1.1944
1.19451
1.19462
1.19475
1.19488
1.19502
1.19517
1.19532
1.19549
1.19566
1.19584
1.19603
1.19622
1.19642
1.19662
1.19684
1.19705
1.19727
1.19749
1.19772
1.19795
1.19818
1.19841
1.19864
1.19887
1.1991
1.19933
1.19955
1.19977
1.19998
1.20019
1.2004
1.20059
1.20078
1.20096
1.20114
1.2013
1.20145
1.2016
1.20173
1.20185
1.20196
1.20206
1.20215
1.20222
1.20228
1.20232
1.20235
1.20237
1.20237
1.20236
1.20234
1.20231
1.20226
1.2022
1.20214
1.20206
1.20197
1.20188
1.20178
1.20167
1.20155
1.20143
1.20131
1.20118
1.20105
1.20092
1.20079
1.20065
1.20052
1.20038
1.20025
1.20012
1.19998
1.19985
1.19972
1.19959
1.19947
1.19934
1.19922
1.19911
1.19899
1.19888
1.19877
1.19867
1.19857
1.19847
1.19837
1.19828
1.1982
1.19811
1.19803
1.19795
1.19788
1.19781
1.19774
1.19768
1.19762
1.19756
1.19751
1.19745
1.19741
1.19736
1.19731
1.19727
1.19723
1.19719
1.19716
1.19712
1.19709
1.19706
1.19703
1.197
1.19697
1.19694
1.19691
1.19688
1.19686
1.19683
1.1968
1.19677
1.19675
1.19672
1.19669
1.19666
1.19663
1.19659
1.19656
1.19653
1.19649
1.19645
1.19642
1.19638
1.19634
1.1963
1.19625
1.19621
1.19617
1.19612
1.19607
1.19602
1.19598
1.19593
1.19588
1.19583
1.19578
1.19573
1.19568
1.19563
1.19558
1.19554
1.19549
1.19544
1.1954
1.19536
1.19532
1.19529
1.19526
1.19523
1.1952
1.19518
1.19517
1.19515
1.19515
1.19515
1.19515
1.19516
1.19518
1.1952
1.19523
1.19527
1.19532
1.19537
1.19543
1.19551
1.19559
1.19568
1.19578
1.19589
1.196
1.19613
1.19627
1.19642
1.19658
1.19675
1.19693
1.19712
1.19733
1.19754
1.19776
1.19799
1.19823
1.19848
1.19874
1.19901
1.19928
1.19956
1.19985
1.20014
1.20044
1.20075
1.20105
1.20136
1.20167
1.20198
1.2023
1.20261
1.20291
1.20322
1.20352
1.20381
1.2041
1.20438
1.20466
1.20492
1.20518
1.20543
1.20567
1.2059
1.20612
1.20633
1.20653
1.20673
1.20691
1.20708
1.20725
1.20741
1.20756
1.2077
1.20783
1.20796
1.20808
1.2082
1.20831
1.20841
1.20851
1.20861
1.2087
1.20878
1.20887
1.20894
1.20901
1.20908
1.20915
1.2092
1.20926
1.20931
1.20936
1.2094
1.20943
1.20947
1.20949
1.20952
1.20953
1.20955
1.20955
1.20956
1.20956
1.20955
1.20954
1.20953
1.20952
1.2095
1.20948
1.20946
1.20944
1.20942
1.2094
1.20938
1.20936
1.20935
1.20934
1.20934
1.20934
1.20935
1.20937
1.2094
1.20944
1.20949
1.20955
1.20962
1.20971
1.20981
1.20993
1.21007
1.21022
1.2104
1.21059
1.2108
1.21104
1.2113
1.21158
1.21189
1.21222
1.21258
1.21297
1.21339
1.21383
1.21431
1.21481
1.21535
1.21592
1.21653
1.21717
1.21784
1.21856
1.21931
1.2201
1.22094
1.22182
1.22275
1.22373
1.22476
1.22585
1.227
1.22821
1.2295
1.23087
1.23232
1.23386
1.2355
1.23723
1.23906
1.24095
1.24286
1.24471
1.24639
1.24775
1.24864
1.24893
1.24861
1.19019
1.18981
1.18967
1.18973
1.18997
1.19032
1.19074
1.19118
1.19161
1.19203
1.19242
1.19277
1.19308
1.19336
1.19361
1.19382
1.194
1.19416
1.1943
1.19442
1.19451
1.19459
1.19466
1.19471
1.19474
1.19477
1.19479
1.19479
1.19479
1.19478
1.19477
1.19475
1.19472
1.19469
1.19465
1.19462
1.19457
1.19453
1.19448
1.19443
1.19438
1.19433
1.19428
1.19423
1.19417
1.19412
1.19408
1.19403
1.19398
1.19394
1.1939
1.19387
1.19384
1.19381
1.19379
1.19377
1.19376
1.19376
1.19377
1.19378
1.19379
1.19382
1.19386
1.1939
1.19395
1.19401
1.19408
1.19416
1.19425
1.19434
1.19445
1.19457
1.19469
1.19482
1.19496
1.19511
1.19527
1.19544
1.19561
1.19579
1.19598
1.19618
1.19638
1.19659
1.1968
1.19702
1.19724
1.19747
1.1977
1.19793
1.19816
1.1984
1.19863
1.19886
1.1991
1.19932
1.19955
1.19977
1.19999
1.2002
1.20041
1.2006
1.2008
1.20098
1.20115
1.20132
1.20147
1.20162
1.20176
1.20188
1.20199
1.20209
1.20217
1.20224
1.2023
1.20235
1.20238
1.20239
1.2024
1.20238
1.20236
1.20232
1.20227
1.20221
1.20214
1.20206
1.20197
1.20188
1.20177
1.20166
1.20154
1.20142
1.2013
1.20117
1.20104
1.20091
1.20077
1.20064
1.2005
1.20037
1.20023
1.2001
1.19996
1.19983
1.1997
1.19958
1.19945
1.19933
1.19921
1.19909
1.19898
1.19887
1.19876
1.19866
1.19856
1.19846
1.19837
1.19828
1.19819
1.19811
1.19803
1.19795
1.19788
1.19781
1.19774
1.19768
1.19762
1.19756
1.19751
1.19746
1.19741
1.19736
1.19732
1.19728
1.19724
1.1972
1.19717
1.19713
1.1971
1.19707
1.19704
1.19701
1.19698
1.19695
1.19692
1.1969
1.19687
1.19684
1.19681
1.19679
1.19676
1.19673
1.1967
1.19667
1.19664
1.19661
1.19657
1.19654
1.1965
1.19647
1.19643
1.19639
1.19635
1.19631
1.19627
1.19622
1.19618
1.19613
1.19608
1.19603
1.19599
1.19594
1.19589
1.19584
1.19579
1.19574
1.19569
1.19564
1.19559
1.19554
1.1955
1.19545
1.19541
1.19537
1.19533
1.19529
1.19526
1.19523
1.19521
1.19518
1.19517
1.19515
1.19515
1.19514
1.19515
1.19516
1.19517
1.1952
1.19523
1.19526
1.19531
1.19536
1.19543
1.1955
1.19558
1.19567
1.19577
1.19587
1.19599
1.19612
1.19626
1.19641
1.19657
1.19674
1.19692
1.19711
1.19732
1.19753
1.19775
1.19798
1.19823
1.19848
1.19874
1.19901
1.19928
1.19957
1.19986
1.20016
1.20046
1.20076
1.20108
1.20139
1.2017
1.20202
1.20233
1.20265
1.20296
1.20326
1.20357
1.20386
1.20415
1.20444
1.20471
1.20498
1.20524
1.20549
1.20573
1.20595
1.20617
1.20638
1.20658
1.20677
1.20695
1.20712
1.20729
1.20744
1.20759
1.20773
1.20786
1.20798
1.2081
1.20822
1.20832
1.20843
1.20852
1.20862
1.2087
1.20879
1.20887
1.20894
1.20901
1.20908
1.20914
1.2092
1.20926
1.20931
1.20935
1.20939
1.20943
1.20946
1.20949
1.20951
1.20952
1.20953
1.20954
1.20954
1.20954
1.20953
1.20952
1.20951
1.20949
1.20947
1.20945
1.20943
1.2094
1.20938
1.20936
1.20934
1.20932
1.2093
1.20929
1.20928
1.20929
1.20929
1.20931
1.20933
1.20937
1.20941
1.20947
1.20954
1.20962
1.20972
1.20984
1.20997
1.21013
1.2103
1.21049
1.2107
1.21093
1.21119
1.21147
1.21177
1.2121
1.21246
1.21284
1.21325
1.2137
1.21417
1.21467
1.2152
1.21577
1.21636
1.217
1.21766
1.21837
1.21911
1.21989
1.22071
1.22157
1.22248
1.22343
1.22443
1.22549
1.22659
1.22776
1.22898
1.23027
1.23163
1.23305
1.23454
1.23609
1.23769
1.2393
1.24087
1.24234
1.24361
1.24458
1.24517
1.24532
1.24496
1.19097
1.19065
1.19049
1.1905
1.19064
1.19087
1.19116
1.1915
1.19184
1.19218
1.1925
1.1928
1.19308
1.19333
1.19355
1.19375
1.19392
1.19407
1.1942
1.19431
1.19441
1.19448
1.19455
1.1946
1.19464
1.19467
1.19468
1.19469
1.19469
1.19469
1.19467
1.19466
1.19463
1.1946
1.19457
1.19453
1.19449
1.19445
1.1944
1.19435
1.19431
1.19425
1.1942
1.19415
1.1941
1.19405
1.19401
1.19396
1.19391
1.19387
1.19383
1.1938
1.19377
1.19374
1.19372
1.19371
1.1937
1.19369
1.1937
1.19371
1.19373
1.19375
1.19379
1.19383
1.19388
1.19394
1.19401
1.19409
1.19418
1.19428
1.19439
1.1945
1.19463
1.19476
1.1949
1.19506
1.19522
1.19538
1.19556
1.19574
1.19593
1.19613
1.19633
1.19654
1.19676
1.19698
1.1972
1.19743
1.19767
1.1979
1.19814
1.19837
1.19861
1.19885
1.19908
1.19932
1.19955
1.19977
1.19999
1.2002
1.20041
1.20061
1.20081
1.20099
1.20117
1.20134
1.20149
1.20164
1.20178
1.2019
1.20202
1.20211
1.2022
1.20227
1.20233
1.20238
1.20241
1.20242
1.20242
1.20241
1.20238
1.20234
1.20229
1.20223
1.20215
1.20207
1.20198
1.20188
1.20177
1.20166
1.20154
1.20141
1.20129
1.20116
1.20103
1.20089
1.20076
1.20062
1.20048
1.20035
1.20021
1.20008
1.19995
1.19981
1.19969
1.19956
1.19943
1.19931
1.19919
1.19908
1.19896
1.19885
1.19875
1.19865
1.19855
1.19845
1.19836
1.19827
1.19818
1.1981
1.19802
1.19795
1.19788
1.19781
1.19774
1.19768
1.19762
1.19756
1.19751
1.19746
1.19741
1.19737
1.19733
1.19728
1.19725
1.19721
1.19717
1.19714