# vtk DataFile Version 2.0
LBE mesh
ASCII
DATASET STRUCTURED_POINTS
DIMENSIONS 400 100 1
ASPECT_RATIO 1 1 1
ORIGIN 0 0 0
POINT_DATA 40000
SCALARS rho double 1
LOOKUP_TABLE default
1.16738
1.25802
1.28387
1.28841
1.29048
1.29247
1.29395
1.2949
1.29554
1.296
1.29636
1.29665
1.29687
1.29705
1.29719
1.2973
1.29739
1.29746
1.29752
1.29756
1.29759
1.2976
1.29761
1.29761
1.29761
1.29759
1.29757
1.29754
1.29751
1.29747
1.29743
1.29739
1.29734
1.29729
1.29723
1.29718
1.29712
1.29706
1.297
1.29694
1.29688
1.29682
1.29675
1.2967
1.29664
1.29658
1.29652
1.29647
1.29642
1.29638
1.29634
1.2963
1.29627
1.29624
1.29622
1.2962
1.2962
1.29619
1.2962
1.29621
1.29623
1.29626
1.2963
1.29634
1.2964
1.29646
1.29653
1.29661
1.29671
1.29681
1.29692
1.29703
1.29716
1.2973
1.29745
1.2976
1.29777
1.29794
1.29812
1.29831
1.29851
1.29872
1.29893
1.29915
1.29938
1.29961
1.29985
1.3001
1.30035
1.3006
1.30086
1.30112
1.30139
1.30166
1.30193
1.3022
1.30247
1.30274
1.30301
1.30327
1.30354
1.3038
1.30406
1.30431
1.30456
1.30481
1.30504
1.30528
1.3055
1.30571
1.30592
1.30612
1.3063
1.30648
1.30665
1.30681
1.30695
1.30708
1.30721
1.30732
1.30742
1.3075
1.30758
1.30765
1.3077
1.30775
1.30778
1.30781
1.30783
1.30784
1.30784
1.30784
1.30783
1.30781
1.30779
1.30777
1.30774
1.3077
1.30767
1.30763
1.30758
1.30754
1.30749
1.30744
1.3074
1.30734
1.30729
1.30724
1.30719
1.30714
1.30708
1.30703
1.30697
1.30692
1.30687
1.30681
1.30676
1.30671
1.30665
1.3066
1.30655
1.3065
1.30644
1.30639
1.30634
1.30629
1.30623
1.30618
1.30613
1.30608
1.30603
1.30597
1.30592
1.30587
1.30582
1.30576
1.30571
1.30566
1.3056
1.30555
1.3055
1.30544
1.30539
1.30534
1.30528
1.30523
1.30518
1.30512
1.30507
1.30502
1.30496
1.30491
1.30486
1.30481
1.30475
1.3047
1.30465
1.30461
1.30456
1.30451
1.30446
1.30442
1.30438
1.30434
1.3043
1.30426
1.30422
1.30419
1.30416
1.30413
1.3041
1.30408
1.30405
1.30404
1.30402
1.30401
1.304
1.304
1.304
1.304
1.30401
1.30403
1.30404
1.30407
1.3041
1.30413
1.30417
1.30421
1.30427
1.30432
1.30439
1.30446
1.30454
1.30462
1.30471
1.30481
1.30492
1.30503
1.30515
1.30528
1.30542
1.30557
1.30572
1.30589
1.30606
1.30624
1.30643
1.30662
1.30683
1.30705
1.30727
1.3075
1.30774
1.30799
1.30825
1.30852
1.30879
1.30907
1.30936
1.30966
1.30996
1.31027
1.31058
1.31091
1.31123
1.31156
1.31189
1.31223
1.31257
1.31291
1.31325
1.3136
1.31394
1.31428
1.31462
1.31495
1.31528
1.31561
1.31593
1.31625
1.31655
1.31686
1.31715
1.31743
1.31771
1.31797
1.31823
1.31848
1.31871
1.31894
1.31916
1.31936
1.31956
1.31975
1.31993
1.3201
1.32026
1.32041
1.32055
1.32069
1.32082
1.32095
1.32107
1.32118
1.32129
1.32139
1.32149
1.32159
1.32168
1.32177
1.32185
1.32194
1.32202
1.32209
1.32217
1.32224
1.32231
1.32238
1.32244
1.32251
1.32257
1.32263
1.32269
1.32275
1.32281
1.32286
1.32292
1.32297
1.32303
1.32308
1.32314
1.32319
1.32325
1.3233
1.32336
1.32343
1.32349
1.32356
1.32363
1.32371
1.32379
1.32388
1.32398
1.32408
1.32419
1.32432
1.32445
1.32459
1.32475
1.32491
1.3251
1.32529
1.3255
1.32573
1.32597
1.32623
1.32651
1.32681
1.32713
1.32747
1.32783
1.32822
1.32863
1.32907
1.32953
1.33002
1.33053
1.33108
1.33166
1.33227
1.33291
1.33359
1.3343
1.33506
1.33585
1.33669
1.33757
1.33851
1.3395
1.34054
1.34165
1.34283
1.34409
1.34543
1.34688
1.34843
1.35012
1.35196
1.35398
1.35622
1.35874
1.3616
1.36492
1.36883
1.37361
1.37977
1.38834
1.4004
1.41827
1.45492
1.24939
1.25774
1.27055
1.28186
1.28763
1.29046
1.29219
1.29344
1.29437
1.29505
1.29557
1.29596
1.29628
1.29653
1.29673
1.2969
1.29703
1.29714
1.29722
1.29729
1.29734
1.29738
1.2974
1.29742
1.29742
1.29742
1.29741
1.2974
1.29737
1.29734
1.29731
1.29727
1.29723
1.29718
1.29713
1.29708
1.29703
1.29698
1.29692
1.29686
1.2968
1.29675
1.29669
1.29663
1.29658
1.29652
1.29647
1.29642
1.29638
1.29633
1.2963
1.29626
1.29623
1.29621
1.29619
1.29618
1.29617
1.29617
1.29618
1.29619
1.29622
1.29625
1.29629
1.29633
1.29639
1.29646
1.29653
1.29661
1.29671
1.29681
1.29692
1.29704
1.29717
1.29731
1.29746
1.29761
1.29778
1.29795
1.29814
1.29833
1.29853
1.29873
1.29895
1.29917
1.2994
1.29963
1.29987
1.30012
1.30037
1.30062
1.30088
1.30114
1.30141
1.30168
1.30194
1.30221
1.30248
1.30275
1.30302
1.30329
1.30355
1.30381
1.30407
1.30432
1.30457
1.30481
1.30505
1.30528
1.3055
1.30571
1.30592
1.30611
1.3063
1.30647
1.30664
1.30679
1.30693
1.30707
1.30719
1.3073
1.30739
1.30748
1.30756
1.30762
1.30768
1.30772
1.30776
1.30778
1.3078
1.30781
1.30781
1.30781
1.3078
1.30779
1.30776
1.30774
1.30771
1.30768
1.30764
1.3076
1.30756
1.30752
1.30747
1.30742
1.30737
1.30732
1.30727
1.30722
1.30717
1.30712
1.30706
1.30701
1.30696
1.30691
1.30685
1.3068
1.30675
1.30669
1.30664
1.30659
1.30654
1.30649
1.30643
1.30638
1.30633
1.30628
1.30622
1.30617
1.30612
1.30607
1.30602
1.30596
1.30591
1.30586
1.30581
1.30575
1.3057
1.30565
1.3056
1.30554
1.30549
1.30544
1.30538
1.30533
1.30528
1.30522
1.30517
1.30512
1.30506
1.30501
1.30496
1.3049
1.30485
1.3048
1.30475
1.3047
1.30465
1.3046
1.30455
1.30451
1.30446
1.30442
1.30437
1.30433
1.30429
1.30426
1.30422
1.30419
1.30416
1.30413
1.3041
1.30408
1.30406
1.30404
1.30402
1.30401
1.30401
1.304
1.304
1.30401
1.30402
1.30403
1.30405
1.30408
1.30411
1.30414
1.30418
1.30423
1.30428
1.30434
1.3044
1.30447
1.30455
1.30464
1.30473
1.30483
1.30494
1.30505
1.30517
1.30531
1.30544
1.30559
1.30575
1.30591
1.30608
1.30627
1.30646
1.30665
1.30686
1.30708
1.3073
1.30754
1.30778
1.30803
1.30829
1.30855
1.30883
1.30911
1.3094
1.30969
1.31
1.31031
1.31062
1.31094
1.31127
1.3116
1.31193
1.31227
1.3126
1.31294
1.31329
1.31363
1.31397
1.31431
1.31464
1.31498
1.31531
1.31563
1.31595
1.31626
1.31657
1.31687
1.31716
1.31744
1.31771
1.31798
1.31823
1.31848
1.31871
1.31894
1.31915
1.31936
1.31955
1.31974
1.31991
1.32008
1.32024
1.3204
1.32054
1.32068
1.32081
1.32093
1.32105
1.32116
1.32127
1.32138
1.32148
1.32157
1.32166
1.32175
1.32184
1.32192
1.322
1.32208
1.32215
1.32222
1.32229
1.32236
1.32243
1.32249
1.32256
1.32262
1.32268
1.32274
1.32279
1.32285
1.32291
1.32296
1.32302
1.32307
1.32312
1.32318
1.32324
1.32329
1.32335
1.32342
1.32348
1.32355
1.32363
1.32371
1.32379
1.32388
1.32398
1.32409
1.3242
1.32433
1.32446
1.3246
1.32476
1.32493
1.32512
1.32531
1.32553
1.32576
1.326
1.32627
1.32655
1.32685
1.32717
1.32752
1.32789
1.32828
1.32869
1.32913
1.32959
1.33009
1.33061
1.33116
1.33174
1.33236
1.333
1.33369
1.33441
1.33517
1.33597
1.33682
1.33771
1.33865
1.33965
1.34071
1.34183
1.34302
1.3443
1.34566
1.34713
1.34872
1.35044
1.35233
1.35441
1.35672
1.35934
1.36233
1.36582
1.36999
1.37515
1.38165
1.39012
1.40255
1.42421
1.45832
1.27046
1.2669
1.27486
1.2816
1.28572
1.28868
1.29082
1.29233
1.29341
1.29423
1.29485
1.29535
1.29574
1.29605
1.29631
1.29652
1.29669
1.29683
1.29694
1.29703
1.2971
1.29716
1.2972
1.29723
1.29725
1.29726
1.29726
1.29725
1.29724
1.29722
1.29719
1.29716
1.29712
1.29708
1.29704
1.29699
1.29694
1.29689
1.29684
1.29679
1.29673
1.29668
1.29662
1.29657
1.29652
1.29647
1.29642
1.29637
1.29633
1.29629
1.29625
1.29622
1.29619
1.29617
1.29615
1.29614
1.29614
1.29614
1.29615
1.29617
1.29619
1.29623
1.29627
1.29632
1.29637
1.29644
1.29652
1.2966
1.2967
1.2968
1.29692
1.29704
1.29717
1.29731
1.29746
1.29762
1.29778
1.29796
1.29814
1.29834
1.29854
1.29874
1.29896
1.29918
1.29941
1.29964
1.29989
1.30013
1.30038
1.30064
1.3009
1.30116
1.30143
1.30169
1.30196
1.30223
1.3025
1.30277
1.30304
1.3033
1.30357
1.30383
1.30408
1.30434
1.30458
1.30482
1.30506
1.30529
1.30551
1.30572
1.30592
1.30611
1.3063
1.30647
1.30664
1.30679
1.30693
1.30706
1.30718
1.30729
1.30738
1.30747
1.30754
1.3076
1.30766
1.3077
1.30774
1.30776
1.30778
1.30779
1.30779
1.30779
1.30778
1.30776
1.30774
1.30772
1.30769
1.30765
1.30762
1.30758
1.30754
1.30749
1.30745
1.3074
1.30735
1.3073
1.30725
1.3072
1.30715
1.3071
1.30705
1.307
1.30694
1.30689
1.30684
1.30679
1.30673
1.30668
1.30663
1.30658
1.30653
1.30647
1.30642
1.30637
1.30632
1.30627
1.30621
1.30616
1.30611
1.30606
1.30601
1.30596
1.3059
1.30585
1.3058
1.30575
1.30569
1.30564
1.30559
1.30553
1.30548
1.30543
1.30537
1.30532
1.30527
1.30521
1.30516
1.30511
1.30505
1.305
1.30495
1.3049
1.30485
1.30479
1.30474
1.30469
1.30464
1.3046
1.30455
1.3045
1.30446
1.30441
1.30437
1.30433
1.30429
1.30425
1.30422
1.30418
1.30415
1.30412
1.3041
1.30408
1.30405
1.30404
1.30402
1.30401
1.30401
1.304
1.30401
1.30401
1.30402
1.30404
1.30406
1.30408
1.30411
1.30415
1.30419
1.30423
1.30429
1.30434
1.30441
1.30448
1.30456
1.30465
1.30474
1.30484
1.30495
1.30507
1.30519
1.30532
1.30546
1.30561
1.30577
1.30593
1.3061
1.30629
1.30648
1.30668
1.30688
1.3071
1.30733
1.30756
1.3078
1.30805
1.30831
1.30858
1.30886
1.30914
1.30943
1.30972
1.31003
1.31034
1.31065
1.31097
1.3113
1.31163
1.31196
1.3123
1.31264
1.31298
1.31332
1.31366
1.314
1.31434
1.31467
1.315
1.31533
1.31566
1.31598
1.31629
1.31659
1.31689
1.31718
1.31746
1.31773
1.31799
1.31824
1.31849
1.31872
1.31894
1.31916
1.31936
1.31955
1.31974
1.31991
1.32008
1.32024
1.32039
1.32053
1.32067
1.3208
1.32092
1.32104
1.32115
1.32126
1.32136
1.32146
1.32156
1.32165
1.32174
1.32182
1.32191
1.32199
1.32206
1.32214
1.32221
1.32228
1.32235
1.32242
1.32248
1.32254
1.32261
1.32267
1.32272
1.32278
1.32284
1.32289
1.32295
1.323
1.32306
1.32311
1.32317
1.32322
1.32328
1.32334
1.32341
1.32347
1.32354
1.32362
1.3237
1.32378
1.32387
1.32397
1.32408
1.3242
1.32432
1.32446
1.32461
1.32476
1.32494
1.32512
1.32532
1.32554
1.32577
1.32602
1.32628
1.32657
1.32687
1.3272
1.32754
1.32791
1.32831
1.32872
1.32916
1.32963
1.33013
1.33065
1.33121
1.33179
1.33241
1.33306
1.33375
1.33447
1.33524
1.33604
1.33689
1.33779
1.33874
1.33974
1.34081
1.34193
1.34314
1.34442
1.34579
1.34727
1.34887
1.3506
1.3525
1.3546
1.35693
1.35956
1.36257
1.36606
1.37018
1.37516
1.38141
1.3895
1.39966
1.4107
1.421
1.27829
1.27712
1.27951
1.28233
1.28559
1.28824
1.29016
1.2916
1.29272
1.2936
1.29429
1.29484
1.29528
1.29564
1.29593
1.29618
1.29638
1.29654
1.29668
1.29679
1.29688
1.29696
1.29701
1.29705
1.29708
1.2971
1.29711
1.29711
1.29711
1.29709
1.29707
1.29705
1.29702
1.29698
1.29694
1.2969
1.29686
1.29681
1.29676
1.29671
1.29666
1.29661
1.29656
1.29651
1.29646
1.29641
1.29636
1.29632
1.29627
1.29624
1.2962
1.29617
1.29615
1.29613
1.29611
1.2961
1.2961
1.29611
1.29612
1.29614
1.29616
1.2962
1.29624
1.29629
1.29635
1.29642
1.2965
1.29659
1.29668
1.29679
1.2969
1.29703
1.29716
1.2973
1.29745
1.29761
1.29778
1.29796
1.29814
1.29834
1.29854
1.29875
1.29896
1.29919
1.29942
1.29965
1.29989
1.30014
1.30039
1.30065
1.30091
1.30117
1.30144
1.30171
1.30198
1.30225
1.30252
1.30279
1.30305
1.30332
1.30358
1.30384
1.3041
1.30435
1.3046
1.30484
1.30507
1.3053
1.30552
1.30573
1.30593
1.30613
1.30631
1.30648
1.30664
1.30679
1.30693
1.30706
1.30718
1.30729
1.30738
1.30746
1.30754
1.3076
1.30765
1.30769
1.30772
1.30775
1.30777
1.30777
1.30778
1.30777
1.30776
1.30774
1.30772
1.3077
1.30767
1.30763
1.3076
1.30756
1.30752
1.30747
1.30743
1.30738
1.30733
1.30729
1.30724
1.30719
1.30713
1.30708
1.30703
1.30698
1.30693
1.30688
1.30682
1.30677
1.30672
1.30667
1.30662
1.30656
1.30651
1.30646
1.30641
1.30636
1.30631
1.30626
1.3062
1.30615
1.3061
1.30605
1.306
1.30595
1.30589
1.30584
1.30579
1.30574
1.30568
1.30563
1.30558
1.30553
1.30547
1.30542
1.30537
1.30531
1.30526
1.30521
1.30515
1.3051
1.30505
1.30499
1.30494
1.30489
1.30484
1.30479
1.30474
1.30469
1.30464
1.30459
1.30454
1.3045
1.30445
1.30441
1.30436
1.30432
1.30428
1.30425
1.30421
1.30418
1.30415
1.30412
1.30409
1.30407
1.30405
1.30403
1.30402
1.30401
1.304
1.304
1.304
1.30401
1.30402
1.30404
1.30405
1.30408
1.30411
1.30415
1.30419
1.30423
1.30429
1.30435
1.30441
1.30449
1.30457
1.30465
1.30475
1.30485
1.30496
1.30507
1.3052
1.30533
1.30547
1.30562
1.30578
1.30594
1.30612
1.3063
1.30649
1.30669
1.3069
1.30712
1.30734
1.30758
1.30782
1.30807
1.30833
1.3086
1.30888
1.30916
1.30945
1.30975
1.31005
1.31036
1.31068
1.311
1.31133
1.31166
1.31199
1.31233
1.31267
1.31301
1.31335
1.31369
1.31403
1.31437
1.3147
1.31504
1.31537
1.31569
1.31601
1.31632
1.31662
1.31692
1.31721
1.31748
1.31775
1.31802
1.31827
1.31851
1.31874
1.31896
1.31917
1.31937
1.31956
1.31975
1.31992
1.32008
1.32024
1.32039
1.32053
1.32067
1.3208
1.32092
1.32104
1.32115
1.32125
1.32136
1.32146
1.32155
1.32164
1.32173
1.32181
1.3219
1.32198
1.32205
1.32213
1.3222
1.32227
1.32234
1.32241
1.32247
1.32253
1.32259
1.32265
1.32271
1.32277
1.32283
1.32288
1.32294
1.32299
1.32304
1.3231
1.32315
1.32321
1.32327
1.32333
1.32339
1.32346
1.32353
1.3236
1.32368
1.32377
1.32386
1.32396
1.32407
1.32418
1.32431
1.32445
1.32459
1.32475
1.32493
1.32511
1.32531
1.32553
1.32576
1.32601
1.32628
1.32656
1.32687
1.3272
1.32755
1.32792
1.32831
1.32873
1.32917
1.32964
1.33014
1.33067
1.33123
1.33181
1.33243
1.33309
1.33377
1.3345
1.33527
1.33607
1.33693
1.33782
1.33877
1.33978
1.34084
1.34197
1.34317
1.34445
1.34582
1.34729
1.34888
1.35061
1.35249
1.35456
1.35686
1.35943
1.36235
1.36569
1.36957
1.37413
1.37947
1.38566
1.39253
1.39811
1.39823
1.28287
1.28243
1.28296
1.28455
1.2866
1.28842
1.28999
1.29129
1.29234
1.29319
1.29388
1.29445
1.29491
1.2953
1.29562
1.29588
1.2961
1.29629
1.29645
1.29657
1.29668
1.29677
1.29683
1.29689
1.29693
1.29696
1.29698
1.29698
1.29698
1.29698
1.29696
1.29694
1.29692
1.29689
1.29685
1.29682
1.29677
1.29673
1.29668
1.29664
1.29659
1.29654
1.29649
1.29644
1.29639
1.29635
1.2963
1.29626
1.29622
1.29619
1.29615
1.29612
1.2961
1.29608
1.29607
1.29606
1.29606
1.29607
1.29608
1.2961
1.29613
1.29616
1.29621
1.29626
1.29632
1.29639
1.29647
1.29656
1.29666
1.29677
1.29688
1.29701
1.29714
1.29729
1.29744
1.2976
1.29777
1.29795
1.29813
1.29833
1.29853
1.29874
1.29896
1.29919
1.29942
1.29965
1.2999
1.30015
1.3004
1.30066
1.30092
1.30119
1.30145
1.30172
1.30199
1.30226
1.30253
1.3028
1.30307
1.30334
1.3036
1.30386
1.30412
1.30437
1.30462
1.30486
1.30509
1.30532
1.30554
1.30575
1.30595
1.30615
1.30633
1.3065
1.30666
1.30681
1.30695
1.30708
1.30719
1.3073
1.30739
1.30747
1.30754
1.3076
1.30765
1.30769
1.30772
1.30774
1.30776
1.30777
1.30777
1.30776
1.30775
1.30773
1.30771
1.30768
1.30765
1.30762
1.30758
1.30754
1.3075
1.30746
1.30741
1.30736
1.30732
1.30727
1.30722
1.30717
1.30712
1.30707
1.30702
1.30696
1.30691
1.30686
1.30681
1.30676
1.30671
1.30665
1.3066
1.30655
1.3065
1.30645
1.3064
1.30635
1.3063
1.30624
1.30619
1.30614
1.30609
1.30604
1.30599
1.30594
1.30588
1.30583
1.30578
1.30573
1.30568
1.30562
1.30557
1.30552
1.30546
1.30541
1.30536
1.30531
1.30525
1.3052
1.30515
1.30509
1.30504
1.30499
1.30493
1.30488
1.30483
1.30478
1.30473
1.30468
1.30463
1.30458
1.30453
1.30449
1.30444
1.3044
1.30436
1.30432
1.30428
1.30424
1.3042
1.30417
1.30414
1.30411
1.30409
1.30406
1.30404
1.30403
1.30401
1.304
1.304
1.304
1.304
1.304
1.30401
1.30403
1.30405
1.30408
1.30411
1.30414
1.30418
1.30423
1.30428
1.30434
1.30441
1.30448
1.30456
1.30465
1.30474
1.30485
1.30495
1.30507
1.3052
1.30533
1.30547
1.30562
1.30578
1.30594
1.30612
1.3063
1.30649
1.3067
1.3069
1.30712
1.30735
1.30759
1.30783
1.30808
1.30834
1.30861
1.30889
1.30917
1.30947
1.30977
1.31007
1.31038
1.3107
1.31102
1.31135
1.31168
1.31202
1.31236
1.3127
1.31304
1.31338
1.31372
1.31406
1.3144
1.31474
1.31507
1.3154
1.31572
1.31604
1.31635
1.31666
1.31695
1.31724
1.31752
1.31779
1.31805
1.3183
1.31853
1.31876
1.31898
1.31919
1.31939
1.31958
1.31976
1.31993
1.3201
1.32025
1.3204
1.32054
1.32067
1.3208
1.32092
1.32104
1.32115
1.32125
1.32135
1.32145
1.32155
1.32164
1.32172
1.32181
1.32189
1.32197
1.32205
1.32212
1.32219
1.32226
1.32233
1.3224
1.32246
1.32252
1.32258
1.32264
1.3227
1.32276
1.32281
1.32287
1.32292
1.32298
1.32303
1.32308
1.32314
1.3232
1.32325
1.32331
1.32337
1.32344
1.32351
1.32358
1.32366
1.32375
1.32384
1.32394
1.32405
1.32416
1.32429
1.32442
1.32457
1.32473
1.3249
1.32509
1.32529
1.32551
1.32574
1.32599
1.32626
1.32654
1.32685
1.32718
1.32753
1.3279
1.32829
1.32871
1.32916
1.32963
1.33013
1.33065
1.33121
1.3318
1.33242
1.33307
1.33376
1.33449
1.33525
1.33606
1.33691
1.33781
1.33875
1.33975
1.34081
1.34193
1.34312
1.34439
1.34575
1.3472
1.34876
1.35045
1.35229
1.3543
1.35652
1.35898
1.36172
1.3648
1.36828
1.37218
1.37649
1.38091
1.38487
1.38758
1.38685
1.2862
1.28562
1.28572
1.2866
1.28776
1.28901
1.29023
1.29129
1.29221
1.29298
1.29363
1.29418
1.29464
1.29503
1.29536
1.29564
1.29587
1.29607
1.29624
1.29638
1.2965
1.29659
1.29667
1.29674
1.29678
1.29682
1.29685
1.29686
1.29687
1.29687
1.29686
1.29684
1.29682
1.2968
1.29676
1.29673
1.29669
1.29665
1.29661
1.29656
1.29652
1.29647
1.29642
1.29638
1.29633
1.29629
1.29624
1.2962
1.29617
1.29613
1.2961
1.29607
1.29605
1.29603
1.29602
1.29601
1.29601
1.29602
1.29603
1.29606
1.29609
1.29612
1.29617
1.29622
1.29629
1.29636
1.29644
1.29653
1.29663
1.29674
1.29685
1.29698
1.29712
1.29726
1.29742
1.29758
1.29775
1.29793
1.29812
1.29832
1.29852
1.29873
1.29895
1.29918
1.29941
1.29965
1.2999
1.30015
1.3004
1.30066
1.30093
1.30119
1.30146
1.30173
1.30201
1.30228
1.30255
1.30282
1.30309
1.30336
1.30363
1.30389
1.30414
1.3044
1.30465
1.30489
1.30512
1.30535
1.30557
1.30578
1.30598
1.30617
1.30636
1.30653
1.30669
1.30684
1.30697
1.3071
1.30721
1.30731
1.3074
1.30748
1.30755
1.30761
1.30766
1.3077
1.30772
1.30774
1.30776
1.30776
1.30776
1.30775
1.30774
1.30772
1.3077
1.30767
1.30764
1.3076
1.30757
1.30753
1.30748
1.30744
1.30739
1.30735
1.3073
1.30725
1.3072
1.30715
1.3071
1.30705
1.307
1.30695
1.3069
1.30685
1.30679
1.30674
1.30669
1.30664
1.30659
1.30654
1.30649
1.30644
1.30639
1.30633
1.30628
1.30623
1.30618
1.30613
1.30608
1.30603
1.30598
1.30593
1.30587
1.30582
1.30577
1.30572
1.30567
1.30561
1.30556
1.30551
1.30546
1.3054
1.30535
1.3053
1.30524
1.30519
1.30514
1.30508
1.30503
1.30498
1.30493
1.30487
1.30482
1.30477
1.30472
1.30467
1.30462
1.30457
1.30453
1.30448
1.30443
1.30439
1.30435
1.30431
1.30427
1.30423
1.3042
1.30416
1.30413
1.3041
1.30408
1.30406
1.30404
1.30402
1.30401
1.304
1.30399
1.30399
1.30399
1.304
1.30401
1.30402
1.30404
1.30407
1.3041
1.30413
1.30417
1.30422
1.30428
1.30434
1.3044
1.30448
1.30455
1.30464
1.30474
1.30484
1.30495
1.30506
1.30519
1.30532
1.30546
1.30561
1.30577
1.30594
1.30611
1.3063
1.30649
1.30669
1.3069
1.30712
1.30735
1.30759
1.30783
1.30809
1.30835
1.30862
1.3089
1.30918
1.30948
1.30978
1.31008
1.3104
1.31071
1.31104
1.31137
1.3117
1.31204
1.31238
1.31272
1.31306
1.31341
1.31375
1.3141
1.31444
1.31477
1.31511
1.31544
1.31576
1.31608
1.31639
1.3167
1.31699
1.31728
1.31756
1.31783
1.31809
1.31833
1.31857
1.3188
1.31902
1.31922
1.31942
1.31961
1.31979
1.31995
1.32012
1.32027
1.32041
1.32055
1.32068
1.32081
1.32093
1.32104
1.32115
1.32125
1.32136
1.32145
1.32154
1.32163
1.32172
1.3218
1.32189
1.32196
1.32204
1.32211
1.32219
1.32226
1.32232
1.32239
1.32245
1.32252
1.32258
1.32264
1.32269
1.32275
1.3228
1.32286
1.32291
1.32296
1.32302
1.32307
1.32312
1.32318
1.32323
1.32329
1.32335
1.32342
1.32349
1.32356
1.32364
1.32372
1.32381
1.32391
1.32402
1.32413
1.32426
1.32439
1.32454
1.3247
1.32487
1.32505
1.32525
1.32547
1.3257
1.32595
1.32622
1.32651
1.32681
1.32714
1.32749
1.32786
1.32825
1.32867
1.32912
1.32959
1.33009
1.33061
1.33117
1.33175
1.33237
1.33303
1.33371
1.33444
1.3352
1.336
1.33685
1.33774
1.33867
1.33967
1.34071
1.34182
1.343
1.34424
1.34557
1.34699
1.34852
1.35016
1.35193
1.35385
1.35594
1.35824
1.36075
1.36351
1.36652
1.36972
1.373
1.3761
1.37848
1.37969
1.3794
1.28847
1.28784
1.28781
1.28824
1.28893
1.28979
1.29067
1.2915
1.29226
1.29294
1.29352
1.29403
1.29447
1.29485
1.29517
1.29545
1.29569
1.29589
1.29607
1.29621
1.29634
1.29644
1.29653
1.2966
1.29665
1.2967
1.29673
1.29675
1.29676
1.29676
1.29676
1.29675
1.29673
1.29671
1.29668
1.29665
1.29661
1.29658
1.29654
1.29649
1.29645
1.29641
1.29636
1.29632
1.29627
1.29623
1.29619
1.29615
1.29611
1.29608
1.29605
1.29602
1.296
1.29598
1.29597
1.29596
1.29596
1.29597
1.29599
1.29601
1.29604
1.29608
1.29612
1.29618
1.29624
1.29632
1.2964
1.29649
1.29659
1.2967
1.29682
1.29695
1.29709
1.29723
1.29739
1.29755
1.29773
1.29791
1.2981
1.2983
1.2985
1.29872
1.29894
1.29917
1.2994
1.29964
1.29989
1.30014
1.3004
1.30066
1.30093
1.3012
1.30147
1.30174
1.30202
1.30229
1.30257
1.30284
1.30311
1.30338
1.30365
1.30391
1.30417
1.30442
1.30467
1.30492
1.30515
1.30538
1.3056
1.30581
1.30601
1.30621
1.30639
1.30656
1.30672
1.30687
1.307
1.30713
1.30724
1.30734
1.30743
1.30751
1.30757
1.30763
1.30767
1.30771
1.30773
1.30775
1.30776
1.30776
1.30776
1.30775
1.30773
1.30771
1.30769
1.30766
1.30763
1.30759
1.30755
1.30751
1.30747
1.30743
1.30738
1.30733
1.30728
1.30724
1.30719
1.30714
1.30709
1.30703
1.30698
1.30693
1.30688
1.30683
1.30678
1.30673
1.30668
1.30663
1.30658
1.30653
1.30647
1.30642
1.30637
1.30632
1.30627
1.30622
1.30617
1.30612
1.30607
1.30602
1.30597
1.30592
1.30586
1.30581
1.30576
1.30571
1.30566
1.30561
1.30555
1.3055
1.30545
1.30539
1.30534
1.30529
1.30523
1.30518
1.30513
1.30508
1.30502
1.30497
1.30492
1.30486
1.30481
1.30476
1.30471
1.30466
1.30461
1.30456
1.30452
1.30447
1.30442
1.30438
1.30434
1.3043
1.30426
1.30422
1.30419
1.30415
1.30412
1.30409
1.30407
1.30404
1.30402
1.30401
1.30399
1.30398
1.30398
1.30398
1.30398
1.30398
1.30399
1.30401
1.30403
1.30405
1.30408
1.30412
1.30416
1.30421
1.30426
1.30432
1.30439
1.30446
1.30454
1.30463
1.30472
1.30482
1.30493
1.30505
1.30518
1.30531
1.30545
1.3056
1.30576
1.30593
1.3061
1.30629
1.30648
1.30668
1.30689
1.30711
1.30734
1.30758
1.30782
1.30808
1.30834
1.30861
1.30889
1.30918
1.30948
1.30978
1.31009
1.3104
1.31072
1.31105
1.31138
1.31172
1.31206
1.3124
1.31274
1.31309
1.31344
1.31378
1.31413
1.31447
1.31481
1.31515
1.31548
1.31581
1.31613
1.31644
1.31675
1.31704
1.31733
1.31761
1.31787
1.31813
1.31838
1.31862
1.31884
1.31906
1.31926
1.31946
1.31964
1.31982
1.31998
1.32014
1.32029
1.32044
1.32057
1.3207
1.32082
1.32094
1.32105
1.32116
1.32126
1.32136
1.32146
1.32155
1.32164
1.32172
1.3218
1.32188
1.32196
1.32204
1.32211
1.32218
1.32225
1.32232
1.32238
1.32245
1.32251
1.32257
1.32263
1.32269
1.32274
1.3228
1.32285
1.3229
1.32295
1.323
1.32306
1.32311
1.32316
1.32322
1.32327
1.32333
1.32339
1.32346
1.32353
1.32361
1.32369
1.32378
1.32387
1.32398
1.32409
1.32422
1.32435
1.32449
1.32465
1.32482
1.32501
1.3252
1.32542
1.32565
1.3259
1.32616
1.32645
1.32675
1.32708
1.32743
1.3278
1.32819
1.32861
1.32905
1.32952
1.33002
1.33054
1.33109
1.33168
1.33229
1.33294
1.33363
1.33434
1.3351
1.3359
1.33673
1.33762
1.33854
1.33952
1.34055
1.34164
1.34279
1.34401
1.34531
1.34668
1.34815
1.34972
1.35141
1.35322
1.35517
1.35727
1.35954
1.36195
1.36448
1.36705
1.36951
1.37164
1.37316
1.37375
1.37349
1.29003
1.28949
1.28937
1.28955
1.28998
1.29055
1.29119
1.29183
1.29244
1.29301
1.29352
1.29398
1.29438
1.29473
1.29504
1.29531
1.29555
1.29575
1.29592
1.29607
1.2962
1.29631
1.2964
1.29647
1.29653
1.29658
1.29662
1.29664
1.29666
1.29667
1.29667
1.29666
1.29664
1.29663
1.2966
1.29657
1.29654
1.2965
1.29647
1.29643
1.29638
1.29634
1.2963
1.29625
1.29621
1.29617
1.29613
1.29609
1.29605
1.29602
1.29599
1.29596
1.29594
1.29593
1.29592
1.29591
1.29591
1.29592
1.29594
1.29596
1.29599
1.29603
1.29608
1.29613
1.2962
1.29627
1.29636
1.29645
1.29655
1.29666
1.29678
1.29691
1.29705
1.2972
1.29736
1.29752
1.2977
1.29788
1.29807
1.29827
1.29848
1.2987
1.29892
1.29915
1.29939
1.29963
1.29988
1.30013
1.30039
1.30066
1.30093
1.3012
1.30147
1.30175
1.30203
1.3023
1.30258
1.30286
1.30313
1.3034
1.30367
1.30394
1.3042
1.30445
1.3047
1.30495
1.30519
1.30542
1.30564
1.30585
1.30605
1.30625
1.30643
1.3066
1.30676
1.30691
1.30704
1.30717
1.30728
1.30738
1.30746
1.30754
1.3076
1.30765
1.30769
1.30773
1.30775
1.30776
1.30777
1.30777
1.30776
1.30775
1.30773
1.30771
1.30768
1.30765
1.30762
1.30758
1.30754
1.3075
1.30746
1.30741
1.30737
1.30732
1.30727
1.30722
1.30717
1.30712
1.30707
1.30702
1.30697
1.30692
1.30687
1.30682
1.30676
1.30671
1.30666
1.30661
1.30656
1.30651
1.30646
1.30641
1.30636
1.30631
1.30626
1.30621
1.30616
1.30611
1.30606
1.30601
1.30596
1.30591
1.30585
1.3058
1.30575
1.3057
1.30565
1.3056
1.30554
1.30549
1.30544
1.30538
1.30533
1.30528
1.30523
1.30517
1.30512
1.30507
1.30501
1.30496
1.30491
1.30486
1.3048
1.30475
1.3047
1.30465
1.3046
1.30455
1.30451
1.30446
1.30441
1.30437
1.30433
1.30429
1.30425
1.30421
1.30417
1.30414
1.30411
1.30408
1.30405
1.30403
1.30401
1.30399
1.30398
1.30397
1.30396
1.30396
1.30396
1.30397
1.30398
1.30399
1.30401
1.30404
1.30407
1.3041
1.30414
1.30419
1.30424
1.3043
1.30437
1.30444
1.30452
1.30461
1.3047
1.3048
1.30491
1.30503
1.30516
1.30529
1.30543
1.30558
1.30574
1.30591
1.30608
1.30627
1.30646
1.30666
1.30687
1.30709
1.30732
1.30756
1.30781
1.30807
1.30833
1.3086
1.30888
1.30917
1.30947
1.30977
1.31008
1.3104
1.31072
1.31105
1.31139
1.31173
1.31207
1.31241
1.31276
1.31311
1.31346
1.31381
1.31416
1.31451
1.31485
1.31519
1.31552
1.31585
1.31617
1.31649
1.3168
1.31709
1.31738
1.31766
1.31793
1.31819
1.31843
1.31867
1.31889
1.3191
1.31931
1.3195
1.31968
1.31986
1.32002
1.32017
1.32032
1.32046
1.32059
1.32072
1.32084
1.32096
1.32107
1.32117
1.32127
1.32137
1.32146
1.32155
1.32164
1.32172
1.32181
1.32189
1.32196
1.32204
1.32211
1.32218
1.32225
1.32232
1.32238
1.32244
1.32251
1.32257
1.32262
1.32268
1.32273
1.32279
1.32284
1.32289
1.32294
1.32299
1.32304
1.32309
1.32314
1.32319
1.32325
1.32331
1.32337
1.32343
1.3235
1.32357
1.32365
1.32374
1.32383
1.32394
1.32405
1.32417
1.3243
1.32444
1.3246
1.32476
1.32495
1.32514
1.32536
1.32558
1.32583
1.32609
1.32638
1.32668
1.327
1.32735
1.32772
1.32811
1.32852
1.32896
1.32943
1.32992
1.33044
1.33099
1.33157
1.33219
1.33283
1.33351
1.33422
1.33497
1.33575
1.33658
1.33745
1.33836
1.33932
1.34033
1.3414
1.34252
1.3437
1.34496
1.34628
1.34769
1.34918
1.35076
1.35245
1.35425
1.35615
1.35815
1.36022
1.36232
1.36436
1.3662
1.36769
1.36868
1.369
1.36865
1.29118
1.29074
1.29057
1.29063
1.29089
1.29127
1.29172
1.29221
1.29269
1.29316
1.2936
1.294
1.29436
1.29468
1.29497
1.29522
1.29545
1.29564
1.29581
1.29596
1.29609
1.2962
1.29629
1.29637
1.29643
1.29648
1.29652
1.29655
1.29657
1.29658
1.29658
1.29658
1.29657
1.29655
1.29653
1.2965
1.29647
1.29644
1.2964
1.29636
1.29632
1.29628
1.29624
1.2962
1.29615
1.29611
1.29607
1.29603
1.296
1.29597
1.29594
1.29591
1.29589
1.29587
1.29586
1.29586
1.29586
1.29587
1.29589
1.29591
1.29594
1.29598
1.29603
1.29608
1.29615
1.29623
1.29631
1.2964
1.29651
1.29662
1.29674
1.29687
1.29701
1.29716
1.29732
1.29749
1.29766
1.29785
1.29804
1.29824
1.29845
1.29867
1.29889
1.29913
1.29937
1.29961
1.29986
1.30012
1.30038
1.30065
1.30092
1.3012
1.30147
1.30175
1.30203
1.30231
1.30259
1.30287
1.30315
1.30342
1.30369
1.30396
1.30422
1.30448
1.30474
1.30498
1.30522
1.30545
1.30568
1.30589
1.3061
1.30629
1.30647
1.30665
1.30681
1.30695
1.30709
1.30721
1.30732
1.30742
1.3075
1.30757
1.30763
1.30768
1.30772
1.30775
1.30777
1.30778
1.30779
1.30778
1.30777
1.30776
1.30774
1.30771
1.30768
1.30765
1.30761
1.30758
1.30753
1.30749
1.30745
1.3074
1.30735
1.30731
1.30726
1.30721
1.30716
1.30711
1.30706
1.307
1.30695
1.3069
1.30685
1.3068
1.30675
1.3067
1.30665
1.3066
1.30655
1.3065
1.30645
1.3064
1.30635
1.3063
1.30625
1.3062
1.30615
1.3061
1.30605
1.306
1.30595
1.3059
1.30584
1.30579
1.30574
1.30569
1.30564
1.30559
1.30553
1.30548
1.30543
1.30538
1.30532
1.30527
1.30522
1.30516
1.30511
1.30506
1.305
1.30495
1.3049
1.30485
1.30479
1.30474
1.30469
1.30464
1.30459
1.30454
1.30449
1.30445
1.3044
1.30436
1.30432
1.30427
1.30423
1.3042
1.30416
1.30413
1.3041
1.30407
1.30404
1.30402
1.304
1.30398
1.30396
1.30395
1.30395
1.30394
1.30394
1.30395
1.30396
1.30397
1.30399
1.30402
1.30405
1.30408
1.30412
1.30417
1.30422
1.30428
1.30434
1.30442
1.3045
1.30458
1.30468
1.30478
1.30489
1.305
1.30513
1.30526
1.3054
1.30555
1.30571
1.30588
1.30605
1.30624
1.30643
1.30664
1.30685
1.30707
1.3073
1.30754
1.30779
1.30804
1.30831
1.30858
1.30886
1.30916
1.30945
1.30976
1.31007
1.31039
1.31072
1.31105
1.31139
1.31173
1.31207
1.31242
1.31277
1.31313
1.31348
1.31384
1.31419
1.31454
1.31489
1.31523
1.31557
1.3159
1.31622
1.31654
1.31685
1.31715
1.31744
1.31772
1.31799
1.31824
1.31849
1.31872
1.31895
1.31916
1.31936
1.31955
1.31973
1.3199
1.32006
1.32021
1.32036
1.32049
1.32062
1.32075
1.32087
1.32098
1.32108
1.32119
1.32129
1.32138
1.32147
1.32156
1.32165
1.32173
1.32181
1.32189
1.32196
1.32204
1.32211
1.32218
1.32225
1.32232
1.32238
1.32244
1.3225
1.32256
1.32262
1.32267
1.32273
1.32278
1.32283
1.32288
1.32293
1.32298
1.32302
1.32307
1.32312
1.32317
1.32323
1.32328
1.32334
1.3234
1.32347
1.32354
1.32361
1.3237
1.32379
1.32389
1.324
1.32411
1.32424
1.32438
1.32453
1.3247
1.32488
1.32507
1.32528
1.32551
1.32575
1.32601
1.32629
1.32659
1.32691
1.32725
1.32762
1.32801
1.32842
1.32885
1.32932
1.3298
1.33032
1.33087
1.33144
1.33204
1.33268
1.33335
1.33405
1.33479
1.33557
1.33638
1.33723
1.33813
1.33907
1.34005
1.34109
1.34218
1.34332
1.34453
1.34579
1.34713
1.34853
1.35001
1.35157
1.35321
1.35491
1.35666
1.35842
1.36015
1.36176
1.36316
1.36423
1.36488
1.36504
1.36466
1.29205
1.29169
1.29151
1.2915
1.29165
1.2919
1.29223
1.29259
1.29298
1.29336
1.29372
1.29407
1.29438
1.29467
1.29494
1.29517
1.29538
1.29557
1.29573
1.29588
1.296
1.29611
1.2962
1.29628
1.29634
1.29639
1.29643
1.29646
1.29648
1.2965
1.2965
1.2965
1.29649
1.29648
1.29646
1.29643
1.2964
1.29637
1.29634
1.2963
1.29626
1.29622
1.29618
1.29614
1.2961
1.29605
1.29602
1.29598
1.29594
1.29591
1.29588
1.29586
1.29584
1.29582
1.29581
1.29581
1.29581
1.29582
1.29583
1.29586
1.29589
1.29593
1.29598
1.29603
1.2961
1.29618
1.29626
1.29635
1.29646
1.29657
1.29669
1.29683
1.29697
1.29712
1.29728
1.29745
1.29763
1.29781
1.29801
1.29821
1.29842
1.29864
1.29887
1.2991
1.29934
1.29959
1.29984
1.30011
1.30037
1.30064
1.30091
1.30119
1.30147
1.30175
1.30204
1.30232
1.3026
1.30289
1.30317
1.30344
1.30372
1.30399
1.30425
1.30451
1.30477
1.30502
1.30526
1.30549
1.30572
1.30594
1.30614
1.30634
1.30652
1.3067
1.30686
1.307
1.30714
1.30726
1.30737
1.30746
1.30754
1.30761
1.30767
1.30772
1.30775
1.30778
1.30779
1.3078
1.3078
1.3078
1.30778
1.30777
1.30774
1.30771
1.30768
1.30765
1.30761
1.30757
1.30753
1.30748
1.30744
1.30739
1.30734
1.30729
1.30724
1.30719
1.30714
1.30709
1.30704
1.30699
1.30694
1.30689
1.30684
1.30679
1.30674
1.30669
1.30664
1.30659
1.30654
1.30649
1.30644
1.30639
1.30634
1.30629
1.30624
1.30619
1.30614
1.30609
1.30604
1.30599
1.30594
1.30589
1.30583
1.30578
1.30573
1.30568
1.30563
1.30558
1.30552
1.30547
1.30542
1.30537