# vtk DataFile Version 2.0
LBE two cylinders
ASCII
DATASET STRUCTURED_POINTS
DIMENSIONS 400 100 1
ASPECT_RATIO 1 1 1
ORIGIN 0 0 0
POINT_DATA 40000
SCALARS rho double 1
LOOKUP_TABLE default
1.68507
1.68517
1.68526
1.68534
1.6854
1.68544
1.68547
1.68548
1.68547
1.68545
1.68541
1.68535
1.68528
1.68519
1.68509
1.68497
1.68485
1.68471
1.68457
1.68442
1.68427
1.68411
1.68396
1.6838
1.68365
1.6835
1.68336
1.68322
1.68309
1.68298
1.68287
1.68278
1.6827
1.68263
1.68257
1.68253
1.6825
1.68249
1.68249
1.6825
1.68252
1.68256
1.68261
1.68267
1.68274
1.68283
1.68292
1.68302
1.68313
1.68325
1.68337
1.68351
1.68364
1.68379
1.68394
1.68409
1.68425
1.68441
1.68457
1.68474
1.68491
1.68508
1.68525
1.68543
1.68561
1.68579
1.68597
1.68616
1.68635
1.68655
1.68674
1.68695
1.68715
1.68736
1.68758
1.6878
1.68802
1.68825
1.68848
1.68872
1.68896
1.6892
1.68945
1.6897
1.68996
1.69022
1.69047
1.69073
1.69099
1.69125
1.69151
1.69176
1.69201
1.69225
1.69249
1.69271
1.69292
1.69311
1.69328
1.69343
1.69355
1.69365
1.69371
1.69373
1.69373
1.69368
1.69359
1.69347
1.69331
1.69312
1.6929
1.69265
1.69239
1.69213
1.69186
1.69161
1.69138
1.69118
1.69102
1.69092
1.69086
1.69087
1.69095
1.69109
1.69129
1.69155
1.69187
1.69224
1.69265
1.69309
1.69355
1.69402
1.69448
1.69492
1.69533
1.6957
1.69602
1.69628
1.69646
1.69658
1.69661
1.69656
1.69643
1.69622
1.69593
1.69556
1.69512
1.69462
1.69405
1.69343
1.69276
1.69205
1.69131
1.69054
1.68974
1.68893
1.68812
1.6873
1.68648
1.68567
1.68488
1.6841
1.68336
1.68264
1.68196
1.68131
1.68071
1.68016
1.67965
1.6792
1.6788
1.67846
1.67818
1.67796
1.6778
1.67769
1.67764
1.67765
1.67771
1.67782
1.67797
1.67816
1.67839
1.67865
1.67893
1.67923
1.67954
1.67986
1.68018
1.6805
1.6808
1.68108
1.68135
1.68159
1.6818
1.68198
1.68212
1.68224
1.68232
1.68237
1.68238
1.68237
1.68233
1.68227
1.68219
1.68209
1.68198
1.68186
1.68174
1.68163
1.68151
1.68141
1.68132
1.68125
1.6812
1.68117
1.68116
1.68118
1.68122
1.68128
1.68137
1.68148
1.68161
1.68175
1.68191
1.68208
1.68225
1.68243
1.6826
1.68277
1.68293
1.68307
1.6832
1.6833
1.68338
1.68344
1.68347
1.68348
1.68346
1.68341
1.68334
1.68325
1.68314
1.68301
1.68287
1.68271
1.68255
1.68239
1.68223
1.68206
1.68191
1.68177
1.68163
1.68152
1.68142
1.68133
1.68127
1.68123
1.6812
1.6812
1.68122
1.68126
1.68131
1.68139
1.68148
1.68158
1.6817
1.68183
1.68197
1.68212
1.68227
1.68244
1.6826
1.68277
1.68294
1.68311
1.68328
1.68345
1.68361
1.68378
1.68394
1.6841
1.68426
1.68442
1.68458
1.68473
1.68488
1.68503
1.68518
1.68533
1.68547
1.68561
1.68575
1.68589
1.68602
1.68614
1.68626
1.68637
1.68647
1.68657
1.68665
1.68672
1.68677
1.68682
1.68684
1.68685
1.68684
1.68682
1.68677
1.68671
1.68662
1.68652
1.6864
1.68625
1.68609
1.68592
1.68572
1.68551
1.68529
1.68505
1.68481
1.68455
1.68429
1.68402
1.68374
1.68347
1.68319
1.68291
1.68263
1.68236
1.68209
1.68183
1.68157
1.68131
1.68107
1.68083
1.68061
1.68039
1.68018
1.67998
1.6798
1.67962
1.67946
1.6793
1.67916
1.67903
1.67892
1.67881
1.67872
1.67865
1.67858
1.67853
1.6785
1.67847
1.67846
1.67847
1.67848
1.67851
1.67856
1.67861
1.67868
1.67876
1.67885
1.67895
1.67906
1.67917
1.6793
1.67944
1.67958
1.67972
1.67988
1.68004
1.6802
1.68037
1.68054
1.68071
1.68089
1.68107
1.68126
1.68144
1.68163
1.68182
1.68201
1.6822
1.68239
1.68258
1.68277
1.68296
1.68315
1.68334
1.68352
1.6837
1.68388
1.68406
1.68423
1.68439
1.68454
1.68469
1.68483
1.68495
1.68508
1.68519
1.68528
1.68535
1.68541
1.68545
1.68548
1.68549
1.68549
1.68546
1.68542
1.68537
1.68529
1.68521
1.68511
1.68499
1.68487
1.68473
1.68459
1.68444
1.68429
1.68413
1.68398
1.68382
1.68367
1.68352
1.68338
1.68324
1.68312
1.683
1.68289
1.6828
1.68272
1.68265
1.68259
1.68255
1.68252
1.68251
1.68251
1.68252
1.68254
1.68258
1.68263
1.68269
1.68276
1.68284
1.68294
1.68304
1.68315
1.68327
1.68339
1.68352
1.68366
1.6838
1.68395
1.6841
1.68426
1.68442
1.68458
1.68475
1.68492
1.68509
1.68526
1.68544
1.68561
1.68579
1.68598
1.68616
1.68635
1.68655
1.68674
1.68695
1.68715
1.68736
1.68757
1.68779
1.68801
1.68824
1.68847
1.68871
1.68895
1.68919
1.68944
1.68969
1.68994
1.6902
1.69046
1.69072
1.69098
1.69123
1.69149
1.69174
1.69199
1.69223
1.69246
1.69269
1.69289
1.69308
1.69325
1.6934
1.69353
1.69362
1.69368
1.69371
1.69371
1.69366
1.69358
1.69346
1.69331
1.69312
1.69291
1.69267
1.69242
1.69216
1.6919
1.69166
1.69143
1.69124
1.69108
1.69098
1.69093
1.69094
1.69101
1.69115
1.69134
1.6916
1.69192
1.69228
1.69268
1.69312
1.69357
1.69403
1.69448
1.69491
1.69532
1.69568
1.696
1.69625
1.69644
1.69655
1.69658
1.69653
1.6964
1.69619
1.6959
1.69553
1.69509
1.69459
1.69402
1.6934
1.69274
1.69203
1.69129
1.69052
1.68972
1.68892
1.6881
1.68729
1.68647
1.68567
1.68488
1.68411
1.68337
1.68265
1.68197
1.68133
1.68074
1.68019
1.67969
1.67924
1.67884
1.67851
1.67823
1.67801
1.67785
1.67774
1.67769
1.6777
1.67776
1.67786
1.67801
1.6782
1.67843
1.67868
1.67896
1.67926
1.67957
1.67988
1.6802
1.68051
1.6808
1.68109
1.68135
1.68158
1.68179
1.68197
1.68212
1.68223
1.68231
1.68236
1.68238
1.68237
1.68233
1.68227
1.68219
1.6821
1.68199
1.68188
1.68176
1.68165
1.68154
1.68144
1.68136
1.68129
1.68124
1.68121
1.6812
1.68122
1.68126
1.68133
1.68141
1.68152
1.68165
1.68179
1.68194
1.68211
1.68228
1.68245
1.68262
1.68279
1.68294
1.68308
1.68321
1.68331
1.68339
1.68344
1.68348
1.68348
1.68346
1.68341
1.68334
1.68325
1.68314
1.68302
1.68288
1.68272
1.68257
1.68241
1.68224
1.68209
1.68193
1.68179
1.68166
1.68155
1.68145
1.68136
1.6813
1.68126
1.68123
1.68123
1.68125
1.68129
1.68134
1.68141
1.6815
1.68161
1.68172
1.68185
1.68199
1.68214
1.68229
1.68245
1.68261
1.68278
1.68295
1.68312
1.68329
1.68345
1.68362
1.68379
1.68395
1.68411
1.68427
1.68443
1.68458
1.68474
1.68489
1.68504
1.68519
1.68533
1.68548
1.68562
1.68575
1.68589
1.68602
1.68614
1.68626
1.68637
1.68647
1.68656
1.68664
1.68671
1.68676
1.6868
1.68683
1.68684
1.68683
1.6868
1.68676
1.68669
1.68661
1.6865
1.68638
1.68624
1.68608
1.6859
1.68571
1.6855
1.68528
1.68505
1.6848
1.68455
1.68429
1.68402
1.68375
1.68347
1.6832
1.68292
1.68265
1.68237
1.68211
1.68184
1.68159
1.68134
1.68109
1.68086
1.68063
1.68042
1.68021
1.68001
1.67983
1.67965
1.67949
1.67934
1.6792
1.67907
1.67895
1.67885
1.67876
1.67868
1.67862
1.67857
1.67853
1.67851
1.6785
1.67851
1.67853
1.67856
1.6786
1.67865
1.67872
1.6788
1.67889
1.67899
1.6791
1.67922
1.67934
1.67948
1.67962
1.67976
1.67992
1.68008
1.68024
1.68041
1.68058
1.68075
1.68093
1.68111
1.68129
1.68148
1.68166
1.68185
1.68204
1.68223
1.68242
1.68261
1.6828
1.68299
1.68317
1.68336
1.68354
1.68372
1.6839
1.68407
1.68424
1.6844
1.68456
1.6847
1.68484
1.68497
1.68512
1.68522
1.68531
1.68539
1.68545
1.68549
1.68552
1.68553
1.68552
1.6855
1.68546
1.68541
1.68533
1.68525
1.68515
1.68503
1.68491
1.68477
1.68463
1.68448
1.68433
1.68417
1.68401
1.68386
1.6837
1.68355
1.68341
1.68327
1.68315
1.68303
1.68292
1.68283
1.68275
1.68268
1.68262
1.68258
1.68255
1.68254
1.68253
1.68255
1.68257
1.68261
1.68266
1.68272
1.68279
1.68287
1.68297
1.68307
1.68318
1.68329
1.68342
1.68355
1.68369
1.68383
1.68398
1.68413
1.68428
1.68444
1.6846
1.68477
1.68493
1.6851
1.68527
1.68545
1.68562
1.6858
1.68598
1.68617
1.68636
1.68655
1.68675
1.68695
1.68715
1.68736
1.68757
1.68779
1.68801
1.68824
1.68847
1.6887
1.68894
1.68918
1.68943
1.68968
1.68993
1.69019
1.69045
1.69071
1.69096
1.69122
1.69148
1.69173
1.69198
1.69222
1.69245
1.69267
1.69288
1.69307
1.69325
1.6934
1.69352
1.69362
1.69369
1.69372
1.69372
1.69368
1.69361
1.69349
1.69335
1.69317
1.69296
1.69273
1.69248
1.69223
1.69198
1.69173
1.69151
1.69132
1.69117
1.69106
1.69101
1.69101
1.69108
1.69121
1.69141
1.69166
1.69197
1.69233
1.69272
1.69315
1.69359
1.69404
1.69449
1.69492
1.69532
1.69568
1.69599
1.69624
1.69642
1.69653
1.69656
1.69651
1.69637
1.69616
1.69586
1.6955
1.69506
1.69455
1.69399
1.69337
1.6927
1.69199
1.69125
1.69048
1.68969
1.68889
1.68808
1.68727
1.68646
1.68566
1.68487
1.68411
1.68337
1.68266
1.68199
1.68135
1.68076
1.68021
1.67972
1.67927
1.67888
1.67855
1.67828
1.67806
1.6779
1.67779
1.67775
1.67775
1.67781
1.67792
1.67806
1.67825
1.67847
1.67873
1.679
1.6793
1.6796
1.67991
1.68022
1.68053
1.68082
1.6811
1.68136
1.6816
1.6818
1.68198
1.68213
1.68224
1.68232
1.68237
1.68239
1.68238
1.68235
1.68229
1.68222
1.68213
1.68202
1.68191
1.6818
1.68169
1.68159
1.68149
1.68141
1.68134
1.68129
1.68127
1.68126
1.68128
1.68132
1.68139
1.68147
1.68158
1.6817
1.68184
1.682
1.68216
1.68233
1.6825
1.68266
1.68282
1.68297
1.68311
1.68323
1.68333
1.68341
1.68346
1.68349
1.6835
1.68348
1.68343
1.68336
1.68327
1.68316
1.68304
1.6829
1.68275
1.68259
1.68244
1.68228
1.68212
1.68197
1.68183
1.6817
1.68159
1.68149
1.6814
1.68134
1.6813
1.68127
1.68127
1.68128
1.68132
1.68137
1.68144
1.68153
1.68163
1.68174
1.68187
1.68201
1.68215
1.6823
1.68246
1.68262
1.68279
1.68295
1.68312
1.68329
1.68346
1.68362
1.68379
1.68395
1.68411
1.68427
1.68443
1.68458
1.68474
1.68489
1.68504
1.68519
1.68533
1.68547
1.68561
1.68575
1.68588
1.68601
1.68613
1.68625
1.68635
1.68645
1.68654
1.68662
1.68669
1.68675
1.68678
1.68681
1.68682
1.68681
1.68678
1.68673
1.68667
1.68659
1.68648
1.68636
1.68622
1.68607
1.68589
1.6857
1.6855
1.68528
1.68505
1.6848
1.68455
1.6843
1.68403
1.68376
1.68349
1.68322
1.68294
1.68267
1.6824
1.68214
1.68188
1.68162
1.68137
1.68113
1.6809
1.68068
1.68046
1.68026
1.68006
1.67988
1.67971
1.67954
1.67939
1.67925
1.67913
1.67901
1.67891
1.67882
1.67875
1.67869
1.67864
1.6786
1.67858
1.67857
1.67858
1.6786
1.67863
1.67867
1.67873
1.67879
1.67887
1.67896
1.67906
1.67917
1.67929
1.67942
1.67955
1.67969
1.67984
1.67999
1.68015
1.68031
1.68048
1.68065
1.68082
1.681
1.68118
1.68136
1.68154
1.68173
1.68191
1.6821
1.68229
1.68248
1.68266
1.68285
1.68304
1.68323
1.68341
1.68359
1.68377
1.68395
1.68412
1.68429
1.68445
1.6846
1.68474
1.68488
1.68501
1.68519
1.68529
1.68538
1.68545
1.68551
1.68555
1.68558
1.68559
1.68559
1.68556
1.68553
1.68547
1.6854
1.68531
1.68521
1.68509
1.68497
1.68483
1.68469
1.68454
1.68438
1.68422
1.68407
1.68391
1.68375
1.6836
1.68346
1.68332
1.68319
1.68307
1.68296
1.68287
1.68279
1.68272
1.68266
1.68262
1.68259
1.68257
1.68257
1.68258
1.68261
1.68265
1.6827
1.68276
1.68283
1.68291
1.683
1.6831
1.68321
1.68333
1.68345
1.68358
1.68372
1.68386
1.68401
1.68415
1.68431
1.68446
1.68462
1.68479
1.68495
1.68512
1.68529
1.68546
1.68563
1.68581
1.68599
1.68617
1.68636
1.68655
1.68674
1.68694
1.68715
1.68735
1.68756
1.68778
1.688
1.68823
1.68846
1.68869
1.68893
1.68918
1.68942
1.68967
1.68993
1.69018
1.69044
1.6907
1.69096
1.69122
1.69147
1.69173
1.69198
1.69222
1.69245
1.69267
1.69288
1.69308
1.69325
1.69341
1.69353
1.69364
1.69371
1.69374
1.69375
1.69371
1.69364
1.69354
1.69339
1.69322
1.69302
1.69279
1.69255
1.6923
1.69205
1.69181
1.69159
1.6914
1.69124
1.69114
1.69108
1.69108
1.69115
1.69127
1.69146
1.69171
1.69201
1.69236
1.69275
1.69317
1.69361
1.69406
1.6945
1.69492
1.69531
1.69567
1.69597
1.69622
1.69639
1.69649
1.69652
1.69646
1.69633
1.69611
1.69581
1.69544
1.695
1.69449
1.69393
1.69331
1.69264
1.69194
1.6912
1.69044
1.68965
1.68885
1.68805
1.68724
1.68644
1.68564
1.68486
1.68411
1.68337
1.68267
1.682
1.68138
1.68079
1.68025
1.67976
1.67932
1.67894
1.67861
1.67834
1.67812
1.67796
1.67786
1.67781
1.67782
1.67788
1.67798
1.67813
1.67831
1.67853
1.67878
1.67905
1.67934
1.67965
1.67995
1.68026
1.68056
1.68086
1.68113
1.68139
1.68162
1.68183
1.68201
1.68215
1.68227
1.68235
1.68241
1.68243
1.68242
1.68239
1.68234
1.68227
1.68218
1.68209
1.68198
1.68187
1.68177
1.68167
1.68158
1.6815
1.68143
1.68139
1.68136
1.68136
1.68137
1.68141
1.68148
1.68156
1.68167
1.68179
1.68193
1.68208
1.68224
1.6824
1.68257
1.68273
1.68289
1.68303
1.68317
1.68328
1.68338
1.68346
1.68351
1.68354
1.68355
1.68352
1.68348
1.68341
1.68332
1.68322
1.68309
1.68296
1.68281
1.68266
1.6825
1.68234
1.68219
1.68204
1.6819
1.68177
1.68166
1.68156
1.68147
1.68141
1.68136
1.68134
1.68133
1.68134
1.68137
1.68142
1.68149
1.68158
1.68167
1.68178
1.68191
1.68204
1.68218
1.68233
1.68249
1.68265
1.68281
1.68297
1.68314
1.68331
1.68347
1.68364
1.6838
1.68397
1.68413
1.68429
1.68444
1.6846
1.68475
1.6849
1.68505
1.6852
1.68534
1.68549
1.68562
1.68576
1.68589
1.68602
1.68614
1.68625
1.68636
1.68645
1.68654
1.68662
1.68669
1.68674
1.68678
1.6868
1.68681
1.6868
1.68677
1.68672
1.68666
1.68658
1.68647
1.68636
1.68622
1.68606
1.68589
1.6857
1.6855
1.68529
1.68506
1.68482
1.68457
1.68432
1.68406
1.6838
1.68353
1.68326
1.68299
1.68272
1.68245
1.68219
1.68194
1.68168
1.68144
1.6812
1.68097
1.68075
1.68054
1.68034
1.68014
1.67996
1.67979
1.67963
1.67948
1.67934
1.67922
1.67911
1.67901
1.67892
1.67884
1.67878
1.67874
1.6787
1.67868
1.67867
1.67868
1.6787
1.67873
1.67877
1.67883
1.6789
1.67898
1.67907
1.67917
1.67928
1.67939
1.67952
1.67965
1.67979
1.67994
1.68009
1.68025
1.68041
1.68058
1.68075
1.68092
1.6811
1.68127
1.68145
1.68164
1.68182
1.682
1.68219
1.68237
1.68256
1.68275
1.68293
1.68312
1.6833
1.68349
1.68367
1.68384
1.68402
1.68419
1.68436
1.68451
1.68467
1.68481
1.68495
1.68507
1.68527
1.68538
1.68546
1.68554
1.6856
1.68564
1.68567
1.68568
1.68568
1.68565
1.68561
1.68555
1.68548
1.68539
1.68529
1.68518
1.68505
1.68491
1.68477
1.68461
1.68446
1.68429
1.68413
1.68397
1.68382
1.68366
1.68352
1.68338
1.68325
1.68312
1.68302
1.68292
1.68284
1.68277
1.68271
1.68267
1.68264
1.68262
1.68262
1.68263
1.68266
1.6827
1.68275
1.68281
1.68288
1.68296
1.68305
1.68315
1.68326
1.68338
1.6835
1.68363
1.68376
1.6839
1.68404
1.68419
1.68434
1.6845
1.68465
1.68481
1.68497
1.68514
1.68531
1.68548
1.68565
1.68582
1.686
1.68618
1.68637
1.68656
1.68675
1.68695
1.68715
1.68735
1.68757
1.68778
1.688
1.68823
1.68846
1.68869
1.68893
1.68918
1.68943
1.68968
1.68993
1.69019
1.69045
1.69071
1.69097
1.69123
1.69148
1.69174
1.69199
1.69223
1.69247
1.6927
1.69291
1.69311
1.69328
1.69344
1.69357
1.69368
1.69376
1.6938
1.69381
1.69378
1.69372
1.69362
1.69348
1.69332
1.69312
1.6929
1.69266
1.69241
1.69217
1.69193
1.69171
1.69152
1.69136
1.69125
1.69119
1.69119
1.69124
1.69136
1.69154
1.69178
1.69208
1.69242
1.6928
1.69321
1.69364
1.69408
1.69451
1.69493
1.69532
1.69566
1.69596
1.6962
1.69636
1.69646
1.69648
1.69642
1.69627
1.69605
1.69575
1.69538
1.69493
1.69442
1.69386
1.69324
1.69257
1.69187
1.69114
1.69038
1.6896
1.6888
1.688
1.6872
1.68641
1.68562
1.68485
1.6841
1.68338
1.68269
1.68203
1.68141
1.68083
1.68029
1.67981
1.67938
1.679
1.67868
1.67841
1.6782
1.67804
1.67794
1.6779
1.6779
1.67796
1.67806
1.6782
1.67839
1.6786
1.67885
1.67911
1.6794
1.6797
1.68
1.6803
1.6806
1.68089
1.68117
1.68142
1.68165
1.68186
1.68204
1.68219
1.6823
1.68239
1.68245
1.68247
1.68247
1.68245
1.6824
1.68234
1.68226
1.68216
1.68206
1.68196
1.68186
1.68176
1.68168
1.6816
1.68154
1.68149
1.68147
1.68147
1.68148
1.68152
1.68158
1.68167
1.68177
1.68189
1.68202
1.68217
1.68232
1.68248
1.68264
1.6828
1.68295
1.6831
1.68323
1.68334
1.68344
1.68351
1.68356
1.68359
1.6836
1.68358
1.68353
1.68347
1.68338
1.68328
1.68316
1.68302
1.68288
1.68273
1.68257
1.68242
1.68226
1.68211
1.68197
1.68185
1.68173
1.68163
1.68155
1.68148
1.68143
1.6814
1.68139
1.6814
1.68143
1.68147
1.68154
1.68161
1.68171
1.68182
1.68193
1.68206
1.6822
1.68235
1.6825
1.68266
1.68282
1.68298
1.68314
1.68331
1.68347
1.68364
1.6838
1.68396
1.68412
1.68428
1.68444
1.6846
1.68475
1.6849
1.68505
1.68519
1.68534
1.68548
1.68562
1.68575
1.68588
1.686
1.68612
1.68623
1.68634
1.68643
1.68652
1.6866
1.68666
1.68671
1.68675
1.68677
1.68678
1.68677
1.68674
1.6867
1.68663
1.68655
1.68645
1.68634
1.6862
1.68605
1.68588
1.6857
1.6855
1.68529
1.68507
1.68484
1.6846
1.68435
1.68409
1.68383
1.68357
1.68331
1.68304
1.68278
1.68252
1.68226
1.68201
1.68176
1.68152
1.68129
1.68106
1.68084
1.68063
1.68044
1.68024
1.68007
1.6799
1.67974
1.67959
1.67946
1.67934
1.67923
1.67913
1.67904
1.67897
1.67891
1.67886
1.67883
1.67881
1.6788
1.67881
1.67883
1.67886
1.67891
1.67896
1.67903
1.67911
1.6792
1.6793
1.67941
1.67953
1.67965
1.67979
1.67993
1.68007
1.68023
1.68038
1.68054
1.68071
1.68088
1.68105
1.68122
1.6814
1.68158
1.68176
1.68194
1.68212
1.68231
1.68249
1.68268
1.68286
1.68304
1.68323
1.68341
1.68359
1.68377
1.68394
1.68412
1.68429
1.68445
1.68461
1.68476
1.6849
1.68504
1.68516
1.68539
1.68549
1.68558
1.68565
1.68571
1.68575
1.68578
1.68579
1.68578
1.68576
1.68572
1.68566
1.68559
1.6855
1.68539
1.68528
1.68515
1.68501
1.68486
1.6847
1.68454
1.68438
1.68422
1.68405
1.68389
1.68374
1.68359
1.68345
1.68331
1.68319
1.68308
1.68298
1.6829
1.68283
1.68277
1.68273
1.6827
1.68268
1.68268
1.68269
1.68272
1.68276
1.68281
1.68287
1.68294
1.68302
1.68311
1.68321
1.68332
1.68343
1.68355
1.68368
1.68381
1.68395
1.68409
1.68424
1.68438
1.68453
1.68469
1.68484
1.685
1.68516
1.68533
1.68549
1.68566
1.68584
1.68601
1.68619
1.68637
1.68656
1.68675
1.68695
1.68715
1.68736
1.68757
1.68778
1.688
1.68823
1.68846
1.6887
1.68894
1.68918
1.68943
1.68968
1.68994
1.6902
1.69046
1.69072
1.69098
1.69124
1.6915
1.69176
1.69201
1.69225
1.69249
1.69272
1.69293
1.69313
1.69332
1.69348
1.69361
1.69372
1.6938
1.69385
1.69387
1.69385
1.69379
1.6937
1.69356
1.6934
1.69321
1.693
1.69276
1.69252
1.69227
1.69204
1.69182
1.69162
1.69146
1.69135
1.69128
1.69128
1.69133
1.69144
1.69161
1.69185
1.69213
1.69247
1.69284
1.69324
1.69366
1.69409
1.69452
1.69493
1.6953
1.69564
1.69593
1.69616
1.69632
1.69641
1.69642
1.69635
1.6962
1.69597
1.69567
1.69529
1.69484
1.69433
1.69377
1.69315
1.69249
1.69179
1.69106
1.69031
1.68953
1.68875
1.68796
1.68717
1.68638
1.6856
1.68484
1.6841
1.68339
1.68271
1.68206
1.68144
1.68087
1.68035
1.67988
1.67945
1.67908
1.67876
1.6785
1.67829
1.67814
1.67804
1.67799
1.678
1.67805
1.67816
1.6783
1.67848
1.67869
1.67893
1.67919
1.67947
1.67976
1.68006
1.68036
1.68066
1.68094
1.68122
1.68147
1.6817
1.68191
1.68209
1.68224
1.68236
1.68245
1.68252
1.68255
1.68255
1.68254
1.6825
1.68244
1.68236
1.68228
1.68218
1.68209
1.68199
1.6819
1.68182
1.68174
1.68168
1.68164
1.68162
1.68161
1.68163
1.68167
1.68173
1.68181
1.68191
1.68202
1.68215
1.68229
1.68244
1.6826
1.68275
1.68291
1.68306
1.68319
1.68332
1.68343
1.68353
1.6836
1.68365
1.68368
1.68368
1.68366
1.68362
1.68356
1.68347
1.68337
1.68325
1.68312
1.68298
1.68283
1.68268
1.68253
1.68237
1.68223
1.68209
1.68196
1.68184
1.68174
1.68165
1.68158
1.68153
1.6815
1.68148
1.68149
1.68151
1.68155
1.68161
1.68168
1.68177
1.68187
1.68199
1.68211
1.68225
1.68239
1.68254
1.68269
1.68285
1.68301
1.68317
1.68334
1.6835
1.68366
1.68383
1.68399
1.68415
1.68431
1.68446
1.68462
1.68477
1.68492
1.68507
1.68522
1.68536
1.6855
1.68563
1.68577
1.68589
1.68602
1.68613
1.68624
1.68634
1.68644
1.68652
1.6866
1.68666
1.68671
1.68674
1.68676
1.68677
1.68676
1.68673
1.68669
1.68663
1.68655
1.68645
1.68634
1.6862
1.68606
1.68589
1.68572
1.68552
1.68532
1.6851
1.68488
1.68464
1.6844
1.68415
1.6839
1.68364
1.68338
1.68312
1.68287
1.68261
1.68236
1.68211
1.68187
1.68163
1.6814
1.68118
1.68097
1.68076
1.68056
1.68038
1.6802
1.68003
1.67988
1.67973
1.6796
1.67948
1.67937
1.67928
1.67919
1.67912
1.67906
1.67902
1.67899
1.67897
1.67896
1.67897
1.67899
1.67902
1.67907
1.67912
1.67919
1.67927
1.67936
1.67946
1.67957
1.67969
1.67982
1.67995
1.68009
1.68024
1.68039
1.68054
1.68071
1.68087
1.68104
1.68121
1.68138
1.68156
1.68173
1.68191
1.68209
1.68227
1.68245
1.68263
1.68282
1.683
1.68318
1.68336
1.68354
1.68372
1.6839
1.68407
1.68424
1.68441
1.68457
1.68472
1.68487
1.68502
1.68515
1.68527
1.68552
1.68562
1.68571
1.68578
1.68584
1.68588
1.68591
1.68592
1.68592
1.68589
1.68585
1.68579
1.68572
1.68562
1.68552
1.6854
1.68527
1.68513
1.68498
1.68482
1.68465
1.68449
1.68432
1.68415
1.68399
1.68383
1.68368
1.68353
1.6834
1.68327
1.68316
1.68306
1.68298
1.6829
1.68284
1.6828
1.68277
1.68276
1.68275
1.68277
1.68279
1.68283
1.68288
1.68294
1.68301
1.68309
1.68318
1.68328
1.68339
1.6835
1.68362
1.68375
1.68388
1.68401
1.68415
1.68429
1.68443
1.68458
1.68473
1.68489
1.68504
1.6852
1.68536
1.68552
1.68569
1.68586
1.68603
1.68621
1.68639
1.68658
1.68677
1.68696
1.68716
1.68737
1.68758
1.68779
1.68801
1.68824
1.68847
1.68871
1.68895
1.6892
1.68945
1.6897
1.68996
1.69022
1.69048
1.69074
1.69101
1.69127
1.69153
1.69179
1.69204
1.69229
1.69253
1.69277
1.69299
1.69319
1.69338
1.69354
1.69369
1.6938
1.69389
1.69395
1.69397
1.69396
1.6939
1.69382
1.69369
1.69354
1.69335
1.69314
1.69291
1.69267
1.69243
1.69219
1.69197
1.69177
1.69161
1.69149
1.69141
1.6914
1.69144
1.69155
1.69171
1.69193
1.69221
1.69253
1.69289
1.69329
1.6937
1.69412
1.69453
1.69493
1.6953
1.69563
1.69591
1.69613
1.69628
1.69636
1.69636
1.69628
1.69613
1.69589
1.69558
1.6952
1.69475
1.69424
1.69367
1.69305
1.69239
1.6917
1.69097
1.69022
1.68946
1.68868
1.6879
1.68712
1.68634
1.68558
1.68483
1.6841
1.6834
1.68272
1.68209
1.68149
1.68093
1.68041
1.67994
1.67953
1.67916
1.67885
1.67859
1.67839
1.67824
1.67814
1.6781
1.67811
1.67816
1.67826
1.6784
1.67857
1.67878
1.67902
1.67927
1.67955
1.67984
1.68013
1.68043
1.68072
1.681
1.68127
1.68152
1.68176
1.68196
1.68215
1.6823
1.68243
1.68252
1.68259
1.68263
1.68264
1.68263
1.68259
1.68254
1.68247
1.68239
1.68231
1.68222
1.68213
1.68204
1.68196
1.68189
1.68184
1.6818
1.68177
1.68177
1.68179
1.68182
1.68188
1.68196
1.68205
1.68216
1.68228
1.68242
1.68256
1.68271
1.68286
1.68301
1.68316
1.68329
1.68341
1.68352
1.68361
1.68368
1.68373
1.68376
1.68376
1.68375
1.68371
1.68364
1.68356
1.68346
1.68335
1.68322
1.68308
1.68293
1.68278
1.68263
1.68248
1.68233
1.68219
1.68206
1.68195
1.68184
1.68175
1.68168
1.68162
1.68159
1.68157
1.68156
1.68158
1.68162
1.68167
1.68174
1.68182
1.68191
1.68202
1.68214
1.68227
1.68241
1.68255
1.6827
1.68286
1.68302
1.68318
1.68334
1.6835
1.68366
1.68383
1.68399
1.68415
1.68431
1.68446
1.68462
1.68477
1.68492
1.68507
1.68521
1.68535
1.68549
1.68563
1.68576
1.68588
1.686
1.68612
1.68623
1.68632
1.68642
1.6865
1.68657
1.68663
1.68668
1.68671
1.68674
1.68674
1.68673
1.6867
1.68666
1.6866
1.68653
1.68643
1.68632
1.68619
1.68605
1.68589
1.68572
1.68554
1.68534
1.68513
1.68491
1.68468
1.68445
1.68421
1.68396
1.68371
1.68346
1.68321
1.68296
1.68271
1.68247
1.68222
1.68199
1.68176
1.68153
1.68132
1.68111
1.6809
1.68071
1.68053
1.68036
1.68019
1.68004
1.6799
1.67977
1.67965
1.67955
1.67945
1.67937
1.6793
1.67925
1.6792
1.67917
1.67915
1.67915
1.67916
1.67918
1.67921
1.67926
1.67931
1.67938
1.67946
1.67955
1.67965
1.67976
1.67988
1.68001
1.68014
1.68028
1.68043
1.68058
1.68073
1.6809
1.68106
1.68123
1.6814
1.68157
1.68174
1.68192
1.68209
1.68227
1.68245
1.68263
1.6828
1.68298
1.68316
1.68334
1.68352
1.6837
1.68387
1.68405
1.68422
1.68439
1.68455
1.68471
1.68486
1.68501
1.68515
1.68529
1.68541
1.68568
1.68578
1.68586
1.68594
1.686
1.68604
1.68607
1.68608
1.68607
1.68604
1.686
1.68594
1.68586
1.68577
1.68566
1.68554
1.68541
1.68526
1.68511
1.68495
1.68478
1.68461
1.68444
1.68427
1.6841
1.68394
1.68379
1.68364
1.6835
1.68337
1.68326
1.68316
1.68307
1.68299
1.68293
1.68289
1.68286
1.68284
1.68284
1.68285
1.68288
1.68291
1.68296
1.68302
1.68309
1.68318
1.68326
1.68336
1.68347
1.68358
1.6837
1.68382
1.68395
1.68408
1.68421
1.68435
1.68449
1.68464
1.68478
1.68493
1.68508
1.68524
1.68539
1.68555
1.68572
1.68588
1.68605
1.68623
1.68641
1.68659
1.68678
1.68698
1.68717
1.68738
1.68759
1.68781
1.68803
1.68825
1.68848
1.68872
1.68896
1.68921
1.68946
1.68972
1.68998
1.69024
1.6905
1.69077
1.69103
1.6913
1.69156
1.69183
1.69208
1.69233
1.69258
1.69281
1.69303
1.69324
1.69343
1.6936
1.69375
1.69387
1.69396
1.69403
1.69405
1.69405
1.694
1.69392
1.6938
1.69366
1.69347
1.69327
1.69304
1.6928
1.69256
1.69232
1.6921
1.6919
1.69173
1.69161
1.69153
1.69151
1.69154
1.69164
1.69179
1.69201
1.69227
1.69259
1.69294
1.69332
1.69372
1.69413
1.69454
1.69493
1.69529
1.69561
1.69588
1.69609
1.69623
1.6963
1.69629
1.69621
1.69604
1.6958
1.69548
1.69509
1.69464
1.69413
1.69356
1.69295
1.69229
1.6916
1.69088
1.69014
1.68938
1.68862
1.68784
1.68708
1.68631
1.68556
1.68482
1.68411
1.68342
1.68276
1.68213
1.68154
1.68099
1.68049
1.68003
1.67962
1.67926
1.67896
1.67871
1.67851
1.67836
1.67827
1.67823
1.67823
1.67828
1.67838
1.67852
1.67869
1.67889
1.67912
1.67938
1.67965
1.67993
1.68022
1.68051
1.6808
1.68108
1.68135
1.6816
1.68183
1.68204
1.68223
1.68239
1.68252
1.68262
1.68269
1.68274
1.68276
1.68275
1.68273
1.68268
1.68263
1.68255
1.68248
1.68239
1.68231
1.68223
1.68215
1.68209
1.68203
1.68199
1.68197
1.68197
1.68198
1.68202
1.68207
1.68215
1.68224
1.68234
1.68246
1.68259
1.68273
1.68287
1.68302
1.68316
1.6833
1.68343
1.68355
1.68365
1.68374
1.68381
1.68385
1.68388
1.68389
1.68387
1.68383
1.68377
1.68369
1.6836
1.68348
1.68336
1.68322
1.68308
1.68293
1.68278
1.68263
1.68248
1.68234
1.68221
1.68209
1.68198
1.68189
1.68181
1.68175
1.68171
1.68168
1.68168
1.68169
1.68172
1.68176
1.68182
1.6819
1.68199
1.68209
1.68221
1.68233
1.68246
1.6826
1.68275
1.6829
1.68306
1.68321
1.68337
1.68353
1.6837
1.68386
1.68402
1.68418
1.68434
1.68449
1.68465
1.6848
1.68495
1.6851
1.68524
1.68538
1.68552
1.68565
1.68578
1.6859
1.68602
1.68613
1.68624
1.68634
1.68643
1.68651
1.68658
1.68663
1.68668
1.68671
1.68673
1.68674
1.68673
1.6867
1.68666
1.6866
1.68653
1.68644
1.68633
1.68621
1.68607
1.68592
1.68575
1.68557
1.68538
1.68518
1.68497
1.68475
1.68452
1.68429
1.68405
1.68381
1.68357
1.68332
1.68308
1.68284
1.6826
1.68236
1.68213
1.68191
1.68169
1.68148
1.68127
1.68108
1.68089
1.68071
1.68054
1.68038
1.68023
1.6801
1.67997
1.67985
1.67975
1.67966
1.67958
1.67951
1.67946
1.67941
1.67938
1.67937
1.67936
1.67937
1.67939
1.67943
1.67947
1.67953
1.6796
1.67968
1.67977
1.67987
1.67998
1.6801
1.68022
1.68036
1.6805
1.68064
1.6808
1.68095
1.68111
1.68127
1.68144
1.68161
1.68178
1.68195
1.68212
1.6823
1.68247
1.68265
1.68283
1.683
1.68318
1.68335
1.68353
1.6837
1.68388
1.68405
1.68422
1.68439
1.68456
1.68472
1.68488
1.68503
1.68518
1.68531
1.68545
1.68557
1.68586
1.68596
1.68604
1.68611
1.68617
1.68622
1.68624
1.68625
1.68624
1.68622
1.68617
1.68611
1.68603
1.68594
1.68583
1.68571
1.68557
1.68542
1.68526
1.6851
1.68493
1.68476
1.68458
1.68441
1.68424
1.68407
1.68391
1.68376
1.68362
1.68349
1.68337
1.68327
1.68318
1.6831
1.68304
1.683
1.68296
1.68295
1.68294
1.68296
1.68298
1.68302
1.68306
1.68312
1.68319
1.68327
1.68336
1.68346
1.68356
1.68367
1.68378
1.68391
1.68403
1.68416
1.68429
1.68442
1.68456
1.6847
1.68484
1.68499
1.68514
1.68529
1.68544
1.6856
1.68576
1.68592
1.68609
1.68626
1.68644
1.68662
1.68681
1.687
1.6872
1.6874
1.68761
1.68783
1.68805
1.68828
1.68851
1.68875
1.68899
1.68924
1.6895
1.68975
1.69001
1.69028
1.69054
1.69081
1.69108
1.69135
1.69161
1.69188
1.69214
1.6924
1.69264
1.69288
1.69311
1.69332
1.69352
1.6937
1.69385
1.69398
1.69408
1.69415
1.69418
1.69418
1.69415
1.69407
1.69396
1.69382
1.69364
1.69344
1.69322
1.69298
1.69274
1.6925
1.69227
1.69207
1.6919
1.69176
1.69168
1.69165
1.69167
1.69176
1.6919
1.6921
1.69236
1.69266
1.693
1.69337
1.69376
1.69416
1.69456
1.69493
1.69528
1.69559
1.69585
1.69605
1.69618
1.69624
1.69622
1.69612
1.69595
1.6957
1.69538
1.69498
1.69453
1.69401
1.69344
1.69283
1.69218
1.69149
1.69078
1.69005
1.6893
1.68854
1.68778
1.68703
1.68627
1.68554
1.68481
1.68411
1.68343
1.68279
1.68217
1.68159
1.68106
1.68056
1.68012
1.67972
1.67937
1.67907
1.67882
1.67863
1.67849
1.6784
1.67836
1.67836
1.67841
1.67851
1.67864
1.67881
1.67901
1.67923
1.67948
1.67975
1.68003
1.68031
1.6806
1.68088
1.68116
1.68143
1.68168
1.68191
1.68213
1.68231
1.68247
1.68261
1.68272
1.6828
1.68285
1.68288
1.68288
1.68286
1.68283
1.68277
1.68271
1.68264
1.68256
1.68249
1.68241
1.68234
1.68228
1.68223
1.68219
1.68217
1.68216
1.68218
1.68221
1.68226
1.68233
1.68242
1.68252
1.68263
1.68275
1.68289
1.68302
1.68316
1.6833
1.68343
1.68355
1.68367
1.68377
1.68385
1.68392
1.68397
1.68399
1.684
1.68398
1.68394
1.68389
1.68381
1.68372
1.6836
1.68348
1.68335
1.68321
1.68306
1.68291
1.68276
1.68262
1.68247
1.68234
1.68222
1.68211
1.68201
1.68193
1.68186
1.68182
1.68178
1.68177
1.68178
1.6818
1.68183
1.68189
1.68196
1.68204
1.68214
1.68225
1.68236
1.68249
1.68263
1.68277
1.68292
1.68307
1.68322
1.68338
1.68354
1.6837
1.68386
1.68402
1.68418
1.68434
1.6845
1.68465
1.6848
1.68495
1.6851
1.68524
1.68538
1.68552
1.68565
1.68578
1.6859
1.68602
1.68613
1.68623
1.68633
1.68641
1.68649
1.68656
1.68661
1.68666
1.68669
1.68671
1.68672
1.68671
1.68668
1.68664
1.68659
1.68652
1.68643
1.68633
1.68621
1.68608
1.68593
1.68578
1.6856
1.68542
1.68523
1.68503
1.68481
1.6846
1.68437
1.68415
1.68391
1.68368
1.68344
1.68321
1.68298
1.68275
1.68252
1.6823
1.68208
1.68186
1.68166
1.68146
1.68127
1.68109
1.68091
1.68075
1.68059
1.68045
1.68031
1.68019
1.68008
1.67997
1.67988
1.67981
1.67974
1.67969
1.67965
1.67962
1.6796
1.6796
1.67961
1.67963
1.67967
1.67971
1.67977
1.67984
1.67992
1.68001
1.68011
1.68022
1.68034
1.68047
1.6806
1.68074
1.68089
1.68104
1.68119
1.68135
1.68151
1.68168
1.68185
1.68202
1.68219
1.68236
1.68253
1.6827
1.68288
1.68305
1.68322
1.6834
1.68357
1.68374
1.68391
1.68408
1.68425
1.68442
1.68459
1.68475
1.68491
1.68507
1.68522
1.68536
1.6855
1.68563
1.68575
1.68606
1.68616
1.68624
1.68631
1.68637
1.68641
1.68644
1.68644
1.68643
1.68641
1.68636
1.6863
1.68622
1.68612
1.68601
1.68589
1.68575
1.6856
1.68544
1.68527
1.6851
1.68492
1.68474
1.68457
1.68439
1.68422
1.68406
1.68391
1.68376
1.68363
1.68351
1.6834
1.68331
1.68323
1.68317
1.68312
1.68309
1.68307
1.68306
1.68307
1.68309
1.68313
1.68318
1.68324
1.6833
1.68338
1.68347
1.68356
1.68366
1.68377
1.68388
1.684
1.68412
1.68424
1.68437
1.6845
1.68464
1.68477
1.68491
1.68505
1.6852
1.68534
1.68549
1.68565
1.6858
1.68596
1.68613
1.6863
1.68647
1.68665
1.68684
1.68703
1.68723
1.68743
1.68764
1.68786
1.68808
1.68831
1.68854
1.68878
1.68902
1.68927
1.68953
1.68979
1.69005
1.69032
1.69058
1.69085
1.69112
1.6914
1.69166
1.69193
1.69219
1.69245
1.6927
1.69294
1.69317
1.69339
1.69359
1.69377
1.69393
1.69406
1.69417
1.69424
1.69428
1.69429
1.69426
1.6942
1.69409
1.69396
1.69379
1.69359
1.69337
1.69314
1.69289
1.69266
1.69243
1.69222
1.69204
1.69191
1.69181
1.69178
1.69179
1.69187
1.692
1.69219
1.69243
1.69273
1.69305
1.69342
1.6938
1.69418
1.69457
1.69493
1.69527
1.69557
1.69582
1.696
1.69612
1.69617
1.69614
1.69604
1.69586
1.6956
1.69527
1.69487
1.69441
1.69389
1.69332
1.69271
1.69206
1.69139
1.69068
1.68996
1.68922
1.68848
1.68773
1.68699
1.68625
1.68553
1.68482
1.68413
1.68347
1.68283
1.68223
1.68167
1.68114
1.68066
1.68023
1.67984
1.6795
1.67921
1.67896
1.67878
1.67864
1.67855