# vtk DataFile Version 2.0
LBE two cylinders
ASCII
DATASET STRUCTURED_POINTS
DIMENSIONS 400 100 1
ASPECT_RATIO 1 1 1
ORIGIN 0 0 0
POINT_DATA 40000
SCALARS rho double 1
LOOKUP_TABLE default
1.59382
1.59404
1.59427
1.59452
1.59477
1.59503
1.5953
1.59559
1.59589
1.5962
1.59654
1.5969
1.59728
1.5977
1.59816
1.59867
1.59923
1.59985
1.60055
1.60133
1.6022
1.60317
1.60424
1.60543
1.60672
1.60812
1.60963
1.61124
1.61294
1.6147
1.61652
1.61837
1.62024
1.62209
1.62391
1.62565
1.6273
1.62881
1.63015
1.63128
1.63217
1.63281
1.63316
1.63322
1.633
1.63252
1.63179
1.63085
1.62974
1.6285
1.62717
1.6258
1.62443
1.62309
1.62182
1.62063
1.61957
1.61864
1.61786
1.61723
1.61677
1.61648
1.61634
1.61636
1.61652
1.61682
1.61723
1.61775
1.61834
1.619
1.61968
1.62036
1.62102
1.62162
1.62215
1.62257
1.62285
1.62299
1.62297
1.62278
1.62242
1.62189
1.6212
1.62036
1.6194
1.61833
1.61717
1.61596
1.6147
1.61343
1.61216
1.61091
1.6097
1.60854
1.60746
1.60645
1.60552
1.60469
1.60397
1.60335
1.60284
1.60244
1.60217
1.60201
1.60197
1.60206
1.60227
1.60261
1.60307
1.60365
1.60435
1.60517
1.60609
1.60713
1.60826
1.60948
1.61079
1.61216
1.6136
1.61509
1.61661
1.61815
1.61971
1.62126
1.6228
1.6243
1.62577
1.62719
1.62854
1.62982
1.63102
1.63213
1.63315
1.63408
1.63491
1.63565
1.63628
1.63683
1.63729
1.63766
1.63795
1.63817
1.63834
1.63844
1.6385
1.63853
1.63853
1.6385
1.63847
1.63843
1.63839
1.63836
1.63834
1.63834
1.63835
1.63839
1.63844
1.63852
1.63862
1.63873
1.63886
1.639
1.63915
1.63929
1.63943
1.63956
1.63967
1.63975
1.6398
1.63981
1.63976
1.63966
1.63949
1.63925
1.63893
1.63852
1.63802
1.63742
1.63672
1.63591
1.635
1.63398
1.63287
1.63165
1.63036
1.62899
1.62756
1.6261
1.62463
1.62316
1.62174
1.62038
1.6191
1.61794
1.61692
1.61604
1.61533
1.61479
1.61443
1.61425
1.61424
1.61438
1.61466
1.61505
1.61551
1.61599
1.61646
1.61686
1.61714
1.61725
1.61716
1.61684
1.61629
1.6155
1.61452
1.61337
1.61209
1.61074
1.60936
1.60799
1.60666
1.6054
1.60422
1.60314
1.60214
1.60123
1.60041
1.59967
1.599
1.59839
1.59784
1.59734
1.59688
1.59647
1.59608
1.59572
1.59539
1.59509
1.5948
1.59454
1.59429
1.59405
1.59383
1.59362
1.59342
1.59323
1.59305
1.59286
1.59268
1.5925
1.59231
1.59211
1.59191
1.5917
1.59148
1.59124
1.59099
1.59072
1.59044
1.59015
1.58984
1.58953
1.5892
1.58886
1.58851
1.58816
1.58781
1.58746
1.58711
1.58676
1.58643
1.5861
1.58578
1.58548
1.58519
1.58492
1.58466
1.58443
1.58422
1.58403
1.58386
1.58372
1.5836
1.5835
1.58343
1.58338
1.58336
1.58336
1.58339
1.58344
1.58351
1.58361
1.58372
1.58385
1.584
1.58417
1.58435
1.58454
1.58474
1.58495
1.58517
1.58538
1.5856
1.58582
1.58604
1.58624
1.58644
1.58663
1.58681
1.58698
1.58713
1.58726
1.58738
1.58748
1.58756
1.58762
1.58766
1.58769
1.5877
1.58769
1.58767
1.58763
1.58757
1.58751
1.58743
1.58734
1.58724
1.58713
1.58701
1.5869
1.58677
1.58665
1.58653
1.58641
1.5863
1.58619
1.58609
1.58601
1.58594
1.58588
1.58585
1.58583
1.58583
1.58585
1.58589
1.58595
1.58603
1.58613
1.58625
1.58639
1.58654
1.58671
1.58688
1.58707
1.58726
1.58745
1.58765
1.58785
1.58804
1.58824
1.58843
1.58863
1.58882
1.58901
1.5892
1.58939
1.58959
1.58979
1.58999
1.59021
1.59042
1.59064
1.59086
1.59107
1.59127
1.59146
1.59162
1.59176
1.59186
1.59194
1.59199
1.59201
1.59202
1.59202
1.59201
1.59201
1.59201
1.59203
1.59207
1.59212
1.5922
1.5923
1.59241
1.59254
1.59269
1.59285
1.59302
1.59321
1.5934
1.59361
1.59386
1.59408
1.59431
1.59455
1.59481
1.59507
1.59535
1.59563
1.59594
1.59625
1.59659
1.59695
1.59735
1.59777
1.59824
1.59875
1.59932
1.59995
1.60065
1.60144
1.60232
1.60329
1.60437
1.60555
1.60685
1.60824
1.60975
1.61134
1.61302
1.61477
1.61657
1.61841
1.62025
1.62208
1.62387
1.62559
1.6272
1.62868
1.62998
1.63108
1.63194
1.63254
1.63287
1.63292
1.63269
1.63221
1.63149
1.63058
1.62949
1.62828
1.62699
1.62566
1.62432
1.62301
1.62177
1.62061
1.61957
1.61866
1.6179
1.61729
1.61684
1.61654
1.61641
1.61643
1.61659
1.61688
1.61728
1.61779
1.61836
1.619
1.61966
1.62032
1.62095
1.62153
1.62203
1.62243
1.62269
1.62281
1.62278
1.62258
1.62221
1.62168
1.62099
1.62016
1.61921
1.61816
1.61702
1.61582
1.61459
1.61333
1.61209
1.61086
1.60967
1.60854
1.60747
1.60648
1.60557
1.60476
1.60405
1.60345
1.60295
1.60257
1.60231
1.60216
1.60214
1.60223
1.60245
1.6028
1.60326
1.60384
1.60454
1.60535
1.60628
1.6073
1.60842
1.60963
1.61092
1.61228
1.6137
1.61516
1.61666
1.61818
1.61971
1.62124
1.62275
1.62423
1.62567
1.62706
1.62838
1.62964
1.63082
1.63191
1.63292
1.63383
1.63465
1.63537
1.636
1.63654
1.637
1.63737
1.63767
1.6379
1.63806
1.63818
1.63825
1.63829
1.6383
1.63829
1.63827
1.63824
1.63821
1.63819
1.63818
1.63819
1.63821
1.63826
1.63832
1.6384
1.6385
1.63862
1.63875
1.63889
1.63904
1.63918
1.63932
1.63945
1.63956
1.63964
1.63969
1.63969
1.63965
1.63955
1.63938
1.63914
1.63882
1.63842
1.63792
1.63733
1.63664
1.63584
1.63494
1.63394
1.63284
1.63165
1.63037
1.62902
1.62761
1.62617
1.62472
1.62327
1.62186
1.62051
1.61925
1.6181
1.61708
1.6162
1.61549
1.61495
1.61458
1.61439
1.61436
1.61449
1.61475
1.61511
1.61555
1.61601
1.61646
1.61684
1.6171
1.6172
1.61711
1.6168
1.61626
1.61549
1.61453
1.6134
1.61215
1.61081
1.60945
1.60808
1.60676
1.60549
1.60431
1.60321
1.6022
1.60129
1.60045
1.5997
1.59902
1.59841
1.59785
1.59734
1.59688
1.59646
1.59607
1.59571
1.59538
1.59507
1.59478
1.59452
1.59427
1.59403
1.59382
1.59361
1.59341
1.59322
1.59303
1.59285
1.59267
1.59249
1.5923
1.59211
1.59191
1.5917
1.59148
1.59124
1.591
1.59073
1.59046
1.59017
1.58987
1.58955
1.58923
1.58889
1.58855
1.58821
1.58786
1.58751
1.58716
1.58682
1.58649
1.58616
1.58584
1.58554
1.58526
1.58498
1.58473
1.5845
1.58429
1.58409
1.58393
1.58378
1.58366
1.58356
1.58349
1.58344
1.58341
1.58341
1.58344
1.58348
1.58355
1.58364
1.58375
1.58388
1.58403
1.58419
1.58437
1.58456
1.58475
1.58496
1.58517
1.58539
1.58561
1.58582
1.58604
1.58624
1.58644
1.58663
1.5868
1.58697
1.58712
1.58725
1.58736
1.58746
1.58754
1.58761
1.58765
1.58768
1.58769
1.58768
1.58766
1.58762
1.58757
1.5875
1.58742
1.58734
1.58724
1.58714
1.58702
1.58691
1.58679
1.58667
1.58655
1.58644
1.58633
1.58623
1.58614
1.58606
1.58599
1.58594
1.5859
1.58588
1.58588
1.58591
1.58595
1.58601
1.58609
1.58619
1.58631
1.58645
1.5866
1.58676
1.58693
1.58712
1.5873
1.5875
1.58769
1.58789
1.58808
1.58828
1.58847
1.58866
1.58885
1.58905
1.58924
1.58943
1.58963
1.58983
1.59004
1.59025
1.59046
1.59068
1.59089
1.5911
1.59129
1.59147
1.59162
1.59175
1.59186
1.59194
1.59199
1.59202
1.59203
1.59203
1.59203
1.59204
1.59205
1.59207
1.59211
1.59217
1.59224
1.59234
1.59245
1.59258
1.59273
1.59289
1.59306
1.59324
1.59344
1.59364
1.59392
1.59415
1.59438
1.59463
1.59488
1.59514
1.59542
1.59571
1.59601
1.59633
1.59668
1.59704
1.59744
1.59787
1.59834
1.59886
1.59943
1.60007
1.60078
1.60157
1.60245
1.60343
1.6045
1.60568
1.60697
1.60836
1.60985
1.61143
1.61309
1.61482
1.6166
1.61841
1.62023
1.62204
1.6238
1.62549
1.62707
1.62851
1.62978
1.63084
1.63166
1.63223
1.63254
1.63257
1.63233
1.63185
1.63115
1.63025
1.62919
1.62801
1.62675
1.62545
1.62415
1.62288
1.62167
1.62054
1.61953
1.61864
1.6179
1.6173
1.61686
1.61657
1.61644
1.61646
1.61661
1.61689
1.61728
1.61777
1.61833
1.61894
1.61958
1.62022
1.62083
1.62138
1.62186
1.62223
1.62247
1.62257
1.62252
1.62231
1.62194
1.6214
1.62072
1.6199
1.61896
1.61792
1.6168
1.61562
1.6144
1.61318
1.61195
1.61075
1.60959
1.60849
1.60745
1.60649
1.60561
1.60483
1.60415
1.60357
1.6031
1.60275
1.60251
1.60239
1.60239
1.6025
1.60274
1.6031
1.60357
1.60416
1.60486
1.60567
1.60659
1.60761
1.60871
1.60991
1.61117
1.6125
1.61389
1.61532
1.61678
1.61826
1.61975
1.62123
1.6227
1.62414
1.62553
1.62687
1.62816
1.62937
1.63051
1.63157
1.63255
1.63343
1.63422
1.63493
1.63554
1.63607
1.63652
1.63689
1.63718
1.63742
1.63759
1.63772
1.6378
1.63786
1.63788
1.63789
1.63788
1.63787
1.63787
1.63786
1.63787
1.6379
1.63793
1.63799
1.63807
1.63816
1.63827
1.6384
1.63854
1.63868
1.63883
1.63898
1.63913
1.63926
1.63937
1.63945
1.6395
1.63951
1.63947
1.63937
1.63921
1.63899
1.63868
1.63829
1.63781
1.63723
1.63655
1.63578
1.6349
1.63392
1.63284
1.63167
1.63041
1.62909
1.6277
1.62628
1.62484
1.6234
1.622
1.62066
1.6194
1.61825
1.61723
1.61635
1.61563
1.61508
1.61471
1.61451
1.61447
1.61459
1.61483
1.61519
1.61561
1.61606
1.6165
1.61687
1.61714
1.61724
1.61715
1.61685
1.61631
1.61556
1.6146
1.61348
1.61222
1.61089
1.60951
1.60814
1.60681
1.60553
1.60433
1.60322
1.6022
1.60127
1.60043
1.59966
1.59897
1.59835
1.59778
1.59727
1.5968
1.59638
1.59599
1.59563
1.5953
1.59499
1.59471
1.59445
1.5942
1.59398
1.59376
1.59356
1.59337
1.59318
1.593
1.59282
1.59265
1.59247
1.59229
1.59211
1.59191
1.59171
1.59149
1.59126
1.59102
1.59076
1.59049
1.59021
1.58991
1.58961
1.58929
1.58896
1.58863
1.58829
1.58794
1.5876
1.58726
1.58692
1.58659
1.58627
1.58596
1.58566
1.58537
1.5851
1.58485
1.58461
1.5844
1.58421
1.58403
1.58389
1.58376
1.58366
1.58358
1.58353
1.5835
1.58349
1.58351
1.58355
1.58362
1.5837
1.58381
1.58393
1.58407
1.58423
1.58441
1.58459
1.58479
1.58499
1.5852
1.58541
1.58563
1.58584
1.58605
1.58625
1.58645
1.58664
1.58681
1.58697
1.58712
1.58725
1.58736
1.58746
1.58754
1.5876
1.58765
1.58767
1.58768
1.58768
1.58766
1.58762
1.58757
1.58751
1.58744
1.58735
1.58726
1.58716
1.58706
1.58695
1.58683
1.58672
1.58661
1.5865
1.5864
1.5863
1.58621
1.58614
1.58608
1.58603
1.586
1.58598
1.58598
1.58601
1.58605
1.58611
1.58619
1.58629
1.58641
1.58655
1.58669
1.58685
1.58703
1.5872
1.58739
1.58758
1.58777
1.58797
1.58816
1.58836
1.58855
1.58874
1.58893
1.58912
1.58931
1.58951
1.58971
1.58991
1.59011
1.59032
1.59053
1.59074
1.59095
1.59115
1.59133
1.5915
1.59165
1.59177
1.59187
1.59195
1.592
1.59204
1.59206
1.59207
1.59208
1.5921
1.59211
1.59214
1.59219
1.59225
1.59232
1.59242
1.59253
1.59266
1.5928
1.59296
1.59313
1.59331
1.59351
1.59371
1.59403
1.59425
1.59448
1.59473
1.59498
1.59525
1.59552
1.59581
1.59612
1.59644
1.59679
1.59716
1.59756
1.59799
1.59847
1.59899
1.59957
1.60022
1.60093
1.60172
1.6026
1.60358
1.60465
1.60582
1.6071
1.60847
1.60994
1.61149
1.61313
1.61483
1.61658
1.61837
1.62016
1.62194
1.62367
1.62533
1.62687
1.62828
1.62951
1.63053
1.63131
1.63185
1.63213
1.63215
1.63192
1.63145
1.63076
1.62988
1.62886
1.62772
1.6265
1.62524
1.62397
1.62274
1.62156
1.62047
1.61948
1.61861
1.61788
1.6173
1.61686
1.61658
1.61644
1.61645
1.61659
1.61685
1.61723
1.61769
1.61823
1.61881
1.61942
1.62003
1.62061
1.62114
1.62159
1.62193
1.62215
1.62224
1.62217
1.62195
1.62157
1.62104
1.62036
1.61955
1.61863
1.6176
1.6165
1.61535
1.61416
1.61296
1.61177
1.6106
1.60947
1.60839
1.60738
1.60645
1.60561
1.60486
1.60421
1.60366
1.60323
1.6029
1.60269
1.60259
1.60262
1.60276
1.60301
1.60338
1.60387
1.60447
1.60517
1.60598
1.6069
1.6079
1.60899
1.61016
1.6114
1.6127
1.61404
1.61543
1.61685
1.61828
1.61971
1.62114
1.62254
1.62392
1.62526
1.62655
1.62778
1.62894
1.63003
1.63105
1.63198
1.63283
1.63359
1.63427
1.63487
1.63539
1.63583
1.63619
1.6365
1.63674
1.63693
1.63707
1.63718
1.63725
1.63731
1.63734
1.63736
1.63738
1.6374
1.63743
1.63747
1.63752
1.63758
1.63766
1.63775
1.63787
1.63799
1.63813
1.63828
1.63844
1.6386
1.63876
1.6389
1.63904
1.63916
1.63924
1.6393
1.63932
1.63928
1.6392
1.63905
1.63883
1.63854
1.63816
1.6377
1.63714
1.63649
1.63574
1.63488
1.63393
1.63287
1.63173
1.6305
1.62919
1.62783
1.62642
1.625
1.62358
1.62219
1.62086
1.61961
1.61846
1.61744
1.61656
1.61585
1.6153
1.61492
1.61471
1.61467
1.61479
1.61503
1.61538
1.6158
1.61625
1.61669
1.61706
1.61731
1.61741
1.61732
1.61701
1.61648
1.61572
1.61475
1.61362
1.61235
1.611
1.60961
1.60822
1.60687
1.60557
1.60436
1.60323
1.60219
1.60125
1.60039
1.59961
1.59891
1.59828
1.59771
1.59719
1.59672
1.59629
1.59589
1.59554
1.59521
1.59491
1.59463
1.59437
1.59413
1.59391
1.5937
1.59351
1.59332
1.59314
1.59297
1.5928
1.59264
1.59247
1.59229
1.59211
1.59193
1.59173
1.59152
1.5913
1.59107
1.59082
1.59056
1.59028
1.58999
1.58969
1.58938
1.58906
1.58874
1.58841
1.58807
1.58774
1.5874
1.58707
1.58674
1.58643
1.58612
1.58582
1.58553
1.58526
1.58501
1.58477
1.58456
1.58436
1.58418
1.58403
1.5839
1.58379
1.58371
1.58365
1.58361
1.5836
1.58362
1.58365
1.58371
1.58379
1.58389
1.58401
1.58415
1.5843
1.58447
1.58465
1.58484
1.58504
1.58525
1.58546
1.58567
1.58588
1.58608
1.58628
1.58647
1.58666
1.58683
1.58698
1.58713
1.58726
1.58737
1.58746
1.58754
1.5876
1.58765
1.58768
1.58769
1.58768
1.58767
1.58763
1.58759
1.58753
1.58746
1.58739
1.5873
1.58721
1.58711
1.58701
1.5869
1.5868
1.5867
1.5866
1.5865
1.58641
1.58633
1.58626
1.5862
1.58616
1.58613
1.58612
1.58613
1.58615
1.5862
1.58626
1.58634
1.58644
1.58656
1.58669
1.58683
1.58699
1.58716
1.58734
1.58752
1.58771
1.5879
1.58809
1.58828
1.58847
1.58867
1.58886
1.58905
1.58924
1.58943
1.58962
1.58982
1.59002
1.59022
1.59043
1.59063
1.59083
1.59103
1.59121
1.59139
1.59155
1.59169
1.59181
1.5919
1.59198
1.59204
1.59209
1.59212
1.59214
1.59216
1.59219
1.59222
1.59225
1.5923
1.59236
1.59244
1.59254
1.59265
1.59277
1.59291
1.59307
1.59324
1.59342
1.59361
1.59381
1.59415
1.59438
1.59461
1.59485
1.59511
1.59537
1.59565
1.59594
1.59625
1.59658
1.59693
1.5973
1.5977
1.59814
1.59862
1.59915
1.59974
1.60039
1.6011
1.6019
1.60278
1.60375
1.60481
1.60597
1.60723
1.60858
1.61002
1.61155
1.61315
1.61482
1.61654
1.61829
1.62005
1.62179
1.62349
1.62511
1.62662
1.62798
1.62917
1.63015
1.6309
1.63141
1.63167
1.63167
1.63144
1.63098
1.63031
1.62947
1.62848
1.62738
1.62621
1.625
1.62378
1.62258
1.62145
1.62039
1.61943
1.61858
1.61787
1.61729
1.61686
1.61657
1.61642
1.61642
1.61654
1.61679
1.61714
1.61757
1.61808
1.61863
1.61921
1.61978
1.62033
1.62083
1.62124
1.62156
1.62176
1.62182
1.62174
1.62151
1.62113
1.6206
1.61993
1.61913
1.61822
1.61722
1.61615
1.61502
1.61387
1.6127
1.61154
1.61041
1.60932
1.60828
1.60731
1.60643
1.60562
1.60492
1.60431
1.60381
1.60342
1.60314
1.60298
1.60292
1.60298
1.60316
1.60344
1.60384
1.60434
1.60495
1.60567
1.60647
1.60738
1.60836
1.60943
1.61057
1.61177
1.61302
1.61432
1.61565
1.617
1.61836
1.61973
1.62108
1.62242
1.62372
1.62498
1.6262
1.62736
1.62846
1.62949
1.63044
1.63132
1.63213
1.63285
1.6335
1.63407
1.63456
1.63499
1.63535
1.63565
1.6359
1.6361
1.63626
1.63639
1.63649
1.63657
1.63663
1.63669
1.63674
1.63679
1.63685
1.63692
1.63699
1.63709
1.63719
1.63731
1.63745
1.63759
1.63775
1.63792
1.63809
1.63826
1.63842
1.63858
1.63872
1.63885
1.63894
1.63901
1.63903
1.63901
1.63893
1.6388
1.6386
1.63832
1.63797
1.63753
1.637
1.63637
1.63565
1.63482
1.6339
1.63288
1.63176
1.63056
1.62928
1.62794
1.62656
1.62516
1.62376
1.62238
1.62106
1.61981
1.61867
1.61765
1.61677
1.61605
1.6155
1.61513
1.61492
1.61488
1.61499
1.61523
1.61558
1.616
1.61644
1.61687
1.61724
1.61749
1.61759
1.61749
1.61717
1.61662
1.61585
1.61487
1.61372
1.61243
1.61106
1.60964
1.60823
1.60685
1.60554
1.6043
1.60316
1.6021
1.60114
1.60027
1.59948
1.59877
1.59813
1.59755
1.59703
1.59655
1.59612
1.59574
1.59538
1.59506
1.59476
1.59449
1.59424
1.59401
1.5938
1.59361
1.59342
1.59325
1.59308
1.59292
1.59277
1.59261
1.59245
1.59229
1.59212
1.59195
1.59176
1.59156
1.59135
1.59113
1.59089
1.59064
1.59037
1.5901
1.58981
1.58951
1.5892
1.58888
1.58856
1.58823
1.58791
1.58758
1.58726
1.58694
1.58662
1.58632
1.58602
1.58574
1.58547
1.58521
1.58498
1.58476
1.58456
1.58438
1.58422
1.58408
1.58397
1.58388
1.58381
1.58377
1.58375
1.58376
1.58379
1.58384
1.58391
1.584
1.58412
1.58425
1.5844
1.58456
1.58474
1.58492
1.58512
1.58532
1.58552
1.58573
1.58593
1.58613
1.58632
1.58651
1.58669
1.58686
1.58701
1.58715
1.58727
1.58738
1.58748
1.58755
1.58761
1.58766
1.58769
1.5877
1.5877
1.58769
1.58766
1.58762
1.58757
1.58751
1.58744
1.58736
1.58728
1.58719
1.58709
1.587
1.58691
1.58681
1.58672
1.58663
1.58655
1.58648
1.58642
1.58637
1.58633
1.58631
1.5863
1.58631
1.58634
1.58639
1.58645
1.58653
1.58663
1.58674
1.58687
1.58702
1.58717
1.58733
1.58751
1.58769
1.58787
1.58806
1.58825
1.58844
1.58863
1.58882
1.58901
1.5892
1.58939
1.58958
1.58977
1.58996
1.59016
1.59036
1.59056
1.59075
1.59095
1.59113
1.5913
1.59146
1.59161
1.59174
1.59185
1.59195
1.59203
1.59209
1.59215
1.59219
1.59223
1.59227
1.59231
1.59235
1.59239
1.59245
1.59251
1.59259
1.59269
1.59279
1.59292
1.59305
1.59321
1.59337
1.59355
1.59374
1.59394
1.59431
1.59453
1.59476
1.59501
1.59526
1.59552
1.5958
1.59609
1.5964
1.59673
1.59708
1.59746
1.59787
1.59831
1.5988
1.59934
1.59992
1.60058
1.6013
1.60209
1.60297
1.60393
1.60498
1.60612
1.60736
1.60868
1.6101
1.61159
1.61316
1.61479
1.61647
1.61818
1.6199
1.62161
1.62327
1.62485
1.62632
1.62763
1.62878
1.62971
1.63043
1.63091
1.63114
1.63114
1.63091
1.63046
1.62982
1.62901
1.62806
1.62701
1.62588
1.62472
1.62355
1.6224
1.6213
1.62028
1.61934
1.61852
1.61782
1.61725
1.61682
1.61653
1.61637
1.61635
1.61645
1.61667
1.61699
1.6174
1.61787
1.61839
1.61893
1.61947
1.61998
1.62044
1.62082
1.62111
1.62128
1.62133
1.62123
1.62099
1.62061
1.62008
1.61942
1.61864
1.61775
1.61677
1.61573
1.61464
1.61351
1.61238
1.61126
1.61017
1.60911
1.60812
1.6072
1.60635
1.60559
1.60493
1.60437
1.60391
1.60356
1.60332
1.60319
1.60318
1.60327
1.60347
1.60379
1.6042
1.60473
1.60535
1.60607
1.60687
1.60777
1.60874
1.60978
1.61088
1.61204
1.61325
1.61449
1.61576
1.61704
1.61833
1.61962
1.6209
1.62215
1.62338
1.62456
1.6257
1.62679
1.62781
1.62878
1.62967
1.6305
1.63125
1.63194
1.63255
1.6331
1.63358
1.63399
1.63435
1.63466
1.63492
1.63513
1.63532
1.63547
1.6356
1.63571
1.63581
1.63591
1.636
1.63609
1.63619
1.63629
1.63641
1.63653
1.63667
1.63682
1.63698
1.63715
1.63733
1.63752
1.6377
1.63789
1.63807
1.63823
1.63839
1.63852
1.63863
1.6387
1.63873
1.63872
1.63866
1.63854
1.63836
1.63811
1.63778
1.63736
1.63686
1.63627
1.63558
1.63479
1.6339
1.63291
1.63183
1.63067
1.62942
1.62812
1.62676
1.62539
1.624
1.62264
1.62134
1.6201
1.61897
1.61795
1.61708
1.61637
1.61582
1.61544
1.61524
1.6152
1.61532
1.61556
1.61591
1.61633
1.61677
1.6172
1.61756
1.61781
1.6179
1.61779
1.61745
1.61689
1.61609
1.61508
1.6139
1.61258
1.61118
1.60974
1.60829
1.60689
1.60555
1.60429
1.60312
1.60205
1.60107
1.60018
1.59938
1.59865
1.598
1.59741
1.59689
1.59641
1.59598
1.59559
1.59524
1.59492
1.59463
1.59437
1.59413
1.59391
1.59371
1.59352
1.59335
1.59319
1.59304
1.59289
1.59275
1.5926
1.59246
1.59231
1.59215
1.59199
1.59181
1.59162
1.59142
1.59121
1.59099
1.59075
1.59049
1.59023
1.58995
1.58966
1.58936
1.58906
1.58875
1.58843
1.58812
1.5878
1.58748
1.58717
1.58686
1.58656
1.58627
1.58599
1.58572
1.58546
1.58522
1.585
1.58479
1.58461
1.58445
1.5843
1.58418
1.58409
1.58401
1.58396
1.58394
1.58393
1.58395
1.584
1.58406
1.58415
1.58426
1.58438
1.58452
1.58468
1.58485
1.58503
1.58521
1.58541
1.5856
1.5858
1.586
1.58619
1.58638
1.58656
1.58673
1.5869
1.58704
1.58718
1.5873
1.58741
1.5875
1.58757
1.58763
1.58768
1.58771
1.58772
1.58773
1.58771
1.58769
1.58766
1.58762
1.58756
1.5875
1.58743
1.58736
1.58728
1.5872
1.58712
1.58704
1.58696
1.58688
1.5868
1.58673
1.58667
1.58662
1.58658
1.58655
1.58653
1.58653
1.58654
1.58657
1.58662
1.58668
1.58676
1.58686
1.58697
1.5871
1.58724
1.58739
1.58755
1.58772
1.58789
1.58807
1.58826
1.58844
1.58863
1.58882
1.589
1.58919
1.58938
1.58957
1.58976
1.58995
1.59014
1.59033
1.59053
1.59072
1.5909
1.59108
1.59125
1.59141
1.59156
1.59169
1.59181
1.59192
1.59201
1.59209
1.59217
1.59223
1.59229
1.59235
1.5924
1.59245
1.5925
1.59256
1.59262
1.59269
1.59277
1.59287
1.59297
1.59309
1.59323
1.59337
1.59354
1.59371
1.5939
1.5941
1.59448
1.5947
1.59493
1.59518
1.59543
1.59569
1.59597
1.59626
1.59658
1.59691
1.59726
1.59764
1.59805
1.5985
1.59899
1.59953
1.60013
1.60078
1.6015
1.60229
1.60316
1.60412
1.60515
1.60628
1.60749
1.60878
1.61016
1.61162
1.61315
1.61474
1.61638
1.61805
1.61973
1.6214
1.62301
1.62455
1.62597
1.62725
1.62834
1.62924
1.62992
1.63037
1.63058
1.63057
1.63034
1.62991
1.62929
1.62852
1.62761
1.6266
1.62553
1.62442
1.62329
1.62219
1.62113
1.62014
1.61924
1.61844
1.61775
1.61719
1.61676
1.61646
1.61629
1.61625
1.61633
1.61652
1.61681
1.61718
1.61762
1.6181
1.6186
1.6191
1.61957
1.62
1.62035
1.62061
1.62076
1.62078
1.62067
1.62043
1.62004
1.61952
1.61887
1.6181
1.61724
1.61629
1.61527
1.61421
1.61313
1.61204
1.61096
1.60992
1.60891
1.60797
1.6071
1.60631
1.60561
1.605
1.6045
1.6041
1.60381
1.60363
1.60355
1.60359
1.60373
1.60397
1.60432
1.60477
1.60531
1.60594
1.60666
1.60746
1.60834
1.60929
1.61029
1.61135
1.61246
1.6136
1.61478
1.61597
1.61718
1.61839
1.61959
1.62078
1.62194
1.62307
1.62417
1.62522
1.62623
1.62717
1.62806
1.62889
1.62965
1.63035
1.63099
1.63156
1.63207
1.63252
1.63292
1.63327
1.63358
1.63384
1.63407
1.63427
1.63444
1.6346
1.63474
1.63487
1.635
1.63513
1.63526
1.63539
1.63553
1.63568
1.63584
1.63601
1.63619
1.63638
1.63658
1.63678
1.63698
1.63719
1.63739
1.63758
1.63776
1.63793
1.63807
1.63819
1.63828
1.63833
1.63833
1.63829
1.63819
1.63803
1.6378
1.6375
1.63711
1.63665
1.63609
1.63544
1.63469
1.63384
1.63289
1.63185
1.63073
1.62952
1.62824
1.62692
1.62557
1.62421
1.62287
1.62157
1.62035
1.61922
1.61822
1.61735
1.61664
1.6161
1.61573
1.61553
1.61549
1.61561
1.61585
1.6162
1.61662
1.61706
1.61749
1.61785
1.61809
1.61816
1.61804
1.61769
1.61709
1.61627
1.61523
1.61401
1.61266
1.61122
1.60974
1.60827
1.60683
1.60547
1.60418
1.60299
1.6019
1.60091
1.60001
1.59919
1.59846
1.5978
1.59721
1.59668
1.5962
1.59577
1.59539
1.59504
1.59473
1.59445
1.5942
1.59397
1.59377
1.59358
1.59341
1.59326
1.59311
1.59298
1.59285
1.59272
1.59259
1.59246
1.59232
1.59218
1.59203
1.59187
1.5917
1.59151
1.59131
1.5911
1.59087
1.59063
1.59038
1.59012
1.58984
1.58956
1.58927
1.58897
1.58866
1.58835
1.58805
1.58774
1.58743
1.58713
1.58684
1.58655
1.58627
1.586
1.58575
1.5855
1.58528
1.58507
1.58488
1.58471
1.58456
1.58444
1.58433
1.58425
1.58419
1.58416
1.58415
1.58416
1.58419
1.58425
1.58433
1.58443
1.58454
1.58468
1.58482
1.58499
1.58516
1.58534
1.58552
1.58571
1.5859
1.58609
1.58628
1.58646
1.58663
1.58679
1.58695
1.58709
1.58722
1.58734
1.58744
1.58753
1.5876
1.58766
1.58771
1.58774
1.58776
1.58776
1.58776
1.58774
1.58771
1.58768
1.58764
1.58759
1.58753
1.58747
1.5874
1.58734
1.58727
1.5872
1.58713
1.58706
1.587
1.58694
1.58689
1.58685
1.58682
1.5868
1.58679
1.58679
1.58681
1.58685
1.58689
1.58696
1.58704
1.58714
1.58725
1.58737
1.5875
1.58765
1.58781
1.58797
1.58814
1.58832
1.5885
1.58868
1.58886
1.58904
1.58923
1.58941
1.5896
1.58978
1.58997
1.59016
1.59034
1.59053
1.59072
1.5909
1.59107
1.59124
1.59139
1.59154
1.59167
1.59179
1.5919
1.592
1.59209
1.59218
1.59226
1.59233
1.59241
1.59248
1.59255
1.59262
1.59268
1.59275
1.59282
1.5929
1.59298
1.59307
1.59317
1.59329
1.59342
1.59357
1.59372
1.5939
1.59408
1.59428
1.59468
1.59489
1.59512
1.59536
1.59561
1.59588
1.59615
1.59645
1.59676
1.59709
1.59745
1.59783
1.59825
1.5987
1.5992
1.59974
1.60034
1.60099
1.60171
1.6025
1.60336
1.6043
1.60532
1.60643
1.60761
1.60887
1.61022
1.61164
1.61312
1.61467
1.61627
1.61789
1.61953
1.62115
1.62272
1.62421
1.62559
1.62682
1.62787
1.62872
1.62937
1.62979
1.62999
1.62997
1.62974
1.62932
1.62873
1.62799
1.62713
1.62617
1.62514
1.62408
1.62301
1.62195
1.62093
1.61997
1.6191
1.61832
1.61764
1.61709
1.61665
1.61635
1.61616
1.6161
1.61616
1.61632
1.61657
1.61691
1.61731
1.61775
1.61821
1.61867
1.6191
1.61949
1.61981
1.62004
1.62017
1.62018
1.62006
1.6198
1.61942
1.6189
1.61826
1.61752
1.61668
1.61576
1.61478
1.61376
1.61271
1.61166
1.61063
1.60963
1.60868
1.60778
1.60696
1.60621
1.60556
1.60501
1.60455
1.6042
1.60395
1.60381
1.60378
1.60385
1.60403
1.60431
1.60469
1.60516
1.60572
1.60637
1.60709
1.60789
1.60875
1.60967
1.61065
1.61167
1.61273
1.61381
1.61492
1.61604
1.61717
1.61829
1.61941
1.62051
1.62158
1.62262
1.62363
1.6246
1.62552
1.62639
1.62721
1.62797
1.62867
1.62932
1.62991
1.63045
1.63093
1.63136
1.63175
1.63209
1.6324
1.63267
1.63291
1.63313
1.63333
1.63352
1.63369
1.63386
1.63403
1.6342
1.63437
1.63454
1.63472
1.63491
1.63511
1.63531
1.63553
1.63575
1.63597
1.6362
1.63642
1.63665
1.63686
1.63707
1.63727
1.63745
1.63761
1.63774
1.63784
1.6379
1.63793
1.6379
1.63782
1.63769
1.63749
1.63722
1.63687
1.63644
1.63592
1.63531
1.63461
1.6338
1.63291
1.63191
1.63083
1.62966
1.62843
1.62714
1.62582
1.62449
1.62317
1.6219
1.6207
1.61958
1.61859
1.61774
1.61704
1.6165
1.61614
1.61594
1.61592
1.61604
1.61629
1.61664
1.61706
1.61751
1.61793
1.61828
1.61851
1.61857
1.61843
1.61805
1.61742
1.61656
1.61548
1.61421
1.61282
1.61133
1.60982
1.60831
1.60684
1.60544
1.60413
1.60292
1.60181
1.6008
1.59988
1.59905
1.59831
1.59764
1.59704
1.59651
1.59603
1.5956
1.59522
1.59488
1.59457
1.5943
1.59406
1.59385
1.59366
1.59349
1.59333
1.59319
1.59306
1.59294
1.59283
1.59271
1.5926
1.59248
1.59236
1.59224
1.5921
1.59195
1.5918
1.59162
1.59144
1.59124
1.59103
1.5908
1.59056
1.59031
1.59005
1.58978
1.5895
1.58921
1.58892
1.58862
1.58833
1.58803
1.58773
1.58743
1.58714
1.58686
1.58659
1.58632
1.58606
1.58582
1.58559
1.58538
1.58519
1.58501
1.58486
1.58473
1.58461
1.58452
1.58446
1.58441
1.58439
1.5844
1.58442
1.58447
1.58454
1.58463
1.58474
1.58486
1.585
1.58515
1.58531
1.58548
1.58566
1.58584
1.58602
1.5862
1.58637
1.58655
1.58671
1.58687
1.58701
1.58715
1.58727
1.58739
1.58748
1.58757
1.58764
1.5877
1.58775
1.58778
1.5878
1.58781
1.58781
1.5878
1.58778
1.58776
1.58772
1.58769
1.58764
1.58759
1.58754
1.58749
1.58744
1.58738
1.58733
1.58728
1.58723
1.58718
1.58715
1.58712
1.5871
1.58708
1.58708
1.58709
1.58712
1.58716
1.58721
1.58727
1.58735
1.58745
1.58756
1.58768
1.58781
1.58795
1.5881
1.58826
1.58842
1.58859
1.58877
1.58894
1.58912
1.5893
1.58948
1.58966
1.58984
1.59002
1.59021
1.59039
1.59057
1.59075
1.59093
1.5911
1.59126
1.59141
1.59155
1.59168
1.5918
1.59191
1.59201
1.5921
1.59219
1.59228
1.59237
1.59246
1.59254
1.59263
1.59272
1.5928
1.59288
1.59296
1.59304
1.59312
1.5932
1.5933
1.5934
1.59351
1.59364
1.59378
1.59393
1.5941
1.59428
1.59447
1.59488
1.5951
1.59532
1.59556
1.59581
1.59607
1.59635
1.59664
1.59695
1.59729
1.59764
1.59803
1.59845
1.59891
1.59941
1.59995
1.60055
1.60121
1.60192
1.60271
1.60356
1.60449
1.60549
1.60657
1.60772
1.60895
1.61026
1.61164
1.61308
1.61458
1.61614
1.61772
1.61931
1.62088
1.62241
1.62385
1.62518
1.62636
1.62737
1.62818
1.62879
1.62919
1.62937
1.62934
1.62912
1.62872
1.62816
1.62745
1.62663
1.62571
1.62474
1.62372
1.62269
1.62168
1.6207
1.61978
1.61893
1.61817
1.61751
1.61696
1.61652
1.6162
1.616
1.61592
1.61595
1.61608
1.6163
1.6166
1.61696
1.61736
1.61779
1.61821
1.6186
1.61896
1.61925
1.61945
1.61955
1.61954
1.61941
1.61916
1.61877
1.61827
1.61765
1.61692
1.61611
1.61522
1.61428
1.6133
1.6123
1.6113
1.61032
1.60937
1.60847
1.60763
1.60687
1.60619
1.6056
1.60511
1.60472
1.60443
1.60424
1.60417
1.60419
1.60432
1.60454
1.60486
1.60527
1.60577
1.60635
1.607
1.60772
1.6085
1.60934
1.61023
1.61116
1.61212
1.61312
1.61414
1.61517
1.6162
1.61724
1.61828
1.6193
1.6203
1.62128
1.62223
1.62315
1.62402
1.62486
1.62565
1.62639
1.62708
1.62772
1.62831
1.62886
1.62935
1.6298
1.6302
1.63057
1.6309
1.6312
1.63147
1.63172
1.63195
1.63217
1.63238
1.63258
1.63278
1.63298
1.63318
1.63338
1.63359
1.63381
1.63403
1.63426
1.6345
1.63474
1.63499
1.63523
1.63548
1.63573
1.63597
1.63621
1.63644
1.63665
1.63684
1.63701
1.63716
1.63728
1.63736
1.6374
1.6374
1.63735
1.63724
1.63707
1.63683
1.63652
1.63613
1.63566
1.63509
1.63444
1.63368
1.63283
1.63188
1.63084
1.62972
1.62853
1.62728
1.62599
1.62469
1.62341
1.62216
1.62097
1.61988
1.6189
1.61805
1.61736
1.61684
1.61648
1.6163
1.61627
1.6164
1.61666
1.61701
1.61743
1.61788
1.61829
1.61864
1.61885
1.6189
1.61873
1.61832
1.61766
1.61675
1.61562
1.61432
1.61287
1.61135
1.60979
1.60825
1.60675
1.60533
1.604
1.60277
1.60164
1.60061
1.59968
1.59885
1.5981
1.59742
1.59682
1.59629
1.59581
1.59539
1.59501
1.59468
1.59439
1.59413
1.5939
1.5937
1.59353
1.59337
1.59324
1.59311
1.593
1.5929
1.5928
1.59271
1.59261
1.59252
1.59241
1.5923
1.59218
1.59205
1.59191
1.59175
1.59158
1.5914
1.5912
1.59099
1.59076
1.59053
1.59028
1.59002
1.58976
1.58948
1.5892
1.58892
1.58863
1.58834
1.58805
1.58776
1.58748
1.5872
1.58693
1.58667
1.58641
1.58617
1.58594
1.58573
1.58553
1.58535
1.58519
1.58505
1.58493
1.58483
1.58476
1.58471
1.58468
1.58467
1.58469
1.58473
1.58479
1.58486
1.58496
1.58507
1.5852
1.58534
1.58549
1.58565
1.58582
1.58598
1.58615
1.58632
1.58649
1.58665
1.58681
1.58696
1.58709
1.58722
1.58734
1.58745
1.58754
1.58762
1.58769
1.58775
1.5878
1.58783
1.58786
1.58787
1.58788
1.58788
1.58787
1.58785
1.58783
1.58781
1.58778
1.58774
1.58771
1.58767
1.58763
1.58759
1.58755
1.58752
1.58749
1.58746
1.58743
1.58742
1.58741
1.58741
1.58741
1.58743
1.58746
1.58751
1.58756
1.58763
1.58771
1.5878
1.58791
1.58802
1.58815
1.58829
1.58843
1.58859
1.58874
1.58891
1.58907
1.58924
1.58941
1.58959
1.58976
1.58994
1.59012
1.59029
1.59047
1.59065
1.59083
1.591
1.59117
1.59132
1.59147
1.59161
1.59173
1.59185
1.59195
1.59204
1.59213
1.59222
1.59231
1.5924
1.5925
1.5926
1.5927
1.5928
1.5929
1.593
1.59309
1.59318
1.59327
1.59336
1.59345
1.59354
1.59364
1.59375
1.59388
1.59401
1.59416
1.59432
1.59449
1.59468
1.5951
1.5953
1.59552
1.59576
1.596
1.59626
1.59654
1.59683
1.59715
1.59748
1.59784
1.59823
1.59865
1.59911
1.59961
1.60016
1.60076
1.60141
1.60213
1.6029
1.60375
1.60466
1.60564
1.60669
1.60782
1.60902
1.61028
1.61162
1.61302
1.61448
1.61598
1.61752
1.61906
1.62059
1.62206
1.62346
1.62474
1.62587
1.62684
1.62762
1.62819
1.62856
1.62873
1.6287
1.62849
1.6281
1.62756
1.62689
1.6261
1.62523
1.6243
1.62333
1.62235
1.62138
1.62043
1.61954
1.61872
1.61797
1.61732
1.61678
1.61634
1.61601
1.6158
1.61569
1.6157
1.6158
1.61599
1.61625
1.61657
1.61693
1.61731
1.6177
1.61806
1.61838
1.61864
1.61882
1.6189
1.61888
1.61874
1.61848
1.61811
1.61761
1.61701
1.61631
1.61552
1.61467
1.61377
1.61283
1.61187
1.61092
1.60998
1.60908
1.60823
1.60745
1.60673
1.6061
1.60556
1.60512
1.60477
1.60453
1.60439
1.60435
1.60441
1.60458
1.60483
1.60519
1.60562
1.60614
1.60673
1.60739
1.60811
1.60889
1.60971
1.61057
1.61147
1.61239
1.61333
1.61428
1.61524
1.6162
1.61715
1.6181
1.61903
1.61994
1.62083
1.62169
1.62252
1.62332
1.62407
1.62479
1.62546
1.62609
1.62667
1.62722
1.62772
1.62818
1.62859
1.62898
1.62933
1.62966
1.62995
1.63023
1.63049
1.63074
1.63098
1.63121
1.63144
1.63167
1.6319
1.63213
1.63237
1.63262
1.63287
1.63312
1.63338
1.63365
1.63392
1.6342
1.63447
1.63474
1.63501
1.63528
1.63553
1.63577
1.636
1.63621
1.6364
1.63656
1.6367
1.6368
1.63686
1.63688
1.63686
1.63678
1.63665
1.63645
1.63618
1.63583
1.6354
1.63489
1.63428
1.63357