# vtk DataFile Version 2.0
LBE two cylinders
ASCII
DATASET STRUCTURED_POINTS
DIMENSIONS 400 100 1
ASPECT_RATIO 1 1 1
ORIGIN 0 0 0
POINT_DATA 40000
SCALARS rho double 1
LOOKUP_TABLE default
1.70922
1.70937
1.7095
1.70962
1.70973
1.70982
1.70989
1.70995
1.71
1.71003
1.71005
1.71006
1.71007
1.71006
1.71004
1.71002
1.70999
1.70996
1.70993
1.70989
1.70986
1.70982
1.70979
1.70976
1.70973
1.70971
1.7097
1.70968
1.70968
1.70968
1.70969
1.70971
1.70973
1.70976
1.7098
1.70984
1.70989
1.70995
1.71001
1.71007
1.71014
1.71021
1.71029
1.71037
1.71045
1.71052
1.7106
1.71068
1.71075
1.71083
1.7109
1.71097
1.71103
1.7111
1.71116
1.71121
1.71127
1.71132
1.71137
1.71142
1.71146
1.71151
1.71155
1.7116
1.71165
1.7117
1.71175
1.7118
1.71186
1.71192
1.71198
1.71205
1.71213
1.7122
1.71229
1.71238
1.71247
1.71257
1.71268
1.71279
1.7129
1.71302
1.71315
1.71327
1.7134
1.71353
1.71367
1.7138
1.71394
1.71407
1.71421
1.71434
1.71447
1.7146
1.71473
1.71486
1.71498
1.7151
1.71522
1.71534
1.71545
1.71556
1.71567
1.71578
1.71589
1.716
1.71611
1.71623
1.71634
1.71646
1.71658
1.7167
1.71683
1.71696
1.7171
1.71724
1.71739
1.71754
1.7177
1.71787
1.71804
1.71821
1.71839
1.71857
1.71876
1.71895
1.71914
1.71933
1.71952
1.71971
1.71989
1.72008
1.72025
1.72043
1.7206
1.72076
1.72091
1.72106
1.7212
1.72132
1.72144
1.72155
1.72165
1.72174
1.72182
1.72189
1.72195
1.722
1.72204
1.72208
1.7221
1.72212
1.72213
1.72214
1.72214
1.72213
1.72212
1.72211
1.72209
1.72207
1.72205
1.72202
1.72199
1.72196
1.72193
1.7219
1.72186
1.72183
1.72179
1.72176
1.72172
1.72169
1.72165
1.72162
1.72159
1.72155
1.72152
1.72149
1.72146
1.72144
1.72141
1.72139
1.72137
1.72136
1.72135
1.72134
1.72133
1.72133
1.72134
1.72134
1.72136
1.72138
1.7214
1.72143
1.72146
1.7215
1.72154
1.72158
1.72163
1.72168
1.72174
1.72179
1.72185
1.72191
1.72197
1.72203
1.72209
1.72214
1.7222
1.72225
1.7223
1.72234
1.72238
1.72241
1.72244
1.72246
1.72247
1.72248
1.72248
1.72247
1.72245
1.72242
1.72239
1.72234
1.72229
1.72223
1.72217
1.72209
1.72201
1.72192
1.72183
1.72172
1.72162
1.72151
1.7214
1.72128
1.72116
1.72105
1.72093
1.72081
1.72069
1.72058
1.72047
1.72036
1.72026
1.72017
1.72008
1.72
1.71993
1.71987
1.71981
1.71977
1.71974
1.71971
1.7197
1.7197
1.71971
1.71973
1.71976
1.7198
1.71985
1.71991
1.71998
1.72006
1.72015
1.72025
1.72035
1.72046
1.72058
1.7207
1.72083
1.72096
1.72109
1.72123
1.72137
1.72151
1.72165
1.7218
1.72194
1.72209
1.72223
1.72238
1.72252
1.72267
1.72281
1.72295
1.72309
1.72324
1.72338
1.72352
1.72366
1.72379
1.72393
1.72406
1.72418
1.7243
1.72442
1.72452
1.72461
1.72469
1.72476
1.72481
1.72484
1.72485
1.72484
1.7248
1.72474
1.72464
1.72452
1.72436
1.72418
1.72396
1.72371
1.72343
1.72311
1.72277
1.7224
1.722
1.72158
1.72114
1.72068
1.7202
1.7197
1.71919
1.71867
1.71815
1.71761
1.71707
1.71653
1.71599
1.71545
1.71491
1.71438
1.71384
1.71332
1.71279
1.71228
1.71177
1.71127
1.71078
1.71029
1.70982
1.70935
1.7089
1.70846
1.70804
1.70762
1.70722
1.70684
1.70647
1.70611
1.70578
1.70546
1.70516
1.70488
1.70461
1.70437
1.70415
1.70394
1.70376
1.7036
1.70346
1.70334
1.70324
1.70316
1.70311
1.70307
1.70306
1.70307
1.70309
1.70314
1.70321
1.70329
1.7034
1.70352
1.70366
1.70382
1.70399
1.70417
1.70437
1.70458
1.70481
1.70504
1.70528
1.70552
1.70578
1.70603
1.70629
1.70655
1.70681
1.70707
1.70732
1.70757
1.70781
1.70805
1.70827
1.70849
1.70869
1.70888
1.70906
1.70924
1.70939
1.70952
1.70964
1.70974
1.70983
1.7099
1.70996
1.71001
1.71004
1.71006
1.71008
1.71008
1.71007
1.71006
1.71003
1.71001
1.70998
1.70995
1.70991
1.70988
1.70984
1.70981
1.70978
1.70975
1.70973
1.70972
1.70971
1.7097
1.7097
1.70971
1.70973
1.70975
1.70978
1.70982
1.70986
1.70991
1.70997
1.71003
1.71009
1.71016
1.71024
1.71031
1.71039
1.71046
1.71054
1.71062
1.7107
1.71077
1.71084
1.71092
1.71098
1.71105
1.71111
1.71117
1.71123
1.71128
1.71133
1.71138
1.71143
1.71148
1.71152
1.71157
1.71161
1.71166
1.71171
1.71176
1.71181
1.71187
1.71193
1.712
1.71207
1.71214
1.71222
1.7123
1.71239
1.71249
1.71259
1.71269
1.7128
1.71292
1.71304
1.71316
1.71328
1.71341
1.71354
1.71368
1.71381
1.71394
1.71408
1.71421
1.71434
1.71448
1.7146
1.71473
1.71486
1.71498
1.7151
1.71522
1.71533
1.71545
1.71556
1.71567
1.71578
1.71589
1.71599
1.7161
1.71622
1.71633
1.71645
1.71657
1.71669
1.71682
1.71695
1.71709
1.71723
1.71738
1.71753
1.71769
1.71785
1.71802
1.7182
1.71838
1.71856
1.71875
1.71893
1.71912
1.71931
1.7195
1.71969
1.71988
1.72006
1.72024
1.72041
1.72058
1.72074
1.72089
1.72104
1.72117
1.7213
1.72142
1.72153
1.72163
1.72171
1.72179
1.72186
1.72192
1.72197
1.72201
1.72205
1.72207
1.72209
1.7221
1.72211
1.72211
1.72211
1.7221
1.72208
1.72207
1.72204
1.72202
1.722
1.72197
1.72194
1.72191
1.72188
1.72184
1.72181
1.72177
1.72174
1.7217
1.72167
1.72164
1.7216
1.72157
1.72154
1.72151
1.72148
1.72145
1.72142
1.7214
1.72138
1.72136
1.72135
1.72134
1.72133
1.72133
1.72133
1.72133
1.72134
1.72135
1.72137
1.7214
1.72142
1.72146
1.72149
1.72154
1.72158
1.72163
1.72168
1.72174
1.72179
1.72185
1.72191
1.72197
1.72203
1.72209
1.72215
1.7222
1.72225
1.7223
1.72234
1.72238
1.72242
1.72244
1.72246
1.72248
1.72248
1.72248
1.72247
1.72245
1.72243
1.72239
1.72235
1.7223
1.72224
1.72217
1.7221
1.72202
1.72193
1.72183
1.72173
1.72163
1.72152
1.72141
1.72129
1.72117
1.72106
1.72094
1.72082
1.7207
1.72059
1.72048
1.72038
1.72028
1.72018
1.72009
1.72001
1.71994
1.71988
1.71983
1.71978
1.71975
1.71972
1.71971
1.71971
1.71972
1.71974
1.71977
1.71981
1.71986
1.71992
1.71999
1.72007
1.72015
1.72025
1.72035
1.72046
1.72058
1.7207
1.72082
1.72095
1.72109
1.72122
1.72136
1.7215
1.72164
1.72179
1.72193
1.72208
1.72222
1.72236
1.72251
1.72265
1.72279
1.72294
1.72308
1.72322
1.72336
1.7235
1.72364
1.72377
1.72391
1.72404
1.72416
1.72428
1.72439
1.72449
1.72458
1.72466
1.72473
1.72478
1.72481
1.72482
1.7248
1.72476
1.7247
1.7246
1.72448
1.72433
1.72414
1.72392
1.72367
1.72339
1.72308
1.72274
1.72237
1.72198
1.72156
1.72112
1.72066
1.72018
1.71969
1.71918
1.71866
1.71814
1.71761
1.71707
1.71654
1.716
1.71546
1.71492
1.71438
1.71385
1.71333
1.71281
1.71229
1.71178
1.71128
1.71079
1.71031
1.70984
1.70937
1.70892
1.70848
1.70806
1.70765
1.70725
1.70686
1.7065
1.70614
1.70581
1.70549
1.70519
1.70491
1.70465
1.7044
1.70418
1.70398
1.7038
1.70364
1.7035
1.70338
1.70328
1.70321
1.70315
1.70312
1.7031
1.70311
1.70314
1.70319
1.70325
1.70334
1.70344
1.70357
1.70371
1.70386
1.70403
1.70422
1.70442
1.70463
1.70485
1.70508
1.70532
1.70556
1.70582
1.70607
1.70633
1.70659
1.70685
1.7071
1.70735
1.7076
1.70784
1.70807
1.7083
1.70851
1.70871
1.7089
1.70908
1.70928
1.70943
1.70956
1.70968
1.70978
1.70987
1.70994
1.71
1.71004
1.71008
1.7101
1.71011
1.71011
1.7101
1.71009
1.71007
1.71004
1.71001
1.70998
1.70995
1.70991
1.70988
1.70985
1.70982
1.70979
1.70977
1.70976
1.70975
1.70974
1.70974
1.70975
1.70977
1.70979
1.70982
1.70986
1.7099
1.70995
1.71001
1.71007
1.71013
1.7102
1.71027
1.71035
1.71042
1.7105
1.71058
1.71065
1.71073
1.7108
1.71088
1.71095
1.71101
1.71108
1.71114
1.7112
1.71126
1.71131
1.71136
1.71141
1.71146
1.7115
1.71155
1.7116
1.71164
1.71169
1.71174
1.71179
1.71184
1.7119
1.71196
1.71203
1.7121
1.71217
1.71225
1.71233
1.71242
1.71252
1.71262
1.71272
1.71283
1.71294
1.71306
1.71318
1.71331
1.71344
1.71356
1.7137
1.71383
1.71396
1.71409
1.71422
1.71435
1.71448
1.71461
1.71474
1.71486
1.71498
1.7151
1.71521
1.71533
1.71544
1.71555
1.71566
1.71577
1.71587
1.71598
1.71609
1.7162
1.71632
1.71643
1.71655
1.71667
1.7168
1.71693
1.71707
1.71721
1.71736
1.71751
1.71767
1.71783
1.718
1.71818
1.71836
1.71854
1.71872
1.71891
1.7191
1.71929
1.71948
1.71966
1.71985
1.72003
1.72021
1.72038
1.72054
1.7207
1.72086
1.721
1.72113
1.72126
1.72138
1.72148
1.72158
1.72167
1.72175
1.72182
1.72188
1.72193
1.72197
1.722
1.72203
1.72205
1.72206
1.72206
1.72206
1.72206
1.72205
1.72204
1.72202
1.722
1.72198
1.72195
1.72193
1.7219
1.72187
1.72184
1.7218
1.72177
1.72174
1.7217
1.72167
1.72164
1.7216
1.72157
1.72154
1.72151
1.72148
1.72145
1.72143
1.7214
1.72138
1.72136
1.72134
1.72133
1.72132
1.72131
1.72131
1.72131
1.72132
1.72133
1.72135
1.72137
1.72139
1.72142
1.72145
1.72149
1.72153
1.72158
1.72163
1.72168
1.72174
1.7218
1.72186
1.72192
1.72198
1.72204
1.7221
1.72216
1.72221
1.72226
1.72231
1.72235
1.72239
1.72243
1.72245
1.72247
1.72249
1.72249
1.72249
1.72248
1.72246
1.72244
1.7224
1.72236
1.72231
1.72225
1.72218
1.72211
1.72203
1.72194
1.72185
1.72175
1.72164
1.72153
1.72142
1.7213
1.72119
1.72107
1.72095
1.72083
1.72072
1.7206
1.72049
1.72039
1.72029
1.72019
1.72011
1.72003
1.71995
1.71989
1.71984
1.71979
1.71976
1.71973
1.71972
1.71971
1.71972
1.71974
1.71977
1.71981
1.71985
1.71991
1.71998
1.72006
1.72014
1.72024
1.72034
1.72045
1.72056
1.72068
1.7208
1.72093
1.72107
1.7212
1.72134
1.72148
1.72162
1.72176
1.72191
1.72205
1.72219
1.72234
1.72248
1.72262
1.72276
1.72291
1.72305
1.72319
1.72333
1.72346
1.7236
1.72373
1.72387
1.72399
1.72412
1.72423
1.72434
1.72444
1.72453
1.72461
1.72468
1.72472
1.72475
1.72476
1.72474
1.72471
1.72464
1.72455
1.72442
1.72427
1.72408
1.72387
1.72362
1.72334
1.72303
1.7227
1.72233
1.72194
1.72152
1.72109
1.72063
1.72015
1.71966
1.71916
1.71865
1.71812
1.71759
1.71706
1.71653
1.71599
1.71545
1.71492
1.71439
1.71386
1.71333
1.71281
1.7123
1.71179
1.7113
1.71081
1.71033
1.70985
1.70939
1.70894
1.70851
1.70808
1.70767
1.70727
1.70689
1.70653
1.70618
1.70584
1.70553
1.70523
1.70495
1.70469
1.70445
1.70423
1.70403
1.70385
1.70369
1.70355
1.70343
1.70334
1.70326
1.70321
1.70318
1.70317
1.70317
1.7032
1.70325
1.70332
1.70341
1.70351
1.70364
1.70378
1.70393
1.7041
1.70429
1.70449
1.7047
1.70492
1.70515
1.70538
1.70563
1.70588
1.70613
1.70639
1.70665
1.70691
1.70716
1.70741
1.70766
1.70789
1.70813
1.70835
1.70856
1.70876
1.70895
1.70912
1.70935
1.70949
1.70962
1.70974
1.70984
1.70993
1.71
1.71006
1.7101
1.71014
1.71016
1.71017
1.71017
1.71016
1.71015
1.71013
1.7101
1.71007
1.71004
1.71001
1.70997
1.70994
1.70991
1.70988
1.70985
1.70983
1.70982
1.7098
1.7098
1.7098
1.70981
1.70983
1.70985
1.70988
1.70992
1.70996
1.71001
1.71006
1.71012
1.71019
1.71025
1.71032
1.7104
1.71047
1.71055
1.71062
1.7107
1.71077
1.71085
1.71092
1.71099
1.71106
1.71112
1.71118
1.71124
1.7113
1.71135
1.7114
1.71145
1.7115
1.71155
1.71159
1.71164
1.71168
1.71173
1.71178
1.71183
1.71188
1.71194
1.712
1.71207
1.71214
1.71221
1.71229
1.71237
1.71246
1.71256
1.71265
1.71276
1.71287
1.71298
1.71309
1.71321
1.71334
1.71346
1.71359
1.71372
1.71385
1.71398
1.71411
1.71424
1.71437
1.71449
1.71462
1.71474
1.71486
1.71498
1.71509
1.71521
1.71532
1.71543
1.71554
1.71564
1.71575
1.71585
1.71596
1.71607
1.71618
1.71629
1.7164
1.71652
1.71664
1.71677
1.7169
1.71703
1.71717
1.71732
1.71747
1.71763
1.71779
1.71796
1.71813
1.71831
1.71849
1.71868
1.71886
1.71905
1.71924
1.71942
1.71961
1.71979
1.71997
1.72015
1.72032
1.72048
1.72064
1.72079
1.72094
1.72107
1.72119
1.72131
1.72142
1.72151
1.7216
1.72168
1.72175
1.7218
1.72185
1.7219
1.72193
1.72195
1.72197
1.72199
1.72199
1.72199
1.72199
1.72198
1.72197
1.72195
1.72193
1.72191
1.72189
1.72186
1.72184
1.72181
1.72178
1.72175
1.72172
1.72168
1.72165
1.72162
1.72159
1.72156
1.72153
1.7215
1.72147
1.72144
1.72142
1.72139
1.72137
1.72135
1.72133
1.72132
1.72131
1.7213
1.72129
1.72129
1.7213
1.7213
1.72132
1.72133
1.72136
1.72138
1.72142
1.72145
1.72149
1.72154
1.72158
1.72163
1.72169
1.72175
1.72181
1.72187
1.72193
1.72199
1.72205
1.72211
1.72217
1.72222
1.72228
1.72233
1.72237
1.72241
1.72245
1.72247
1.72249
1.72251
1.72251
1.72251
1.7225
1.72249
1.72246
1.72243
1.72238
1.72233
1.72227
1.72221
1.72213
1.72205
1.72196
1.72187
1.72177
1.72166
1.72156
1.72144
1.72133
1.72121
1.72109
1.72098
1.72086
1.72074
1.72063
1.72052
1.72041
1.72031
1.72022
1.72013
1.72005
1.71998
1.71991
1.71986
1.71981
1.71977
1.71975
1.71973
1.71973
1.71973
1.71975
1.71977
1.71981
1.71986
1.71992
1.71998
1.72006
1.72014
1.72023
1.72033
1.72044
1.72055
1.72067
1.72079
1.72092
1.72105
1.72118
1.72132
1.72146
1.72159
1.72174
1.72188
1.72202
1.72216
1.72231
1.72245
1.72259
1.72273
1.72287
1.72301
1.72315
1.72329
1.72342
1.72356
1.72369
1.72382
1.72395
1.72407
1.72418
1.72429
1.72439
1.72448
1.72455
1.72462
1.72466
1.72469
1.7247
1.72468
1.72464
1.72458
1.72448
1.72436
1.72421
1.72403
1.72381
1.72357
1.72329
1.72299
1.72265
1.72229
1.7219
1.72149
1.72105
1.7206
1.72013
1.71964
1.71914
1.71863
1.71811
1.71759
1.71706
1.71653
1.716
1.71546
1.71493
1.7144
1.71387
1.71335
1.71284
1.71233
1.71182
1.71133
1.71084
1.71036
1.70989
1.70943
1.70899
1.70855
1.70813
1.70772
1.70732
1.70694
1.70658
1.70623
1.7059
1.70559
1.70529
1.70502
1.70476
1.70452
1.7043
1.7041
1.70393
1.70377
1.70363
1.70352
1.70342
1.70335
1.7033
1.70327
1.70326
1.70327
1.7033
1.70335
1.70342
1.70351
1.70361
1.70374
1.70388
1.70403
1.70421
1.70439
1.70459
1.7048
1.70502
1.70525
1.70548
1.70573
1.70598
1.70623
1.70648
1.70674
1.70699
1.70725
1.7075
1.70774
1.70798
1.70821
1.70842
1.70863
1.70883
1.70902
1.70919
1.70944
1.70958
1.70971
1.70982
1.70992
1.71001
1.71008
1.71014
1.71018
1.71021
1.71024
1.71025
1.71025
1.71024
1.71023
1.7102
1.71018
1.71015
1.71012
1.71008
1.71005
1.71002
1.70998
1.70995
1.70993
1.70991
1.70989
1.70988
1.70988
1.70988
1.70989
1.7099
1.70993
1.70995
1.70999
1.71003
1.71008
1.71013
1.71019
1.71025
1.71032
1.71039
1.71046
1.71054
1.71061
1.71069
1.71076
1.71083
1.71091
1.71098
1.71105
1.71111
1.71118
1.71124
1.7113
1.71135
1.71141
1.71146
1.71151
1.71155
1.7116
1.71165
1.71169
1.71174
1.71179
1.71183
1.71189
1.71194
1.712
1.71206
1.71212
1.71219
1.71226
1.71234
1.71243
1.71251
1.71261
1.7127
1.71281
1.71291
1.71302
1.71314
1.71326
1.71338
1.7135
1.71363
1.71375
1.71388
1.71401
1.71413
1.71426
1.71439
1.71451
1.71463
1.71475
1.71487
1.71498
1.7151
1.71521
1.71531
1.71542
1.71553
1.71563
1.71573
1.71584
1.71594
1.71605
1.71615
1.71626
1.71637
1.71649
1.71661
1.71673
1.71686
1.717
1.71714
1.71728
1.71743
1.71759
1.71775
1.71792
1.71809
1.71826
1.71844
1.71862
1.71881
1.71899
1.71918
1.71937
1.71955
1.71973
1.71991
1.72008
1.72025
1.72041
1.72057
1.72072
1.72086
1.72099
1.72111
1.72123
1.72133
1.72143
1.72151
1.72159
1.72166
1.72171
1.72176
1.7218
1.72184
1.72186
1.72188
1.7219
1.7219
1.7219
1.7219
1.72189
1.72188
1.72187
1.72185
1.72183
1.72181
1.72178
1.72176
1.72173
1.7217
1.72167
1.72165
1.72161
1.72159
1.72156
1.72153
1.7215
1.72147
1.72144
1.72141
1.72139
1.72137
1.72134
1.72132
1.72131
1.72129
1.72128
1.72127
1.72126
1.72126
1.72127
1.72127
1.72128
1.7213
1.72132
1.72134
1.72137
1.72141
1.72145
1.72149
1.72153
1.72159
1.72164
1.7217
1.72175
1.72182
1.72188
1.72194
1.722
1.72207
1.72213
1.72219
1.72224
1.7223
1.72235
1.72239
1.72243
1.72247
1.72249
1.72252
1.72253
1.72254
1.72254
1.72253
1.72251
1.72249
1.72245
1.72241
1.72236
1.7223
1.72223
1.72216
1.72208
1.72199
1.72189
1.72179
1.72169
1.72158
1.72147
1.72135
1.72124
1.72112
1.721
1.72088
1.72077
1.72065
1.72054
1.72044
1.72033
1.72024
1.72015
1.72007
1.71999
1.71993
1.71987
1.71982
1.71978
1.71976
1.71974
1.71973
1.71973
1.71975
1.71977
1.71981
1.71985
1.7199
1.71997
1.72004
1.72012
1.72021
1.72031
1.72041
1.72052
1.72063
1.72075
1.72088
1.72101
1.72114
1.72127
1.72141
1.72155
1.72169
1.72183
1.72197
1.72211
1.72225
1.72239
1.72253
1.72267
1.72281
1.72295
1.72309
1.72322
1.72336
1.72349
1.72362
1.72375
1.72387
1.72399
1.7241
1.72421
1.72431
1.72439
1.72447
1.72453
1.72457
1.7246
1.7246
1.72459
1.72455
1.72448
1.72439
1.72427
1.72412
1.72394
1.72373
1.72348
1.72321
1.72291
1.72258
1.72222
1.72183
1.72143
1.721
1.72055
1.72008
1.7196
1.7191
1.7186
1.71809
1.71757
1.71704
1.71651
1.71598
1.71545
1.71493
1.7144
1.71388
1.71336
1.71285
1.71234
1.71184
1.71135
1.71086
1.71039
1.70992
1.70947
1.70902
1.70859
1.70817
1.70776
1.70737
1.70699
1.70663
1.70629
1.70596
1.70565
1.70536
1.70508
1.70483
1.70459
1.70438
1.70418
1.70401
1.70386
1.70372
1.70361
1.70352
1.70345
1.7034
1.70338
1.70337
1.70338
1.70341
1.70347
1.70354
1.70363
1.70373
1.70386
1.704
1.70416
1.70433
1.70451
1.70471
1.70492
1.70514
1.70537
1.7056
1.70585
1.70609
1.70635
1.7066
1.70685
1.7071
1.70736
1.7076
1.70784
1.70808
1.70831
1.70852
1.70873
1.70893
1.70911
1.70928
1.70955
1.70969
1.70982
1.70993
1.71003
1.71011
1.71018
1.71024
1.71028
1.71031
1.71033
1.71034
1.71034
1.71034
1.71032
1.7103
1.71028
1.71024
1.71021
1.71018
1.71014
1.71011
1.71008
1.71005
1.71002
1.71
1.70999
1.70998
1.70997
1.70997
1.70998
1.70999
1.71002
1.71004
1.71008
1.71012
1.71017
1.71022
1.71028
1.71034
1.7104
1.71047
1.71054
1.71061
1.71069
1.71076
1.71083
1.71091
1.71098
1.71105
1.71112
1.71118
1.71125
1.71131
1.71136
1.71142
1.71147
1.71152
1.71157
1.71162
1.71167
1.71171
1.71176
1.7118
1.71185
1.7119
1.71195
1.71201
1.71206
1.71212
1.71219
1.71226
1.71233
1.71241
1.71249
1.71257
1.71267
1.71276
1.71286
1.71297
1.71308
1.71319
1.71331
1.71342
1.71354
1.71367
1.71379
1.71391
1.71404
1.71416
1.71428
1.71441
1.71453
1.71464
1.71476
1.71487
1.71498
1.71509
1.7152
1.7153
1.71541
1.71551
1.71561
1.71571
1.71581
1.71591
1.71601
1.71611
1.71622
1.71633
1.71644
1.71656
1.71668
1.7168
1.71694
1.71707
1.71722
1.71737
1.71752
1.71768
1.71785
1.71802
1.71819
1.71837
1.71855
1.71873
1.71891
1.7191
1.71928
1.71946
1.71964
1.71982
1.71999
1.72015
1.72031
1.72047
1.72062
1.72075
1.72088
1.72101
1.72112
1.72122
1.72131
1.7214
1.72147
1.72154
1.7216
1.72165
1.72169
1.72172
1.72175
1.72177
1.72178
1.72179
1.72179
1.72179
1.72178
1.72177
1.72176
1.72174
1.72173
1.72171
1.72168
1.72166
1.72163
1.72161
1.72158
1.72156
1.72153
1.7215
1.72147
1.72145
1.72142
1.7214
1.72137
1.72135
1.72132
1.7213
1.72128
1.72127
1.72125
1.72124
1.72123
1.72123
1.72123
1.72123
1.72123
1.72124
1.72126
1.72128
1.7213
1.72133
1.72136
1.7214
1.72144
1.72149
1.72153
1.72159
1.72164
1.7217
1.72176
1.72183
1.72189
1.72196
1.72202
1.72209
1.72215
1.72221
1.72227
1.72232
1.72237
1.72242
1.72246
1.7225
1.72252
1.72255
1.72256
1.72257
1.72257
1.72256
1.72254
1.72252
1.72249
1.72244
1.72239
1.72234
1.72227
1.7222
1.72211
1.72203
1.72193
1.72183
1.72173
1.72162
1.72151
1.72139
1.72127
1.72116
1.72104
1.72092
1.7208
1.72069
1.72058
1.72047
1.72037
1.72027
1.72018
1.7201
1.72003
1.71996
1.7199
1.71985
1.71981
1.71978
1.71976
1.71975
1.71975
1.71976
1.71978
1.71981
1.71986
1.71991
1.71997
1.72004
1.72011
1.7202
1.72029
1.72039
1.7205
1.72061
1.72073
1.72085
1.72098
1.72111
1.72124
1.72137
1.72151
1.72165
1.72179
1.72192
1.72206
1.7222
1.72234
1.72248
1.72262
1.72276
1.72289
1.72303
1.72316
1.7233
1.72343
1.72355
1.72368
1.7238
1.72392
1.72403
1.72413
1.72423
1.72431
1.72438
1.72444
1.72448
1.72451
1.72451
1.7245
1.72446
1.72439
1.7243
1.72418
1.72403
1.72385
1.72365
1.72341
1.72314
1.72284
1.72251
1.72216
1.72178
1.72138
1.72095
1.72051
1.72005
1.71957
1.71908
1.71858
1.71807
1.71756
1.71704
1.71652
1.71599
1.71547
1.71495
1.71443
1.71391
1.71339
1.71288
1.71238
1.71188
1.71139
1.71091
1.71044
1.70998
1.70952
1.70908
1.70865
1.70824
1.70783
1.70744
1.70707
1.70671
1.70637
1.70605
1.70574
1.70545
1.70518
1.70493
1.7047
1.70449
1.7043
1.70413
1.70398
1.70385
1.70374
1.70365
1.70359
1.70354
1.70352
1.70351
1.70353
1.70356
1.70362
1.70369
1.70378
1.70389
1.70401
1.70416
1.70431
1.70448
1.70467
1.70487
1.70508
1.70529
1.70552
1.70576
1.706
1.70624
1.70649
1.70674
1.707
1.70724
1.70749
1.70774
1.70798
1.70821
1.70843
1.70865
1.70885
1.70904
1.70923
1.70939
1.70968
1.70982
1.70994
1.71005
1.71015
1.71023
1.7103
1.71036
1.7104
1.71043
1.71045
1.71046
1.71046
1.71045
1.71044
1.71041
1.71039
1.71036
1.71033
1.71029
1.71026
1.71022
1.71019
1.71016
1.71014
1.71011
1.7101
1.71009
1.71008
1.71008
1.71009
1.7101
1.71012
1.71015
1.71018
1.71022
1.71027
1.71032
1.71037
1.71043
1.7105
1.71056
1.71063
1.7107
1.71077
1.71085
1.71092
1.71099
1.71106
1.71113
1.7112
1.71126
1.71133
1.71139
1.71144
1.7115
1.71155
1.7116
1.71165
1.7117
1.71175
1.71179
1.71184
1.71188
1.71193
1.71198
1.71203
1.71209
1.71214
1.7122
1.71227
1.71233
1.7124
1.71248
1.71256
1.71265
1.71274
1.71283
1.71293
1.71303
1.71314
1.71325
1.71337
1.71348
1.7136
1.71372
1.71384
1.71396
1.71408
1.7142
1.71432
1.71443
1.71455
1.71466
1.71478
1.71489
1.71499
1.7151
1.7152
1.7153
1.7154
1.7155
1.71559
1.71569
1.71578
1.71588
1.71598
1.71608
1.71618
1.71629
1.7164
1.71651
1.71663
1.71676
1.71689
1.71702
1.71716
1.71731
1.71746
1.71762
1.71778
1.71795
1.71812
1.71829
1.71847
1.71865
1.71883
1.71901
1.71919
1.71937
1.71955
1.71972
1.71989
1.72005
1.72021
1.72036
1.7205
1.72064
1.72077
1.72089
1.721
1.7211
1.72119
1.72127
1.72134
1.72141
1.72147
1.72151
1.72155
1.72159
1.72161
1.72163
1.72164
1.72165
1.72166
1.72166
1.72165
1.72164
1.72163
1.72162
1.7216
1.72158
1.72156
1.72154
1.72152
1.7215
1.72147
1.72145
1.72142
1.7214
1.72137
1.72135
1.72133
1.72131
1.72128
1.72126
1.72124
1.72123
1.72121
1.7212
1.72119
1.72118
1.72118
1.72118
1.72118
1.72118
1.72119
1.72121
1.72122
1.72125
1.72127
1.72131
1.72134
1.72138
1.72143
1.72148
1.72153
1.72159
1.72164
1.72171
1.72177
1.72184
1.7219
1.72197
1.72204
1.7221
1.72217
1.72223
1.72229
1.72235
1.7224
1.72245
1.72249
1.72252
1.72255
1.72258
1.72259
1.7226
1.7226
1.72259
1.72258
1.72255
1.72252
1.72248
1.72243
1.72237
1.7223
1.72223
1.72215
1.72206
1.72197
1.72187
1.72176
1.72165
1.72154
1.72142
1.72131
1.72119
1.72107
1.72095
1.72083
1.72072
1.72061
1.7205
1.7204
1.7203
1.72021
1.72013
1.72005
1.71998
1.71992
1.71987
1.71982
1.71979
1.71977
1.71976
1.71975
1.71976
1.71978
1.7198
1.71984
1.71989
1.71994
1.72001
1.72008
1.72016
1.72025
1.72035
1.72045
1.72056
1.72068
1.7208
1.72092
1.72105
1.72118
1.72131
1.72144
1.72158
1.72171
1.72185
1.72199
1.72213
1.72226
1.7224
1.72254
1.72267
1.72281
1.72294
1.72307
1.7232
1.72333
1.72346
1.72358
1.7237
1.72381
1.72392
1.72402
1.72411
1.72419
1.72426
1.72432
1.72436
1.72438
1.72439
1.72437
1.72433
1.72427
1.72418
1.72406
1.72391
1.72374
1.72353
1.7233
1.72303
1.72274
1.72241
1.72207
1.72169
1.72129
1.72088
1.72044
1.71998
1.71951
1.71903
1.71854
1.71804
1.71753
1.71702
1.7165
1.71598
1.71546
1.71494
1.71443
1.71392
1.71341
1.7129
1.7124
1.71191
1.71143
1.71095
1.71048
1.71002
1.70957
1.70913
1.70871
1.70829
1.7079
1.70751
1.70714
1.70679
1.70645
1.70613
1.70583
1.70554
1.70528
1.70503
1.7048
1.7046
1.70441
1.70425
1.7041
1.70398
1.70387
1.70379
1.70373
1.70369
1.70367
1.70366
1.70368
1.70372
1.70378
1.70385
1.70395
1.70406
1.70418
1.70433
1.70448
1.70466
1.70484
1.70504
1.70525
1.70546
1.70569
1.70592
1.70617
1.70641
1.70666
1.70691
1.70716
1.7074
1.70765
1.70789
1.70813
1.70836
1.70858
1.70879
1.70899
1.70918
1.70936
1.70953
1.70983
1.70997
1.71009
1.7102
1.71029
1.71037
1.71044
1.71049
1.71054
1.71056
1.71058
1.71059
1.71059
1.71058
1.71057
1.71054
1.71052
1.71049
1.71045
1.71042
1.71039
1.71035
1.71032
1.71029
1.71026
1.71024
1.71022
1.71021
1.7102
1.7102
1.71021
1.71022
1.71024
1.71026
1.7103
1.71033
1.71038
1.71043
1.71048
1.71054
1.7106
1.71067
1.71073
1.7108
1.71087
1.71094
1.71102
1.71109
1.71116
1.71122
1.71129
1.71136
1.71142
1.71148
1.71154
1.71159
1.71164
1.71169
1.71174
1.71179
1.71184
1.71188
1.71193
1.71197
1.71202
1.71207
1.71212
1.71217
1.71223
1.71229
1.71235
1.71242
1.71249
1.71256
1.71264
1.71273
1.71282
1.71291
1.713
1.71311
1.71321
1.71332
1.71343
1.71354
1.71365
1.71377
1.71389
1.714
1.71412
1.71423
1.71435
1.71446
1.71457
1.71468
1.71479
1.71489
1.71499
1.71509
1.71519
1.71529
1.71538
1.71547
1.71556
1.71565
1.71574
1.71584
1.71593
1.71603
1.71613
1.71623
1.71633
1.71645
1.71656
1.71668
1.71681
1.71694
1.71708
1.71722
1.71737
1.71752
1.71768
1.71785
1.71802
1.71819
1.71836
1.71854
1.71872
1.7189
1.71907
1.71925
1.71942
1.71959
1.71976
1.71992
1.72007
1.72022
1.72036
1.7205
1.72062
1.72074
1.72085
1.72095
1.72103
1.72112
1.72119
1.72125
1.72131
1.72135
1.72139
1.72143
1.72145
1.72147
1.72149
1.7215
1.7215
1.7215
1.7215
1.72149
1.72148
1.72147
1.72145
1.72144
1.72142
1.7214
1.72138
1.72136
1.72134
1.72132
1.7213
1.72128
1.72126
1.72124
1.72122
1.7212
1.72118
1.72117
1.72115
1.72114
1.72113
1.72112
1.72111
1.72111
1.72111
1.72111
1.72112
1.72113
1.72114
1.72116
1.72118
1.72121
1.72124
1.72128
1.72132
1.72137
1.72141
1.72147
1.72152
1.72158
1.72165
1.72171
1.72178
1.72185
1.72192
1.72199
1.72206
1.72213
1.72219
1.72226
1.72232
1.72238
1.72243
1.72248
1.72252
1.72256
1.72259
1.72262
1.72263
1.72264
1.72264
1.72264
1.72262
1.7226
1.72256
1.72252
1.72247
1.72242
1.72235
1.72228
1.72219
1.72211
1.72201
1.72192
1.72181
1.7217
1.72159
1.72147
1.72136
1.72124
1.72112
1.721
1.72088
1.72077
1.72066
1.72055
1.72045
1.72035
1.72025
1.72017
1.72009
1.72002
1.71996
1.7199
1.71986
1.71982
1.71979
1.71978
1.71977
1.71977
1.71979
1.71981
1.71984
1.71989
1.71994
1.72
1.72007
1.72015
1.72023
1.72032
1.72042
1.72053
1.72064
1.72076
1.72088
1.721
1.72113
1.72126
1.72139
1.72152
1.72166
1.72179
1.72193
1.72206
1.7222
1.72233
1.72247
1.7226
1.72273
1.72286
1.72299
1.72312
1.72325
1.72337
1.72349
1.72361
1.72372
1.72382
1.72392
1.72401
1.72409
1.72416
1.72421
1.72425
1.72427
1.72428
1.72426
1.72422
1.72416
1.72407
1.72395
1.72381
1.72363
1.72343
1.7232
1.72294
1.72265
1.72233
1.72199
1.72162
1.72123
1.72082
1.72039
1.71994
1.71948
1.71901
1.71852
1.71803
1.71753
1.71702
1.71651
1.716
1.71549
1.71497
1.71446
1.71395
1.71345
1.71295
1.71246
1.71197
1.71149
1.71101
1.71055
1.71009
1.70965
1.70922
1.7088
1.70839
1.70799
1.70761
1.70724
1.70689
1.70656
1.70624
1.70595
1.70567
1.70541
1.70516
1.70494
1.70474
1.70456
1.7044
1.70426
1.70414
1.70404
1.70396
1.7039
1.70387
1.70385
1.70385
1.70387
1.70391
1.70397
1.70405
1.70415
1.70426
1.70439
1.70453
1.70469
1.70486
1.70505
1.70524
1.70545
1.70567
1.70589
1.70612
1.70636
1.7066
1.70685
1.7071
1.70734
1.70759
1.70783
1.70807
1.7083
1.70853
1.70875
1.70895
1.70915
1.70934
1.70952
1.70968
1.71
1.71013
1.71025
1.71036
1.71045
1.71053
1.71059
1.71065
1.71069
1.71071
1.71073
1.71074
1.71074
1.71073
1.71071
1.71069
1.71066
1.71063
1.7106
1.71056
1.71053
1.71049
1.71046
1.71043
1.7104
1.71038
1.71036
1.71034
1.71034
1.71034
1.71034
1.71035
1.71037
1.71039
1.71042
1.71046
1.7105
1.71055
1.7106
1.71066
1.71072
1.71078
1.71085
1.71092
1.71099
1.71106
1.71113
1.71119
1.71126
1.71133
1.7114
1.71146
1.71152
1.71158
1.71164
1.71169
1.71175
1.7118
1.71184
1.71189
1.71194
1.71198
1.71203
1.71208
1.71212
1.71217
1.71222
1.71227
1.71233
1.71239
1.71245
1.71251
1.71258
1.71266
1.71274
1.71282
1.7129
1.713
1.71309
1.71319
1.71329
1.71339
1.7135
1.71361
1.71372
1.71383
1.71394
1.71406
1.71417
1.71428
1.71439
1.7145
1.7146
1.71471
1.71481
1.71491
1.715
1.7151
1.71519
1.71528
1.71537
1.71546
1.71555
1.71563
1.71572
1.71581
1.7159
1.71599
1.71609
1.71618
1.71629
1.71639
1.7165
1.71662
1.71674
1.71687
1.717
1.71715
1.71729
1.71744
1.7176
1.71776
1.71792
1.71809
1.71826
1.71843
1.71861
1.71878
1.71896
1.71913
1.7193
1.71946
1.71963
1.71978
1.71993
1.72008
1.72022
1.72035
1.72047
1.72058
1.72068
1.72078
1.72087
1.72095
1.72102
1.72108
1.72113
1.72118
1.72122
1.72125
1.72127
1.72129
1.72131
1.72132
1.72132
1.72133
1.72132
1.72132
1.72131
1.7213
1.72129
1.72127
1.72126
1.72124
1.72123
1.72121
1.72119
1.72118
1.72116
1.72114
1.72112
1.72111
1.72109
1.72108
1.72106
1.72105
1.72104
1.72103
1.72103
1.72102
1.72102
1.72102
1.72103
1.72104
1.72105
1.72106
1.72108
1.72111
1.72113
1.72117
1.7212
1.72124
1.72129
1.72134
1.72139
1.72145
1.72151
1.72157
1.72164
1.72171
1.72178
1.72185
1.72193
1.722
1.72207
1.72214
1.72221
1.72228
1.72234
1.7224
1.72246
1.72251
1.72255
1.72259
1.72262
1.72265
1.72267
1.72268
1.72268
1.72267
1.72266
1.72263
1.7226
1.72256
1.72251
1.72245
1.72239
1.72231
1.72223
1.72215
1.72205
1.72195
1.72185
1.72174
1.72163
1.72151
1.7214
1.72128
1.72116
1.72104
1.72092
1.7208
1.72069
1.72058
1.72048
1.72038
1.72028
1.72019
1.72011
1.72004
1.71997
1.71992
1.71987
1.71983
1.7198
1.71978
1.71977
1.71977
1.71978
1.71979
1.71982
1.71986
1.71991
1.71996
1.72003
1.7201
1.72018
1.72027
1.72036
1.72047
1.72057
1.72068
1.7208
1.72092
1.72105
1.72117
1.7213
1.72143
1.72157
1.7217
1.72183
1.72197
1.7221
1.72223
1.72237
1.7225
1.72263
1.72275
1.72288
1.72301
1.72313
1.72325
1.72337
1.72348
1.72359
1.72369
1.72378
1.72387
1.72394
1.72401
1.72406
1.7241
1.72412
1.72412
1.72411
1.72407
1.724
1.72392
1.7238
1.72366
1.72349
1.72329
1.72307
1.72281
1.72253
1.72222
1.72188
1.72152
1.72114
1.72073
1.72031
1.71987
1.71942
1.71895
1.71847
1.71798
1.71749
1.71699
1.71649
1.71599
1.71548
1.71498
1.71447
1.71397
1.71347
1.71298
1.71249
1.71201
1.71153
1.71106
1.7106
1.71015
1.70971
1.70928
1.70887
1.70846
1.70807
1.7077
1.70734
1.70699
1.70666
1.70635
1.70606
1.70578
1.70553
1.70529
1.70508
1.70488
1.70471
1.70455
1.70442
1.7043
1.70421
1.70413
1.70408
1.70405
1.70404
1.70404
1.70407
1.70411
1.70418
1.70426
1.70435
1.70447
1.7046
1.70474
1.7049
1.70508
1.70526
1.70546
1.70567
1.70588
1.70611
1.70634
1.70657
1.70681
1.70706
1.7073
1.70755
1.70779
1.70803
1.70826
1.70849
1.70871
1.70893
1.70914
1.70933
1.70952
1.70969
1.70985
1.71018
1.71031
1.71043
1.71053
1.71062
1.7107
1.71076
1.71081
1.71085
1.71088
1.71089
1.7109
1.7109
1.71089
1.71087
1.71085
1.71082
1.71079
1.71075
1.71072
1.71068
1.71064
1.71061
1.71058
1.71055
1.71053
1.71051
1.71049
1.71048
1.71048
1.71048
1.71049
1.71051
1.71053
1.71056
1.71059
1.71064
1.71068
1.71073
1.71079
1.71084
1.71091
1.71097
1.71104
1.7111
1.71117
1.71124
1.71131
1.71138
1.71144
1.71151
1.71157
1.71163
1.71169
1.71175
1.7118
1.71185
1.7119
1.71195
1.712
1.71205
1.71209
1.71214
1.71218
1.71223
1.71228
1.71233
1.71238
1.71243
1.71249
1.71255
1.71262
1.71268
1.71276
1.71283
1.71291
1.713
1.71308
1.71318
1.71327
1.71337
1.71347
1.71357
1.71368
1.71378
1.71389
1.714
1.71411
1.71421
1.71432
1.71442
1.71453
1.71463
1.71473
1.71482
1.71492
1.71501
1.7151
1.71518
1.71527
1.71535
1.71543
1.71551
1.71559
1.71567
1.71576
1.71584
1.71593
1.71602
1.71611
1.71621
1.71631
1.71642
1.71653
1.71665
1.71677
1.7169
1.71704
1.71718
1.71733
1.71748
1.71764
1.7178
1.71797
1.71813
1.7183
1.71847
1.71864
1.71881
1.71898
1.71915
1.71931
1.71947
1.71962
1.71977
1.71991
1.72004
1.72017
1.72029
1.7204
1.7205
1.72059
1.72068
1.72075
1.72082
1.72088
1.72093
1.72098
1.72102
1.72105
1.72107
1.72109
1.72111
1.72112
1.72112
1.72113
1.72113
1.72112
1.72112
1.72111
1.7211
1.72109
1.72108
1.72107
1.72105
1.72104
1.72103
1.72101
1.721
1.72099
1.72097
1.72096
1.72095
1.72094
1.72093
1.72092
1.72092
1.72091
1.72091