# vtk DataFile Version 2.0
LBE two cylinders
ASCII
DATASET STRUCTURED_POINTS
DIMENSIONS 400 100 1
ASPECT_RATIO 1 1 1
ORIGIN 0 0 0
POINT_DATA 40000
SCALARS rho double 1
LOOKUP_TABLE default
1.0582
1.05801
1.0578
1.05759
1.05739
1.05719
1.05698
1.05678
1.05658
1.05638
1.05619
1.05599
1.0558
1.05562
1.05543
1.05525
1.05508
1.0549
1.05474
1.05457
1.05441
1.05426
1.05412
1.05401
1.05392
1.05387
1.05387
1.05395
1.05411
1.0544
1.05485
1.0555
1.05639
1.05755
1.059
1.0607
1.06261
1.06465
1.06672
1.06874
1.07064
1.07235
1.07386
1.07517
1.07629
1.07728
1.07815
1.07895
1.0797
1.08041
1.08109
1.08174
1.08236
1.08294
1.08348
1.08398
1.08444
1.08485
1.08523
1.08558
1.0859
1.0862
1.08649
1.08677
1.08704
1.08731
1.08758
1.08784
1.0881
1.08836
1.08861
1.08885
1.08909
1.08932
1.08953
1.08974
1.08993
1.0901
1.09027
1.09042
1.09055
1.09068
1.09079
1.09089
1.09098
1.09107
1.09114
1.09121
1.09127
1.09133
1.09138
1.09143
1.09147
1.09151
1.09155
1.09157
1.0916
1.09161
1.09162
1.09162
1.09161
1.0916
1.09158
1.09155
1.09151
1.09147
1.09143
1.09137
1.09132
1.09126
1.09119
1.09112
1.09105
1.09097
1.09088
1.09079
1.0907
1.09059
1.09048
1.09035
1.09021
1.09006
1.0899
1.08972
1.08953
1.08933
1.08912
1.08889
1.08865
1.0884
1.08814
1.08788
1.08761
1.08734
1.08707
1.08679
1.08652
1.08624
1.08596
1.08567
1.08536
1.08504
1.0847
1.08432
1.08392
1.08347
1.08298
1.08246
1.0819
1.08131
1.08071
1.0801
1.07951
1.07894
1.07841
1.07793
1.07751
1.07715
1.07687
1.07665
1.07649
1.07639
1.07634
1.07634
1.07637
1.07643
1.07651
1.07662
1.07674
1.07687
1.07701
1.07717
1.07733
1.0775
1.07768
1.07786
1.07805
1.07825
1.07845
1.07867
1.07888
1.07911
1.07934
1.07957
1.07981
1.08006
1.08032
1.08057
1.08084
1.08111
1.08139
1.08168
1.08197
1.08227
1.08257
1.08288
1.0832
1.08352
1.08386
1.0842
1.08454
1.0849
1.08526
1.08563
1.08601
1.08641
1.08681
1.08723
1.08765
1.08809
1.08854
1.08901
1.08948
1.08996
1.09045
1.09094
1.09144
1.09195
1.09246
1.09298
1.09352
1.09407
1.09464
1.09523
1.09585
1.09649
1.09716
1.09785
1.09855
1.09925
1.09994
1.1006
1.10119
1.10165
1.10183
1.10154
1.10045
1.09813
1.09414
1.08808
1.07981
1.06958
1.05806
1.04621
1.03505
1.02538
1.01759
1.01172
1.00754
1.00469
1.00283
1.00166
1.00095
1.00053
1.00029
1.00015
1.00008
1.00004
1.00002
1.00001
1
1
1
1
1
1
1
1
1
1
1
1
1
1
1
1
1
1
1
1
1
1
1
1
1
1
1
1
1
1
1
1
1
1
1
1
1
1
1
1
1
1
1
1
1
1
1
1
1
1
1
1
1
1
1
1
1
1
1
1
1
1
1
1
1
1
1
1
1
1
1
1
1
1
1
1
1
1
1
1
1
1
1
1
1
1
1
1
1
1
1
1
1
1
1
1
1
1
1
1
1
1
1
1
1
1
1
1
1
1
1
1
1
1
1
1
1
1
1
1
1
1
1
1
1
1
1
1
1
1
1
1
1
1
1
1
1
1
1
1
1.05821
1.05801
1.0578
1.0576
1.05739
1.05719
1.05699
1.05679
1.05659
1.05639
1.05619
1.056
1.05581
1.05563
1.05545
1.05527
1.05509
1.05492
1.05476
1.0546
1.05444
1.0543
1.05417
1.05406
1.05398
1.05394
1.05395
1.05404
1.05422
1.05453
1.055
1.05566
1.05654
1.05768
1.05908
1.06073
1.06258
1.06456
1.0666
1.06861
1.07051
1.07226
1.07381
1.07517
1.07635
1.07738
1.0783
1.07912
1.07989
1.08061
1.0813
1.08196
1.0826
1.0832
1.08376
1.08429
1.08478
1.08523
1.08565
1.08604
1.08641
1.08675
1.08707
1.08739
1.08769
1.08798
1.08827
1.08854
1.08881
1.08907
1.08932
1.08956
1.08979
1.09
1.0902
1.09038
1.09055
1.0907
1.09084
1.09096
1.09107
1.09116
1.09124
1.09131
1.09137
1.09142
1.09147
1.0915
1.09154
1.09157
1.09159
1.09161
1.09163
1.09165
1.09166
1.09167
1.09168
1.09168
1.09168
1.09168
1.09167
1.09166
1.09164
1.09162
1.0916
1.09157
1.09154
1.09151
1.09148
1.09144
1.0914
1.09136
1.09132
1.09127
1.09122
1.09116
1.0911
1.09103
1.09094
1.09085
1.09075
1.09063
1.0905
1.09035
1.09018
1.09001
1.08981
1.0896
1.08938
1.08914
1.08889
1.08863
1.08836
1.08808
1.08779
1.0875
1.0872
1.08689
1.08657
1.08624
1.0859
1.08553
1.08514
1.08472
1.08427
1.08379
1.08327
1.08272
1.08214
1.08155
1.08093
1.08032
1.07972
1.07915
1.07861
1.07812
1.07769
1.07732
1.07702
1.07678
1.0766
1.07648
1.07642
1.0764
1.07642
1.07646
1.07654
1.07664
1.07675
1.07688
1.07702
1.07717
1.07733
1.0775
1.07768
1.07786
1.07805
1.07825
1.07845
1.07866
1.07888
1.0791
1.07933
1.07957
1.07981
1.08005
1.08031
1.08057
1.08083
1.0811
1.08138
1.08166
1.08196
1.08225
1.08256
1.08287
1.08318
1.08351
1.08384
1.08418
1.08452
1.08488
1.08524
1.08561
1.08599
1.08638
1.08678
1.0872
1.08762
1.08806
1.08851
1.08896
1.08943
1.08991
1.09039
1.09088
1.09138
1.09188
1.09239
1.09291
1.09345
1.09399
1.09456
1.09514
1.09575
1.09637
1.09702
1.09768
1.09835
1.09902
1.09967
1.10028
1.1008
1.10114
1.10114
1.1006
1.09922
1.09669
1.09266
1.08686
1.07917
1.06973
1.05901
1.04777
1.03691
1.02722
1.0192
1.013
1.00848
1.00535
1.00327
1.00194
1.00112
1.00063
1.00035
1.00019
1.0001
1.00005
1.00002
1.00001
1.00001
1
1
1
1
1
1
1
1
1
1
1
1
1
1
1
1
1
1
1
1
1
1
1
1
1
1
1
1
1
1
1
1
1
1
1
1
1
1
1
1
1
1
1
1
1
1
1
1
1
1
1
1
1
1
1
1
1
1
1
1
1
1
1
1
1
1
1
1
1
1
1
1
1
1
1
1
1
1
1
1
1
1
1
1
1
1
1
1
1
1
1
1
1
1
1
1
1
1
1
1
1
1
1
1
1
1
1
1
1
1
1
1
1
1
1
1
1
1
1
1
1
1
1
1
1
1
1
1
1
1
1
1
1
1
1
1
1
1
1
1.05824
1.05802
1.05781
1.05761
1.0574
1.0572
1.057
1.0568
1.0566
1.0564
1.05621
1.05602
1.05583
1.05565
1.05547
1.05529
1.05512
1.05496
1.05479
1.05464
1.05449
1.05435
1.05423
1.05413
1.05405
1.05402
1.05404
1.05414
1.05434
1.05467
1.05515
1.05581
1.05668
1.0578
1.05916
1.06076
1.06257
1.06453
1.06655
1.06857
1.07051
1.0723
1.07391
1.07534
1.07658
1.07766
1.07862
1.07949
1.08029
1.08104
1.08176
1.08246
1.08313
1.08377
1.08439
1.08499
1.08555
1.08608
1.08657
1.08704
1.08749
1.0879
1.0883
1.08867
1.08903
1.08936
1.08968
1.08998
1.09026
1.09053
1.09077
1.091
1.09121
1.09139
1.09156
1.0917
1.09183
1.09193
1.09202
1.09209
1.09214
1.09218
1.0922
1.09221
1.09221
1.0922
1.09219
1.09217
1.09214
1.09211
1.09209
1.09206
1.09203
1.09201
1.09198
1.09196
1.09194
1.09192
1.09191
1.09189
1.09188
1.09187
1.09187
1.09186
1.09186
1.09187
1.09187
1.09188
1.09189
1.0919
1.09192
1.09193
1.09194
1.09196
1.09196
1.09197
1.09197
1.09196
1.09194
1.0919
1.09186
1.0918
1.09172
1.09163
1.09151
1.09138
1.09123
1.09105
1.09086
1.09064
1.09041
1.09015
1.08988
1.08959
1.08928
1.08895
1.0886
1.08824
1.08786
1.08746
1.08704
1.08659
1.08611
1.08561
1.08508
1.08452
1.08394
1.08333
1.0827
1.08205
1.08141
1.08077
1.08014
1.07954
1.07898
1.07847
1.07801
1.07761
1.07727
1.077
1.07679
1.07664
1.07655
1.0765
1.0765
1.07653
1.07659
1.07667
1.07678
1.0769
1.07703
1.07718
1.07734
1.0775
1.07768
1.07786
1.07805
1.07825
1.07845
1.07866
1.07888
1.0791
1.07933
1.07956
1.0798
1.08005
1.0803
1.08056
1.08082
1.0811
1.08137
1.08166
1.08194
1.08224
1.08254
1.08285
1.08317
1.08349
1.08382
1.08416
1.0845
1.08486
1.08522
1.08559
1.08597
1.08636
1.08676
1.08717
1.08759
1.08802
1.08847
1.08892
1.08938
1.08985
1.09033
1.09082
1.09131
1.09181
1.09232
1.09284
1.09336
1.0939
1.09446
1.09503
1.09562
1.09623
1.09685
1.09748
1.09812
1.09875
1.09935
1.0999
1.10033
1.10055
1.1004
1.09968
1.09814
1.09551
1.09152
1.08597
1.07876
1.06994
1.05986
1.04912
1.03852
1.02884
1.02065
1.01417
1.00936
1.00597
1.00368
1.00221
1.00129
1.00073
1.0004
1.00022
1.00011
1.00006
1.00003
1.00001
1.00001
1
1
1
1
1
1
1
1
1
1
1
1
1
1
1
1
1
1
1
1
1
1
1
1
1
1
1
1
1
1
1
1
1
1
1
1
1
1
1
1
1
1
1
1
1
1
1
1
1
1
1
1
1
1
1
1
1
1
1
1
1
1
1
1
1
1
1
1
1
1
1
1
1
1
1
1
1
1
1
1
1
1
1
1
1
1
1
1
1
1
1
1
1
1
1
1
1
1
1
1
1
1
1
1
1
1
1
1
1
1
1
1
1
1
1
1
1
1
1
1
1
1
1
1
1
1
1
1
1
1
1
1
1
1
1
1
1
1
1
1.05826
1.05804
1.05783
1.05762
1.05742
1.05722
1.05702
1.05682
1.05662
1.05643
1.05624
1.05605
1.05586
1.05568
1.0555
1.05533
1.05516
1.055
1.05484
1.05469
1.05455
1.05441
1.0543
1.0542
1.05413
1.05411
1.05414
1.05425
1.05447
1.05481
1.05531
1.05598
1.05686
1.05796
1.0593
1.06088
1.06266
1.06459
1.06662
1.06866
1.07063
1.07248
1.07417
1.07567
1.07699
1.07815
1.07918
1.0801
1.08096
1.08177
1.08254
1.0833
1.08404
1.08477
1.08548
1.08617
1.08683
1.08747
1.08809
1.08867
1.08922
1.08974
1.09022
1.09068
1.0911
1.09149
1.09184
1.09217
1.09246
1.09272
1.09295
1.09315
1.09333
1.09347
1.09358
1.09367
1.09373
1.09377
1.09378
1.09377
1.09374
1.0937
1.09364
1.09357
1.09349
1.0934
1.0933
1.0932
1.0931
1.093
1.0929
1.0928
1.09271
1.09263
1.09256
1.09249
1.09243
1.09239
1.09235
1.09232
1.09231
1.09231
1.09232
1.09234
1.09237
1.09241
1.09246
1.09252
1.09259
1.09267
1.09275
1.09284
1.09293
1.09302
1.09311
1.0932
1.09328
1.09336
1.09342
1.09348
1.09352
1.09354
1.09354
1.09353
1.09349
1.09342
1.09333
1.09321
1.09306
1.09289
1.09268
1.09244
1.09217
1.09187
1.09154
1.09118
1.09078
1.09035
1.08989
1.08939
1.08886
1.0883
1.08771
1.08709
1.08644
1.08577
1.08508
1.08437
1.08365
1.08294
1.08222
1.08152
1.08085
1.0802
1.07959
1.07903
1.07852
1.07807
1.07768
1.07736
1.0771
1.0769
1.07676
1.07668
1.07664
1.07664
1.07668
1.07674
1.07683
1.07694
1.07706
1.0772
1.07735
1.07751
1.07769
1.07786
1.07805
1.07825
1.07845
1.07866
1.07888
1.0791
1.07933
1.07956
1.0798
1.08005
1.0803
1.08056
1.08082
1.08109
1.08137
1.08165
1.08194
1.08223
1.08253
1.08284
1.08316
1.08348
1.08381
1.08414
1.08449
1.08484
1.0852
1.08557
1.08595
1.08633
1.08673
1.08714
1.08756
1.08799
1.08843
1.08888
1.08934
1.0898
1.09028
1.09076
1.09125
1.09174
1.09225
1.09276
1.09328
1.09382
1.09436
1.09493
1.0955
1.09609
1.09669
1.0973
1.0979
1.0985
1.09905
1.09954
1.0999
1.10002
1.09975
1.09889
1.09719
1.09443
1.0904
1.08495
1.07805
1.06976
1.06031
1.05016
1.03997
1.03043
1.02215
1.01544
1.01034
1.00668
1.00417
1.00253
1.00149
1.00085
1.00048
1.00026
1.00014
1.00007
1.00004
1.00002
1.00001
1
1
1
1
1
1
1
1
1
1
1
1
1
1
1
1
1
1
1
1
1
1
1
1
1
1
1
1
1
1
1
1
1
1
1
1
1
1
1
1
1
1
1
1
1
1
1
1
1
1
1
1
1
1
1
1
1
1
1
1
1
1
1
1
1
1
1
1
1
1
1
1
1
1
1
1
1
1
1
1
1
1
1
1
1
1
1
1
1
1
1
1
1
1
1
1
1
1
1
1
1
1
1
1
1
1
1
1
1
1
1
1
1
1
1
1
1
1
1
1
1
1
1
1
1
1
1
1
1
1
1
1
1
1
1
1
1
1
1
1.05827
1.05806
1.05785
1.05764
1.05744
1.05724
1.05704
1.05685
1.05665
1.05646
1.05627
1.05608
1.0559
1.05572
1.05555
1.05537
1.05521
1.05505
1.05489
1.05475
1.05461
1.05448
1.05437
1.05428
1.05422
1.05421
1.05425
1.05439
1.05463
1.055
1.05553
1.05623
1.05712
1.05822
1.05954
1.06109
1.06285
1.06477
1.0668
1.06888
1.07091
1.07285
1.07463
1.07623
1.07766
1.07892
1.08005
1.08107
1.08201
1.08291
1.08377
1.08463
1.08547
1.08631
1.08714
1.08796
1.08876
1.08953
1.09028
1.091
1.09167
1.0923
1.09289
1.09342
1.09391
1.09434
1.09473
1.09506
1.09535
1.09559
1.09579
1.09595
1.09606
1.09614
1.09618
1.09618
1.09616
1.09611
1.09603
1.09593
1.0958
1.09566
1.0955
1.09533
1.09515
1.09496
1.09477
1.09457
1.09437
1.09418
1.09399
1.09381
1.09365
1.09349
1.09335
1.09323
1.09312
1.09304
1.09297
1.09293
1.09291
1.09292
1.09295
1.09299
1.09307
1.09316
1.09327
1.0934
1.09354
1.0937
1.09387
1.09405
1.09424
1.09443
1.09462
1.09481
1.09499
1.09517
1.09534
1.0955
1.09564
1.09576
1.09586
1.09594
1.096
1.09602
1.09601
1.09597
1.0959
1.09578
1.09563
1.09543
1.09518
1.09489
1.09455
1.09416
1.09372
1.09323
1.09268
1.09209
1.09144
1.09076
1.09003
1.08927
1.08848
1.08766
1.08683
1.086
1.08516
1.08433
1.08352
1.08273
1.08196
1.08123
1.08054
1.0799
1.07931
1.07878
1.07831
1.07791
1.07758
1.07731
1.07711
1.07696
1.07687
1.07683
1.07682
1.07686
1.07692
1.07701
1.07712
1.07724
1.07738
1.07754
1.0777
1.07788
1.07806
1.07825
1.07846
1.07866
1.07888
1.0791
1.07933
1.07956
1.0798
1.08005
1.0803
1.08055
1.08082
1.08109
1.08136
1.08164
1.08193
1.08222
1.08252
1.08283
1.08315
1.08347
1.08379
1.08413
1.08447
1.08482
1.08518
1.08555
1.08593
1.08631
1.08671
1.08712
1.08753
1.08796
1.08839
1.08884
1.08929
1.08976
1.09023
1.09071
1.09119
1.09168
1.09219
1.0927
1.09322
1.09375
1.09429
1.09484
1.0954
1.09597
1.09655
1.09713
1.09771
1.09827
1.09879
1.09923
1.09951
1.09952
1.09909
1.09803
1.09612
1.09318
1.08906
1.08372
1.07714
1.06937
1.06058
1.05108
1.04135
1.03204
1.02372
1.01681
1.01142
1.00747
1.00472
1.00289
1.00172
1.00099
1.00056
1.00031
1.00016
1.00009
1.00004
1.00002
1.00001
1
1
1
1
1
1
1
1
1
1
1
1
1
1
1
1
1
1
1
1
1
1
1
1
1
1
1
1
1
1
1
1
1
1
1
1
1
1
1
1
1
1
1
1
1
1
1
1
1
1
1
1
1
1
1
1
1
1
1
1
1
1
1
1
1
1
1
1
1
1
1
1
1
1
1
1
1
1
1
1
1
1
1
1
1
1
1
1
1
1
1
1
1
1
1
1
1
1
1
1
1
1
1
1
1
1
1
1
1
1
1
1
1
1
1
1
1
1
1
1
1
1
1
1
1
1
1
1
1
1
1
1
1
1
1
1
1
1
1
1.05829
1.05808
1.05788
1.05767
1.05747
1.05727
1.05708
1.05688
1.05669
1.0565
1.05631
1.05613
1.05595
1.05577
1.05559
1.05543
1.05526
1.0551
1.05495
1.05481
1.05468
1.05456
1.05446
1.05438
1.05433
1.05433
1.0544
1.05456
1.05484
1.05525
1.05582
1.05656
1.05747
1.05858
1.0599
1.06144
1.06319
1.06511
1.06717
1.0693
1.07142
1.07346
1.07537
1.07711
1.07868
1.08009
1.08135
1.0825
1.08358
1.0846
1.0856
1.08658
1.08756
1.08853
1.08951
1.09047
1.09142
1.09234
1.09322
1.09406
1.09485
1.09558
1.09625
1.09685
1.09738
1.09783
1.09822
1.09854
1.09879
1.09899
1.09912
1.0992
1.09924
1.09923
1.09917
1.09908
1.09896
1.09881
1.09862
1.09842
1.09819
1.09794
1.09768
1.0974
1.09712
1.09683
1.09653
1.09624
1.09594
1.09566
1.09538
1.09511
1.09486
1.09463
1.09443
1.09425
1.09409
1.09397
1.09388
1.09382
1.0938
1.09381
1.09386
1.09394
1.09405
1.09419
1.09437
1.09457
1.09479
1.09503
1.09529
1.09556
1.09584
1.09613
1.09643
1.09672
1.09701
1.0973
1.09757
1.09784
1.09809
1.09832
1.09853
1.09871
1.09887
1.099
1.0991
1.09916
1.09917
1.09914
1.09907
1.09894
1.09875
1.09849
1.09818
1.09779
1.09733
1.0968
1.0962
1.09553
1.09478
1.09398
1.09313
1.09223
1.09129
1.09032
1.08935
1.08836
1.08738
1.08641
1.08546
1.08453
1.08364
1.08279
1.08198
1.08122
1.08051
1.07986
1.07928
1.07876
1.07832
1.07794
1.07764
1.07741
1.07724
1.07713
1.07707
1.07706
1.07708
1.07713
1.07721
1.07732
1.07744
1.07758
1.07774
1.0779
1.07808
1.07827
1.07847
1.07867
1.07888
1.0791
1.07933
1.07956
1.0798
1.08005
1.0803
1.08055
1.08082
1.08109
1.08136
1.08164
1.08193
1.08222
1.08252
1.08283
1.08314
1.08346
1.08379
1.08412
1.08446
1.08481
1.08517
1.08554
1.08592
1.0863
1.0867
1.0871
1.08751
1.08794
1.08837
1.08881
1.08926
1.08972
1.09019
1.09066
1.09114
1.09163
1.09213
1.09264
1.09316
1.09369
1.09422
1.09476
1.09531
1.09587
1.09642
1.09698
1.09752
1.09804
1.09851
1.09889
1.09907
1.09896
1.09836
1.0971
1.09498
1.09185
1.08764
1.08236
1.07606
1.0688
1.06066
1.05183
1.04264
1.03363
1.02534
1.01826
1.0126
1.00835
1.00534
1.00331
1.00198
1.00116
1.00066
1.00036
1.0002
1.0001
1.00005
1.00003
1.00001
1.00001
1
1
1
1
1
1
1
1
1
1
1
1
1
1
1
1
1
1
1
1
1
1
1
1
1
1
1
1
1
1
1
1
1
1
1
1
1
1
1
1
1
1
1
1
1
1
1
1
1
1
1
1
1
1
1
1
1
1
1
1
1
1
1
1
1
1
1
1
1
1
1
1
1
1
1
1
1
1
1
1
1
1
1
1
1
1
1
1
1
1
1
1
1
1
1
1
1
1
1
1
1
1
1
1
1
1
1
1
1
1
1
1
1
1
1
1
1
1
1
1
1
1
1
1
1
1
1
1
1
1
1
1
1
1
1
1
1
1
1.05832
1.05812
1.05791
1.05771
1.05751
1.05732
1.05712
1.05693
1.05674
1.05655
1.05636
1.05618
1.056
1.05583
1.05565
1.05549
1.05533
1.05517
1.05503
1.05489
1.05477
1.05466
1.05457
1.0545
1.05447
1.05449
1.05459
1.05479
1.05512
1.05558
1.05621
1.057
1.05796
1.0591
1.06043
1.06198
1.06374
1.06569
1.0678
1.07001
1.07224
1.07442
1.0765
1.07843
1.08019
1.08178
1.08323
1.08456
1.08581
1.08699
1.08815
1.08929
1.09042
1.09154
1.09266
1.09376
1.09483
1.09587
1.09686
1.0978
1.09866
1.09945
1.10015
1.10076
1.10128
1.10172
1.10206
1.10233
1.10251
1.10262
1.10267
1.10265
1.10259
1.10247
1.10231
1.10212
1.10189
1.10163
1.10134
1.10103
1.1007
1.10036
1.1
1.09963
1.09925
1.09886
1.09847
1.09808
1.09769
1.09732
1.09695
1.0966
1.09627
1.09597
1.0957
1.09546
1.09525
1.09509
1.09497
1.0949
1.09487
1.09489
1.09496
1.09507
1.09523
1.09542
1.09566
1.09593
1.09622
1.09655
1.09689
1.09726
1.09763
1.09802
1.0984
1.09879
1.09918
1.09956
1.09994
1.1003
1.10065
1.10098
1.1013
1.10159
1.10186
1.10209
1.1023
1.10247
1.10259
1.10267
1.1027
1.10266
1.10256
1.10239
1.10214
1.1018
1.10137
1.10085
1.10024
1.09954
1.09876
1.09789
1.09695
1.09594
1.09489
1.0938
1.09268
1.09155
1.09042
1.08929
1.08818
1.0871
1.08605
1.08503
1.08405
1.08313
1.08225
1.08144
1.08069
1.08002
1.07942
1.07891
1.07847
1.07811
1.07783
1.07762
1.07748
1.07739
1.07735
1.07735
1.07738
1.07745
1.07755
1.07766
1.0778
1.07795
1.07812
1.0783
1.07849
1.07869
1.0789
1.07911
1.07934
1.07957
1.07981
1.08005
1.0803
1.08056
1.08082
1.08109
1.08136
1.08164
1.08193
1.08222
1.08252
1.08283
1.08314
1.08346
1.08378
1.08412
1.08446
1.08481
1.08517
1.08553
1.08591
1.08629
1.08669
1.08709
1.0875
1.08792
1.08835
1.08879
1.08923
1.08969
1.09015
1.09062
1.0911
1.09159
1.09209
1.0926
1.09311
1.09363
1.09416
1.09469
1.09523
1.09576
1.09629
1.09682
1.09733
1.09781
1.09823
1.09853
1.09861
1.09836
1.09759
1.09611
1.09376
1.09044
1.08612
1.08089
1.07485
1.06807
1.06058
1.05244
1.04384
1.03519
1.027
1.01978
1.01386
1.00932
1.00603
1.00377
1.00228
1.00134
1.00077
1.00043
1.00023
1.00012
1.00006
1.00003
1.00002
1.00001
1
1
1
1
1
1
1
1
1
1
1
1
1
1
1
1
1
1
1
1
1
1
1
1
1
1
1
1
1
1
1
1
1
1
1
1
1
1
1
1
1
1
1
1
1
1
1
1
1
1
1
1
1
1
1
1
1
1
1
1
1
1
1
1
1
1
1
1
1
1
1
1
1
1
1
1
1
1
1
1
1
1
1
1
1
1
1
1
1
1
1
1
1
1
1
1
1
1
1
1
1
1
1
1
1
1
1
1
1
1
1
1
1
1
1
1
1
1
1
1
1
1
1
1
1
1
1
1
1
1
1
1
1
1
1
1
1
1
1.05836
1.05816
1.05796
1.05776
1.05756
1.05737
1.05717
1.05698
1.05679
1.05661
1.05642
1.05624
1.05607
1.05589
1.05573
1.05556
1.05541
1.05526
1.05512
1.055
1.05488
1.05479
1.05471
1.05466
1.05466
1.05471
1.05485
1.0551
1.05549
1.05603
1.05673
1.0576
1.05862
1.05982
1.0612
1.06278
1.06458
1.0666
1.06879
1.07112
1.0735
1.07588
1.07816
1.08032
1.08232
1.08415
1.08582
1.08737
1.08881
1.09019
1.09152
1.09281
1.09408
1.09533
1.09656
1.09775
1.0989
1.09999
1.10102
1.10197
1.10283
1.10359
1.10426
1.10482
1.10528
1.10563
1.10589
1.10606
1.10614
1.10614
1.10608
1.10596
1.10578
1.10556
1.10529
1.105
1.10467
1.10432
1.10394
1.10355
1.10314
1.10272
1.10228
1.10183
1.10138
1.10092
1.10046
1.10001
1.09955
1.09911
1.09868
1.09828
1.09789
1.09754
1.09722
1.09693
1.0967
1.09651
1.09637
1.09629
1.09626
1.09628
1.09637
1.0965
1.09669
1.09692
1.0972
1.09751
1.09787
1.09825
1.09865
1.09908
1.09952
1.09997
1.10043
1.10088
1.10134
1.1018
1.10224
1.10268
1.10311
1.10353
1.10393
1.10431
1.10467
1.10501
1.10531
1.10559
1.10582
1.10601
1.10615
1.10623
1.10624
1.10618
1.10603
1.10579
1.10545
1.10501
1.10447
1.10381
1.10306
1.1022
1.10126
1.10023
1.09913
1.09798
1.09678
1.09554
1.09429
1.09303
1.09177
1.09052
1.08929
1.08809
1.08692
1.08579
1.0847
1.08368
1.08272
1.08184
1.08104
1.08033
1.07971
1.07918
1.07874
1.07839
1.07812
1.07792
1.07778
1.07771
1.07768
1.07769
1.07773
1.07781
1.07792
1.07804
1.07819
1.07835
1.07853
1.07872
1.07892
1.07913
1.07936
1.07958
1.07982
1.08006
1.08031
1.08057
1.08083
1.0811
1.08137
1.08165
1.08193
1.08222
1.08252
1.08283
1.08314
1.08346
1.08378
1.08412
1.08446
1.08481
1.08516
1.08553
1.0859
1.08629
1.08668
1.08708
1.08749
1.08791
1.08833
1.08877
1.08921
1.08966
1.09012
1.09059
1.09107
1.09155
1.09205
1.09255
1.09306
1.09358
1.0941
1.09462
1.09514
1.09565
1.09616
1.09666
1.09713
1.09757
1.09793
1.09815
1.09813
1.09773
1.09676
1.09506
1.09246
1.08893
1.0845
1.07932
1.07353
1.06722
1.06036
1.05292
1.04494
1.0367
1.02867
1.02137
1.01521
1.01037
1.00679
1.00429
1.00262
1.00155
1.0009
1.0005
1.00027
1.00015
1.00008
1.00004
1.00002
1.00001
1
1
1
1
1
1
1
1
1
1
1
1
1
1
1
1
1
1
1
1
1
1
1
1
1
1
1
1
1
1
1
1
1
1
1
1
1
1
1
1
1
1
1
1
1
1
1
1
1
1
1
1
1
1
1
1
1
1
1
1
1
1
1
1
1
1
1
1
1
1
1
1
1
1
1
1
1
1
1
1
1
1
1
1
1
1
1
1
1
1
1
1
1
1
1
1
1
1
1
1
1
1
1
1
1
1
1
1
1
1
1
1
1
1
1
1
1
1
1
1
1
1
1
1
1
1
1
1
1
1
1
1
1
1
1
1
1
1
1.05842
1.05822
1.05802
1.05782
1.05762
1.05743
1.05724
1.05705
1.05686
1.05668
1.05649
1.05632
1.05614
1.05597
1.05581
1.05565
1.0555
1.05536
1.05524
1.05512
1.05502
1.05495
1.05489
1.05487
1.0549
1.055
1.0552
1.05552
1.056
1.05664
1.05744
1.05841
1.05953
1.06082
1.06228
1.06395
1.06583
1.06795
1.07027
1.07276
1.07535
1.07795
1.0805
1.08292
1.08519
1.08729
1.08921
1.09099
1.09264
1.09419
1.09566
1.09708
1.09843
1.09974
1.101
1.10219
1.10331
1.10436
1.10533
1.10619
1.10696
1.10761
1.10816
1.1086
1.10893
1.10916
1.10929
1.10933
1.10929
1.10918
1.109
1.10878
1.1085
1.10818
1.10783
1.10746
1.10706
1.10664
1.1062
1.10575
1.10529
1.10481
1.10433
1.10384
1.10334
1.10284
1.10234
1.10185
1.10136
1.10088
1.10041
1.09997
1.09955
1.09917
1.09882
1.09851
1.09826
1.09805
1.09791
1.09782
1.09779
1.09782
1.09791
1.09805
1.09826
1.09851
1.09882
1.09916
1.09954
1.09996
1.1004
1.10086
1.10134
1.10183
1.10232
1.10282
1.10332
1.10381
1.1043
1.10478
1.10526
1.10573
1.10618
1.10662
1.10705
1.10746
1.10785
1.10821
1.10854
1.10883
1.10907
1.10927
1.1094
1.10946
1.10944
1.10933
1.10913
1.10883
1.10841
1.10789
1.10726
1.10652
1.10567
1.10472
1.10369
1.10257
1.10139
1.10014
1.09885
1.09752
1.09616
1.09478
1.0934
1.09202
1.09065
1.0893
1.08799
1.08672
1.08551
1.08437
1.08332
1.08236
1.0815
1.08075
1.0801
1.07955
1.07911
1.07875
1.07848
1.07828
1.07815
1.07807
1.07805
1.07806
1.07812
1.0782
1.07831
1.07845
1.07861
1.07878
1.07897
1.07917
1.07938
1.07961
1.07984
1.08008
1.08032
1.08058
1.08084
1.0811
1.08138
1.08166
1.08194
1.08223
1.08253
1.08283
1.08314
1.08346
1.08379
1.08412
1.08446
1.08481
1.08517
1.08553
1.0859
1.08629
1.08668
1.08708
1.08748
1.0879
1.08832
1.08875
1.08919
1.08963
1.09009
1.09056
1.09103
1.09152
1.09201
1.09251
1.09302
1.09353
1.09404
1.09455
1.09505
1.09555
1.09603
1.0965
1.09693
1.09732
1.09762
1.09775
1.09761
1.09704
1.09587
1.09392
1.09107
1.08733
1.0828
1.07766
1.07213
1.06627
1.06003
1.05328
1.04594
1.03816
1.03034
1.023
1.01663
1.01149
1.00761
1.00486
1.003
1.00179
1.00104
1.00059
1.00032
1.00017
1.00009
1.00005
1.00002
1.00001
1.00001
1
1
1
1
1
1
1
1
1
1
1
1
1
1
1
1
1
1
1
1
1
1
1
1
1
1
1
1
1
1
1
1
1
1
1
1
1
1
1
1
1
1
1
1
1
1
1
1
1
1
1
1
1
1
1
1
1
1
1
1
1
1
1
1
1
1
1
1
1
1
1
1
1
1
1
1
1
1
1
1
1
1
1
1
1
1
1
1
1
1
1
1
1
1
1
1
1
1
1
1
1
1
1
1
1
1
1
1
1
1
1
1
1
1
1
1
1
1
1
1
1
1
1
1
1
1
1
1
1
1
1
1
1
1
1
1
1
1.05848
1.05828
1.05808
1.05789
1.05769
1.0575
1.05731
1.05712
1.05694
1.05675
1.05658
1.0564
1.05623
1.05607
1.05591
1.05576
1.05562
1.05549
1.05538
1.05528
1.05521
1.05515
1.05513
1.05515
1.05523
1.0554
1.05568
1.0561
1.05669
1.05746
1.05841
1.05952
1.06079
1.06221
1.0638
1.06559
1.06762
1.06988
1.07239
1.07508
1.07791
1.08077
1.0836
1.08632
1.08887
1.09123
1.09339
1.09537
1.09718
1.09885
1.10039
1.10183
1.10318
1.10444
1.10561
1.10668
1.10767
1.10856
1.10934
1.11002
1.1106
1.11107
1.11143
1.11169
1.11186
1.11193
1.11192
1.11183
1.11168
1.11147
1.1112
1.11089
1.11054
1.11017
1.10977
1.10934
1.1089
1.10845
1.10798
1.10751
1.10702
1.10653
1.10603
1.10553
1.10503
1.10453
1.10402
1.10353
1.10304
1.10256
1.10211
1.10167
1.10126
1.10089
1.10055
1.10026
1.10001
1.09982
1.09968
1.09959
1.09956
1.09959
1.09968
1.09982
1.10002
1.10027
1.10056
1.10089
1.10127
1.10167
1.1021
1.10255
1.10302
1.10351
1.104
1.1045
1.105
1.1055
1.10599
1.10649
1.10698
1.10746
1.10794
1.10841
1.10887
1.10931
1.10974
1.11015
1.11054
1.1109
1.11122
1.1115
1.11174
1.11191
1.11202
1.11206
1.11201
1.11188
1.11165
1.11132
1.11089
1.11035
1.1097
1.10895
1.1081
1.10715
1.1061
1.10497
1.10375
1.10246
1.1011
1.09969
1.09823
1.09673
1.0952
1.09367
1.09214
1.09063
1.08916
1.08774
1.0864
1.08515
1.084
1.08297
1.08205
1.08126
1.08058
1.08001
1.07955
1.07918
1.0789
1.07869
1.07855
1.07848
1.07845
1.07847
1.07853
1.07862
1.07874
1.07888
1.07905
1.07923
1.07943
1.07964
1.07987
1.0801
1.08034
1.08059
1.08085
1.08112
1.08139
1.08167
1.08195
1.08224
1.08254
1.08284
1.08315
1.08347
1.08379
1.08412
1.08446
1.08481
1.08517
1.08553
1.08591
1.08629
1.08668
1.08707
1.08748
1.08789
1.08831
1.08873
1.08917
1.08961
1.09007
1.09053
1.091
1.09148
1.09197
1.09247
1.09297
1.09348
1.09398
1.09448
1.09496
1.09544
1.0959
1.09633
1.09673
1.09707
1.0973
1.09733
1.09705
1.0963
1.0949
1.09269
1.08959
1.08564
1.08101
1.07594
1.07066
1.06524
1.05961
1.05353
1.04684
1.03956
1.03199
1.02466
1.01811
1.01268
1.00851
1.00549
1.00342
1.00206
1.0012
1.00069
1.00038
1.0002
1.00011
1.00005
1.00003
1.00001
1.00001
1
1
1
1
1
1
1
1
1
1
1
1
1
1
1
1
1
1
1
1
1
1
1
1
1
1
1
1
1
1
1
1
1
1
1
1
1
1
1
1
1
1
1
1
1
1
1
1
1
1
1
1
1
1
1
1
1
1
1
1
1
1
1
1
1
1
1
1
1
1
1
1
1
1
1
1
1
1
1
1
1
1
1
1
1
1
1
1
1
1
1
1
1
1
1
1
1
1
1
1
1
1
1
1
1
1
1
1
1
1
1
1
1
1
1
1
1
1
1
1
1
1
1
1
1
1
1
1
1
1
1
1
1
1
1
1
1
1.05856
1.05836
1.05816
1.05797
1.05777
1.05758
1.05739
1.0572
1.05702
1.05684
1.05667
1.0565
1.05634
1.05618
1.05603
1.05589
1.05577
1.05565
1.05556
1.05549
1.05545
1.05544
1.05546
1.05554
1.0557
1.05596
1.05635
1.05691
1.05766
1.0586
1.05973
1.06103
1.06249
1.0641
1.06588
1.06785
1.07007
1.07253
1.07525
1.07819
1.08127
1.0844
1.08751
1.09049
1.09328
1.09586
1.09819
1.10028
1.10215
1.10383
1.10533
1.10668
1.10789
1.10896
1.10992
1.11076
1.11149
1.11212
1.11264
1.11306
1.11338
1.11361
1.11376
1.11383
1.11382
1.11374
1.1136
1.11341
1.11317
1.11289
1.11256
1.11221
1.11184
1.11144
1.11102
1.11059
1.11014
1.10969
1.10923
1.10876
1.10829
1.10781
1.10733
1.10685
1.10636
1.10588
1.10541
1.10494
1.10448
1.10404
1.10362
1.10322
1.10285
1.10252
1.10222
1.10196
1.10175
1.10158
1.10145
1.10138
1.10136
1.10138
1.10146
1.10158
1.10175
1.10197
1.10223
1.10252
1.10285
1.10322
1.10361
1.10403
1.10446
1.10491
1.10537
1.10584
1.10632
1.10679
1.10727
1.10775
1.10822
1.10869
1.10915
1.10962
1.11007
1.11051
1.11095
1.11137
1.11177
1.11216
1.11252
1.11285
1.11315
1.11341
1.11362
1.11378
1.11389
1.11392
1.11389
1.11378
1.11359
1.11331
1.11293
1.11246
1.11188
1.1112
1.11042
1.10952
1.10851
1.1074
1.10618
1.10485
1.10344
1.10194
1.10036
1.09873
1.09705
1.09535
1.09365
1.09198
1.09035
1.0888
1.08734
1.08598
1.08475
1.08364
1.08267
1.08183
1.08112
1.08052
1.08003
1.07964
1.07934
1.07913
1.07898
1.0789
1.07887
1.07889
1.07896
1.07905
1.07918
1.07933
1.07951
1.0797
1.07991
1.08014
1.08037
1.08062
1.08087
1.08113
1.0814
1.08168
1.08196
1.08225
1.08255
1.08285
1.08316
1.08348
1.0838
1.08413
1.08447
1.08482
1.08518
1.08554
1.08591
1.08629
1.08668
1.08707
1.08748
1.08788
1.0883
1.08872
1.08916
1.0896
1.09005
1.09051
1.09098
1.09146
1.09194
1.09244
1.09293
1.09343
1.09392
1.09441
1.09488
1.09533
1.09576
1.09617
1.09652
1.09681
1.09695
1.09688
1.09645
1.09549
1.09384
1.09135
1.08799
1.08385
1.07914
1.07417
1.06915
1.06418
1.05911
1.05369
1.04764
1.04087
1.03361
1.02634
1.01963
1.01394
1.00946
1.00617
1.00387
1.00235
1.00139
1.00079
1.00044
1.00024
1.00013
1.00007
1.00003
1.00002
1.00001
1
1
1
1
1
1
1
1
1
1
1
1
1
1
1
1
1
1
1
1
1
1
1
1
1
1
1
1
1
1
1
1
1
1
1
1
1
1
1
1
1
1
1
1
1
1
1
1
1
1
1
1
1
1
1
1
1
1
1
1
1
1
1
1
1
1
1
1
1
1
1
1
1
1
1
1
1
1
1
1
1
1
1
1
1
1
1
1
1
1
1
1
1
1
1
1
1
1
1
1
1
1
1
1
1
1
1
1
1
1
1
1
1
1
1
1
1
1
1
1
1
1
1
1
1
1
1
1
1
1
1
1
1
1
1
1
1
1.05866
1.05845
1.05825
1.05806
1.05786
1.05767
1.05748
1.0573
1.05712
1.05695
1.05678
1.05662
1.05646
1.05631
1.05618
1.05606
1.05595
1.05586
1.0558
1.05577
1.05577
1.05582
1.05592
1.05609
1.05635
1.05674
1.05729
1.05803
1.05899
1.06015
1.06152
1.06306
1.06476
1.06662
1.06864
1.07085
1.07329
1.07598
1.07893
1.0821
1.08541
1.08877
1.09209
1.09526
1.09821
1.10088
1.10326
1.10534
1.10714
1.10869
1.11001
1.11113
1.11207
1.11286
1.1135
1.11402
1.11443
1.11473
1.11495
1.11508
1.11513
1.11513
1.11506
1.11495
1.11479
1.11459
1.11436
1.1141
1.11381
1.1135
1.11317
1.11282
1.11245
1.11207
1.11168
1.11127
1.11086
1.11044
1.11001
1.10957
1.10913
1.10869
1.10825
1.10781
1.10737
1.10694
1.10651
1.1061
1.10571
1.10534
1.10499
1.10466
1.10437
1.10411
1.10388
1.10369
1.10353
1.10341
1.10332
1.10327
1.10326
1.10327
1.10333
1.10341
1.10354
1.10369
1.10388
1.10411
1.10436
1.10465
1.10497
1.10531
1.10568
1.10606
1.10646
1.10688
1.1073
1.10773
1.10817
1.1086
1.10904
1.10947
1.1099
1.11033
1.11074
1.11116
1.11156
1.11195
1.11233
1.1127
1.11306
1.1134
1.11371
1.11401
1.11429
1.11453
1.11475
1.11493
1.11507
1.11517
1.11521
1.1152
1.11511
1.11495
1.1147
1.11435
1.1139
1.11333
1.11265
1.11183
1.11087
1.10978
1.10856
1.1072
1.10572
1.10412
1.10243
1.10066
1.09883
1.09697
1.09512
1.0933
1.09154
1.08986
1.08829
1.08685
1.08553
1.08437
1.08334
1.08245
1.08169
1.08106
1.08054
1.08013
1.07981
1.07958
1.07943
1.07934
1.07931
1.07934
1.0794
1.07951
1.07964
1.07981
1.07999
1.0802
1.08042
1.08065
1.0809
1.08116
1.08142
1.0817
1.08198
1.08226
1.08256
1.08286
1.08317
1.08349
1.08381
1.08414
1.08448
1.08483
1.08518
1.08555
1.08592
1.0863
1.08668
1.08708
1.08748
1.08788
1.0883
1.08872
1.08915
1.08959
1.09003
1.09049
1.09096
1.09143
1.09192
1.09241
1.0929
1.09339
1.09387
1.09434
1.09479
1.09522
1.09563
1.09599
1.09631
1.09653
1.09659
1.09639
1.09578
1.0946
1.09268
1.08991
1.08629
1.08197
1.07722
1.07237
1.06763
1.06309
1.05858
1.05378
1.04835
1.04211
1.03518
1.02801
1.02119
1.01526
1.01048
1.0069
1.00438
1.00268
1.00159
1.00092
1.00051
1.00028
1.00015
1.00008
1.00004
1.00002
1.00001
1
1
1
1
1
1
1
1
1
1
1
1
1
1
1
1
1
1
1
1
1
1
1
1
1
1
1
1
1
1
1
1
1
1
1
1
1
1
1
1
1
1
1
1
1
1
1
1
1
1
1
1
1
1
1
1
1
1
1
1
1
1
1
1
1
1
1
1
1
1
1
1
1
1
1
1
1
1
1
1
1
1
1
1
1
1
1
1
1
1
1
1
1
1
1
1
1
1
1
1
1
1
1
1
1
1
1
1
1
1
1
1
1
1
1
1
1
1
1
1
1
1
1
1
1
1
1
1
1
1
1
1
1
1
1
1
1
1.05876
1.05856
1.05836
1.05816
1.05796
1.05778
1.05759
1.05741
1.05724
1.05707
1.05691
1.05675
1.05661
1.05648
1.05636
1.05627
1.05619
1.05614
1.05613
1.05615
1.05623
1.05636
1.05656
1.05685
1.05726
1.05783
1.05859
1.05958
1.06079
1.06224
1.0639
1.06574
1.06774
1.06988
1.07218
1.07464
1.07732
1.08023
1.08337
1.08671
1.09017
1.09367
1.09707
1.1003
1.10325
1.10587
1.10815
1.11007
1.11166
1.11294
1.11397
1.11476
1.11536
1.11579
1.11608
1.11624
1.11631
1.11629
1.11621
1.11607
1.11589
1.11567
1.11544
1.11518
1.11491
1.11464
1.11435
1.11406
1.11377
1.11346
1.11316
1.11284
1.11252
1.11218
1.11184
1.11149
1.11113
1.11076
1.11039
1.11001
1.10962
1.10923
1.10884
1.10846
1.10807
1.1077
1.10734
1.107
1.10668
1.10639
1.10612
1.10589
1.10568
1.10551
1.10536
1.10525
1.10516
1.10509
1.10505
1.10502
1.10501
1.10502
1.10505
1.10509
1.10515
1.10524
1.10535
1.10549
1.10566
1.10586
1.10609
1.10635
1.10663
1.10695
1.10728
1.10763
1.10799
1.10836
1.10874
1.10912
1.1095
1.10988
1.11026
1.11062
1.11099
1.11134
1.11169
1.11203
1.11236
1.11268
1.113
1.1133
1.11361
1.11391
1.1142
1.11449
1.11478
1.11506
1.11533
1.11559
1.11584
1.11605
1.11622
1.11635
1.11642
1.11641
1.11631
1.11611
1.11579
1.11534
1.11475
1.114
1.11309
1.11201
1.11077
1.10937
1.10782
1.10613
1.10433
1.10243
1.10047
1.09848
1.0965
1.09456
1.09268
1.09091
1.08925
1.08772
1.08634
1.0851
1.08402
1.08307
1.08227
1.0816
1.08105
1.08061
1.08028
1.08004
1.07988
1.07979
1.07976
1.07979
1.07986
1.07998
1.08013
1.0803
1.0805
1.08071
1.08095
1.08119
1.08145
1.08172
1.082
1.08228
1.08258
1.08288
1.08319
1.0835
1.08382
1.08416
1.08449
1.08484
1.0852
1.08556
1.08593
1.08631
1.08669
1.08708
1.08748
1.08789
1.0883
1.08872
1.08914
1.08958
1.09002
1.09048
1.09094