# vtk DataFile Version 2.0
LBE two cylinders
ASCII
DATASET STRUCTURED_POINTS
DIMENSIONS 400 100 1
ASPECT_RATIO 1 1 1
ORIGIN 0 0 0
POINT_DATA 40000
SCALARS rho double 1
LOOKUP_TABLE default
1.086
1.0861
1.0862
1.08631
1.0864
1.08648
1.08656
1.08664
1.0867
1.08676
1.08681
1.08686
1.0869
1.08694
1.08697
1.087
1.08702
1.08703
1.08704
1.08705
1.08705
1.08705
1.08704
1.08703
1.08702
1.08701
1.08699
1.08697
1.08695
1.08694
1.08692
1.0869
1.08688
1.08686
1.08685
1.08683
1.08682
1.08682
1.08681
1.08681
1.08682
1.08683
1.08684
1.08686
1.08688
1.08691
1.08694
1.08698
1.08703
1.08708
1.08713
1.0872
1.08727
1.08734
1.08743
1.08752
1.08762
1.08772
1.08784
1.08796
1.08809
1.08823
1.08838
1.08854
1.0887
1.08888
1.08907
1.08926
1.08947
1.08968
1.08991
1.09014
1.09039
1.09064
1.09091
1.09118
1.09146
1.09176
1.09206
1.09236
1.09268
1.093
1.09333
1.09366
1.094
1.09433
1.09467
1.095
1.09532
1.09564
1.09595
1.09625
1.09653
1.0968
1.09704
1.09727
1.09748
1.09767
1.09783
1.09797
1.0981
1.0982
1.09829
1.09836
1.09841
1.09845
1.09848
1.0985
1.09852
1.09853
1.09853
1.09853
1.09853
1.09853
1.09852
1.09852
1.09852
1.09851
1.09851
1.0985
1.0985
1.09849
1.09848
1.09847
1.09846
1.09845
1.09843
1.09841
1.09839
1.09837
1.09835
1.09832
1.09829
1.09825
1.09822
1.09818
1.09814
1.0981
1.09806
1.09802
1.09798
1.09793
1.09789
1.09784
1.0978
1.09775
1.09771
1.09766
1.09762
1.09758
1.09754
1.0975
1.09746
1.09742
1.09739
1.09736
1.09733
1.0973
1.09727
1.09725
1.09722
1.0972
1.09718
1.09716
1.09714
1.09713
1.09711
1.0971
1.09708
1.09706
1.09705
1.09703
1.09701
1.09699
1.09697
1.09695
1.09693
1.0969
1.09687
1.09683
1.0968
1.09676
1.09671
1.09666
1.09661
1.09655
1.09649
1.09641
1.09634
1.09625
1.09616
1.09607
1.09596
1.09585
1.09573
1.09561
1.09548
1.09534
1.09519
1.09504
1.09488
1.09472
1.09455
1.09437
1.09419
1.094
1.09381
1.09362
1.09342
1.09321
1.09301
1.0928
1.09258
1.09237
1.09215
1.09193
1.09171
1.09149
1.09127
1.09104
1.09082
1.09059
1.09037
1.09014
1.08992
1.08969
1.08947
1.08924
1.08902
1.08879
1.08856
1.08833
1.08809
1.08784
1.08759
1.08732
1.08703
1.08673
1.0864
1.08605
1.08565
1.08522
1.08475
1.08422
1.08365
1.08302
1.08233
1.08158
1.08077
1.07991
1.07899
1.07803
1.07702
1.07598
1.07491
1.07382
1.07272
1.07163
1.07054
1.06947
1.06844
1.06745
1.06651
1.06563
1.06482
1.06408
1.06342
1.06284
1.06234
1.06193
1.06158
1.06131
1.0611
1.06094
1.06082
1.06074
1.06068
1.06065
1.06062
1.06061
1.0606
1.06058
1.06057
1.06055
1.06053
1.0605
1.06047
1.06043
1.06039
1.06033
1.06027
1.0602
1.06012
1.06003
1.05993
1.05983
1.05971
1.05958
1.05944
1.0593
1.05915
1.05901
1.05886
1.05872
1.05858
1.05846
1.05835
1.05825
1.05818
1.05812
1.05809
1.05808
1.05809
1.05812
1.05817
1.05824
1.05833
1.05843
1.05854
1.05866
1.05879
1.05892
1.05905
1.05919
1.05933
1.05947
1.05961
1.05975
1.05988
1.06002
1.06016
1.06029
1.06043
1.06057
1.06071
1.06085
1.061
1.06115
1.0613
1.06146
1.06162
1.06179
1.06198
1.06217
1.06237
1.06259
1.06283
1.06308
1.06336
1.06366
1.06398
1.06432
1.0647
1.0651
1.06552
1.06597
1.06645
1.06695
1.06748
1.06802
1.06859
1.06917
1.06976
1.07036
1.07097
1.07158
1.07219
1.07279
1.07339
1.07398
1.07455
1.07512
1.07566
1.0762
1.07671
1.07721
1.0777
1.07817
1.07863
1.07907
1.07951
1.07994
1.08036
1.08077
1.08117
1.08157
1.08197
1.08236
1.08274
1.08312
1.0835
1.08387
1.08424
1.0846
1.08497
1.08533
1.08568
1.08603
1.08638
1.08672
1.08596
1.08607
1.08617
1.08627
1.08636
1.08645
1.08653
1.0866
1.08667
1.08673
1.08678
1.08683
1.08687
1.08691
1.08694
1.08696
1.08698
1.087
1.08701
1.08702
1.08702
1.08702
1.08701
1.087
1.08699
1.08698
1.08696
1.08695
1.08693
1.08691
1.08689
1.08687
1.08686
1.08684
1.08682
1.08681
1.0868
1.0868
1.08679
1.08679
1.0868
1.08681
1.08682
1.08684
1.08686
1.08689
1.08693
1.08697
1.08701
1.08706
1.08712
1.08719
1.08726
1.08734
1.08742
1.08751
1.08761
1.08772
1.08784
1.08796
1.08809
1.08823
1.08838
1.08854
1.08871
1.08889
1.08907
1.08927
1.08947
1.08969
1.08991
1.09015
1.09039
1.09064
1.09091
1.09118
1.09146
1.09175
1.09205
1.09235
1.09266
1.09298
1.0933
1.09363
1.09396
1.09429
1.09462
1.09494
1.09526
1.09558
1.09588
1.09617
1.09645
1.09671
1.09696
1.09719
1.09739
1.09758
1.09774
1.09789
1.09801
1.09812
1.09821
1.09828
1.09834
1.09838
1.09842
1.09844
1.09846
1.09847
1.09848
1.09849
1.09849
1.09849
1.09849
1.09848
1.09848
1.09848
1.09847
1.09847
1.09846
1.09846
1.09845
1.09844
1.09843
1.09842
1.0984
1.09838
1.09836
1.09834
1.09831
1.09828
1.09825
1.09822
1.09819
1.09815
1.09811
1.09807
1.09803
1.09799
1.09794
1.0979
1.09785
1.09781
1.09776
1.09772
1.09767
1.09763
1.09758
1.09754
1.0975
1.09746
1.09742
1.09738
1.09735
1.09732
1.09728
1.09725
1.09723
1.0972
1.09717
1.09715
1.09713
1.09711
1.09709
1.09707
1.09705
1.09704
1.09702
1.097
1.09699
1.09697
1.09695
1.09693
1.09691
1.09688
1.09686
1.09683
1.0968
1.09676
1.09673
1.09669
1.09664
1.09659
1.09654
1.09648
1.09642
1.09635
1.09627
1.09619
1.0961
1.096
1.0959
1.09579
1.09568
1.09556
1.09543
1.09529
1.09515
1.095
1.09485
1.09469
1.09452
1.09435
1.09417
1.09399
1.0938
1.09361
1.09342
1.09322
1.09301
1.09281
1.0926
1.09239
1.09218
1.09197
1.09175
1.09153
1.09132
1.0911
1.09088
1.09066
1.09044
1.09022
1.09
1.08978
1.08956
1.08934
1.08912
1.0889
1.08867
1.08844
1.08821
1.08796
1.08771
1.08744
1.08716
1.08686
1.08653
1.08617
1.08578
1.08534
1.08486
1.08434
1.08376
1.08312
1.08243
1.08168
1.08087
1.08
1.07909
1.07812
1.07711
1.07607
1.075
1.07392
1.07282
1.07173
1.07065
1.06958
1.06856
1.06757
1.06664
1.06576
1.06496
1.06423
1.06357
1.063
1.0625
1.06208
1.06174
1.06146
1.06124
1.06108
1.06095
1.06086
1.0608
1.06076
1.06072
1.0607
1.06068
1.06066
1.06064
1.06062
1.06059
1.06056
1.06052
1.06048
1.06043
1.06037
1.06031
1.06023
1.06015
1.06006
1.05995
1.05984
1.05972
1.05959
1.05946
1.05931
1.05917
1.05902
1.05887
1.05873
1.0586
1.05848
1.05837
1.05828
1.0582
1.05815
1.05812
1.05811
1.05812
1.05815
1.0582
1.05827
1.05835
1.05845
1.05856
1.05868
1.0588
1.05893
1.05906
1.0592
1.05934
1.05948
1.05961
1.05975
1.05989
1.06003
1.06016
1.0603
1.06044
1.06058
1.06072
1.06086
1.06101
1.06116
1.06131
1.06147
1.06164
1.06181
1.06199
1.06219
1.06239
1.06261
1.06285
1.06311
1.06338
1.06368
1.064
1.06435
1.06472
1.06512
1.06554
1.06599
1.06646
1.06696
1.06748
1.06803
1.06859
1.06916
1.06975
1.07034
1.07095
1.07155
1.07216
1.07276
1.07335
1.07394
1.07451
1.07508
1.07562
1.07616
1.07667
1.07717
1.07766
1.07814
1.0786
1.07905
1.07948
1.07992
1.08034
1.08075
1.08116
1.08156
1.08196
1.08235
1.08273
1.08311
1.08349
1.08386
1.08423
1.0846
1.08496
1.08532
1.08567
1.08602
1.08637
1.08671
1.0859
1.08601
1.08611
1.08621
1.0863
1.08638
1.08646
1.08653
1.0866
1.08666
1.08671
1.08676
1.0868
1.08684
1.08687
1.0869
1.08692
1.08694
1.08695
1.08696
1.08696
1.08696
1.08695
1.08695
1.08694
1.08692
1.08691
1.08689
1.08687
1.08686
1.08684
1.08682
1.0868
1.08679
1.08677
1.08676
1.08675
1.08675
1.08674
1.08674
1.08675
1.08676
1.08677
1.08679
1.08682
1.08685
1.08688
1.08692
1.08697
1.08702
1.08708
1.08715
1.08722
1.0873
1.08739
1.08748
1.08758
1.08769
1.08781
1.08794
1.08807
1.08821
1.08836
1.08852
1.08869
1.08887
1.08906
1.08926
1.08946
1.08968
1.0899
1.09014
1.09038
1.09064
1.0909
1.09117
1.09145
1.09174
1.09204
1.09234
1.09265
1.09296
1.09329
1.09361
1.09394
1.09426
1.09459
1.09491
1.09523
1.09554
1.09584
1.09613
1.09641
1.09667
1.09692
1.09714
1.09735
1.09754
1.0977
1.09785
1.09797
1.09808
1.09817
1.09825
1.09831
1.09835
1.09839
1.09841
1.09843
1.09845
1.09846
1.09846
1.09846
1.09846
1.09846
1.09846
1.09846
1.09845
1.09845
1.09844
1.09844
1.09843
1.09842
1.09841
1.09839
1.09838
1.09836
1.09834
1.09832
1.09829
1.09827
1.09824
1.0982
1.09817
1.09813
1.09809
1.09805
1.09801
1.09797
1.09792
1.09788
1.09783
1.09778
1.09774
1.09769
1.09764
1.0976
1.09755
1.09751
1.09746
1.09742
1.09738
1.09734
1.0973
1.09726
1.09722
1.09719
1.09716
1.09713
1.0971
1.09707
1.09704
1.09702
1.097
1.09698
1.09695
1.09693
1.09692
1.0969
1.09688
1.09686
1.09684
1.09682
1.09679
1.09677
1.09675
1.09672
1.09669
1.09666
1.09663
1.09659
1.09655
1.0965
1.09645
1.0964
1.09634
1.09628
1.09621
1.09614
1.09606
1.09598
1.09588
1.09579
1.09568
1.09557
1.09546
1.09533
1.0952
1.09507
1.09492
1.09478
1.09462
1.09446
1.0943
1.09413
1.09396
1.09378
1.0936
1.09341
1.09322
1.09303
1.09283
1.09263
1.09243
1.09223
1.09203
1.09182
1.09162
1.09141
1.0912
1.09099
1.09078
1.09057
1.09037
1.09016
1.08995
1.08974
1.08953
1.08932
1.0891
1.08889
1.08867
1.08844
1.0882
1.08796
1.0877
1.08742
1.08712
1.0868
1.08644
1.08605
1.08562
1.08514
1.08461
1.08403
1.08339
1.08269
1.08194
1.08112
1.08026
1.07933
1.07837
1.07736
1.07631
1.07524
1.07415
1.07306
1.07196
1.07088
1.06982
1.0688
1.06781
1.06688
1.06601
1.06521
1.06448
1.06382
1.06325
1.06275
1.06233
1.06198
1.0617
1.06147
1.0613
1.06116
1.06107
1.06099
1.06094
1.06089
1.06086
1.06083
1.0608
1.06077
1.06074
1.0607
1.06066
1.06062
1.06056
1.06051
1.06044
1.06037
1.06029
1.0602
1.06011
1.06
1.05988
1.05976
1.05963
1.05949
1.05934
1.0592
1.05905
1.05891
1.05877
1.05863
1.05851
1.0584
1.05831
1.05824
1.05819
1.05815
1.05814
1.05815
1.05818
1.05823
1.0583
1.05838
1.05847
1.05858
1.05869
1.05882
1.05894
1.05908
1.05921
1.05935
1.05948
1.05962
1.05976
1.05989
1.06003
1.06017
1.06031
1.06045
1.06059
1.06073
1.06087
1.06102
1.06117
1.06133
1.06149
1.06166
1.06183
1.06202
1.06221
1.06242
1.06264
1.06288
1.06313
1.06341
1.06371
1.06403
1.06437
1.06475
1.06514
1.06556
1.06601
1.06648
1.06698
1.06749
1.06803
1.06859
1.06916
1.06974
1.07033
1.07093
1.07153
1.07213
1.07273
1.07332
1.0739
1.07448
1.07504
1.07558
1.07612
1.07664
1.07714
1.07763
1.07811
1.07857
1.07903
1.07947
1.0799
1.08033
1.08075
1.08116
1.08156
1.08196
1.08235
1.08274
1.08312
1.0835
1.08387
1.08424
1.0846
1.08496
1.08532
1.08568
1.08603
1.08637
1.08671
1.08581
1.08592
1.08602
1.08612
1.08621
1.08629
1.08637
1.08644
1.0865
1.08656
1.08662
1.08667
1.08671
1.08675
1.08678
1.08681
1.08683
1.08685
1.08686
1.08687
1.08688
1.08688
1.08687
1.08687
1.08686
1.08684
1.08683
1.08681
1.0868
1.08678
1.08676
1.08674
1.08673
1.08671
1.0867
1.08668
1.08668
1.08667
1.08667
1.08667
1.08668
1.08669
1.0867
1.08672
1.08674
1.08678
1.08681
1.08685
1.0869
1.08696
1.08702
1.08708
1.08716
1.08724
1.08733
1.08742
1.08753
1.08764
1.08776
1.08789
1.08803
1.08817
1.08833
1.08849
1.08866
1.08884
1.08903
1.08923
1.08944
1.08966
1.08988
1.09012
1.09037
1.09062
1.09088
1.09115
1.09143
1.09172
1.09202
1.09232
1.09263
1.09295
1.09327
1.09359
1.09392
1.09424
1.09457
1.09489
1.09521
1.09552
1.09582
1.09611
1.09639
1.09665
1.0969
1.09713
1.09734
1.09752
1.09769
1.09784
1.09796
1.09807
1.09816
1.09824
1.0983
1.09834
1.09838
1.09841
1.09843
1.09844
1.09845
1.09845
1.09845
1.09845
1.09845
1.09844
1.09844
1.09843
1.09843
1.09842
1.09841
1.0984
1.09839
1.09837
1.09835
1.09834
1.09832
1.09829
1.09827
1.09824
1.09821
1.09817
1.09814
1.0981
1.09806
1.09802
1.09798
1.09793
1.09788
1.09784
1.09779
1.09774
1.09769
1.09764
1.09759
1.09754
1.09749
1.09744
1.09739
1.09734
1.0973
1.09725
1.09721
1.09716
1.09712
1.09708
1.09705
1.09701
1.09698
1.09695
1.09692
1.09689
1.09686
1.09683
1.09681
1.09678
1.09676
1.09674
1.09672
1.09669
1.09667
1.09665
1.09663
1.0966
1.09658
1.09655
1.09652
1.09649
1.09646
1.09643
1.09639
1.09635
1.09631
1.09626
1.09621
1.09615
1.09609
1.09603
1.09596
1.09588
1.0958
1.09572
1.09562
1.09553
1.09542
1.09531
1.0952
1.09507
1.09495
1.09481
1.09468
1.09453
1.09438
1.09423
1.09407
1.09391
1.09374
1.09357
1.0934
1.09322
1.09304
1.09286
1.09268
1.09249
1.0923
1.09211
1.09192
1.09173
1.09153
1.09134
1.09115
1.09095
1.09076
1.09057
1.09037
1.09018
1.08998
1.08979
1.08959
1.08939
1.08919
1.08898
1.08877
1.08854
1.08831
1.08806
1.08779
1.0875
1.08718
1.08683
1.08645
1.08602
1.08554
1.08502
1.08444
1.0838
1.0831
1.08234
1.08153
1.08066
1.07973
1.07876
1.07774
1.07669
1.07562
1.07453
1.07343
1.07233
1.07125
1.07019
1.06916
1.06817
1.06724
1.06637
1.06557
1.06483
1.06418
1.0636
1.0631
1.06267
1.06232
1.06202
1.06179
1.0616
1.06146
1.06134
1.06126
1.06119
1.06113
1.06108
1.06104
1.06099
1.06095
1.06091
1.06086
1.06081
1.06075
1.06069
1.06063
1.06055
1.06047
1.06039
1.06029
1.06019
1.06007
1.05995
1.05982
1.05969
1.05955
1.0594
1.05925
1.0591
1.05896
1.05882
1.05869
1.05856
1.05846
1.05837
1.05829
1.05824
1.05821
1.05819
1.0582
1.05823
1.05827
1.05833
1.05841
1.0585
1.0586
1.05871
1.05883
1.05896
1.05909
1.05922
1.05935
1.05949
1.05962
1.05976
1.05989
1.06003
1.06017
1.06031
1.06045
1.06059
1.06074
1.06088
1.06103
1.06118
1.06134
1.0615
1.06167
1.06185
1.06204
1.06223
1.06244
1.06267
1.06291
1.06316
1.06344
1.06374
1.06406
1.06441
1.06477
1.06517
1.06559
1.06603
1.0665
1.06699
1.06751
1.06804
1.06859
1.06916
1.06973
1.07032
1.07091
1.07151
1.07211
1.0727
1.07329
1.07387
1.07444
1.075
1.07555
1.07608
1.0766
1.07711
1.0776
1.07809
1.07856
1.07901
1.07946
1.0799
1.08033
1.08076
1.08117
1.08158
1.08198
1.08237
1.08276
1.08314
1.08352
1.08389
1.08426
1.08462
1.08498
1.08534
1.08569
1.08604
1.08639
1.08673
1.08571
1.08581
1.08591
1.086
1.08609
1.08617
1.08625
1.08632
1.08638
1.08645
1.0865
1.08655
1.0866
1.08664
1.08667
1.0867
1.08672
1.08674
1.08676
1.08677
1.08677
1.08678
1.08677
1.08677
1.08676
1.08675
1.08673
1.08672
1.0867
1.08668
1.08667
1.08665
1.08663
1.08662
1.0866
1.08659
1.08658
1.08658
1.08658
1.08658
1.08658
1.08659
1.08661
1.08663
1.08665
1.08668
1.08672
1.08676
1.08681
1.08687
1.08693
1.087
1.08708
1.08716
1.08725
1.08735
1.08746
1.08757
1.08769
1.08782
1.08796
1.08811
1.08827
1.08844
1.08861
1.08879
1.08899
1.08919
1.0894
1.08962
1.08985
1.09009
1.09033
1.09059
1.09085
1.09113
1.09141
1.0917
1.09199
1.0923
1.09261
1.09292
1.09324
1.09357
1.09389
1.09422
1.09455
1.09487
1.09519
1.09551
1.09581
1.09611
1.09639
1.09665
1.0969
1.09713
1.09734
1.09753
1.0977
1.09785
1.09798
1.09809
1.09818
1.09825
1.09831
1.09836
1.09839
1.09842
1.09843
1.09844
1.09845
1.09845
1.09845
1.09845
1.09844
1.09843
1.09842
1.09842
1.09841
1.09839
1.09838
1.09837
1.09835
1.09833
1.09831
1.09829
1.09826
1.09824
1.09821
1.09817
1.09814
1.0981
1.09806
1.09802
1.09797
1.09793
1.09788
1.09783
1.09778
1.09772
1.09767
1.09762
1.09756
1.09751
1.09745
1.0974
1.09735
1.09729
1.09724
1.09719
1.09714
1.09709
1.09704
1.097
1.09695
1.09691
1.09687
1.09683
1.09679
1.09675
1.09672
1.09669
1.09665
1.09662
1.09659
1.09657
1.09654
1.09651
1.09649
1.09646
1.09644
1.09641
1.09639
1.09636
1.09633
1.09631
1.09628
1.09625
1.09621
1.09618
1.09614
1.0961
1.09606
1.09601
1.09597
1.09591
1.09586
1.09579
1.09573
1.09566
1.09558
1.0955
1.09542
1.09533
1.09523
1.09513
1.09503
1.09491
1.0948
1.09468
1.09455
1.09442
1.09428
1.09414
1.094
1.09385
1.0937
1.09354
1.09338
1.09322
1.09306
1.09289
1.09272
1.09255
1.09238
1.09221
1.09203
1.09186
1.09168
1.09151
1.09133
1.09116
1.09098
1.0908
1.09063
1.09045
1.09028
1.0901
1.08992
1.08974
1.08955
1.08936
1.08917
1.08896
1.08874
1.0885
1.08825
1.08797
1.08767
1.08733
1.08695
1.08653
1.08606
1.08554
1.08496
1.08433
1.08363
1.08287
1.08205
1.08118
1.08025
1.07927
1.07825
1.0772
1.07612
1.07503
1.07392
1.07282
1.07173
1.07067
1.06964
1.06865
1.06772
1.06684
1.06603
1.0653
1.06464
1.06406
1.06355
1.06312
1.06275
1.06244
1.0622
1.06199
1.06183
1.0617
1.0616
1.06151
1.06143
1.06137
1.06131
1.06125
1.06119
1.06113
1.06107
1.06101
1.06094
1.06086
1.06079
1.0607
1.06061
1.06051
1.06041
1.0603
1.06018
1.06005
1.05991
1.05977
1.05963
1.05948
1.05933
1.05918
1.05903
1.05889
1.05876
1.05864
1.05853
1.05844
1.05836
1.05831
1.05827
1.05826
1.05826
1.05828
1.05832
1.05838
1.05845
1.05854
1.05863
1.05874
1.05885
1.05897
1.0591
1.05923
1.05936
1.05949
1.05962
1.05976
1.05989
1.06003
1.06017
1.06031
1.06045
1.06059
1.06074
1.06089
1.06104
1.06119
1.06135
1.06152
1.06169
1.06187
1.06206
1.06226
1.06247
1.06269
1.06294
1.0632
1.06347
1.06377
1.06409
1.06444
1.06481
1.0652
1.06562
1.06606
1.06653
1.06702
1.06752
1.06805
1.0686
1.06916
1.06973
1.07031
1.0709
1.07149
1.07209
1.07268
1.07326
1.07384
1.07441
1.07497
1.07552
1.07605
1.07658
1.07709
1.07759
1.07807
1.07855
1.07901
1.07947
1.07991
1.08035
1.08078
1.0812
1.08161
1.08201
1.0824
1.08279
1.08318
1.08355
1.08392
1.08429
1.08466
1.08501
1.08537
1.08572
1.08607
1.08641
1.08675
1.08558
1.08568
1.08578
1.08587
1.08595
1.08603
1.08611
1.08618
1.08625
1.08631
1.08637
1.08642
1.08646
1.08651
1.08654
1.08657
1.0866
1.08662
1.08664
1.08665
1.08666
1.08666
1.08666
1.08666
1.08665
1.08664
1.08663
1.08661
1.0866
1.08658
1.08656
1.08655
1.08653
1.08652
1.0865
1.08649
1.08648
1.08648
1.08647
1.08648
1.08648
1.08649
1.08651
1.08653
1.08655
1.08658
1.08662
1.08667
1.08672
1.08677
1.08684
1.08691
1.08698
1.08707
1.08716
1.08726
1.08737
1.08749
1.08761
1.08775
1.08789
1.08804
1.0882
1.08837
1.08855
1.08874
1.08893
1.08914
1.08935
1.08957
1.0898
1.09004
1.09029
1.09055
1.09081
1.09109
1.09137
1.09166
1.09195
1.09226
1.09257
1.09289
1.09321
1.09353
1.09386
1.09419
1.09452
1.09485
1.09517
1.09549
1.0958
1.0961
1.09638
1.09665
1.09691
1.09714
1.09736
1.09755
1.09772
1.09787
1.098
1.09811
1.0982
1.09828
1.09833
1.09838
1.09841
1.09843
1.09845
1.09845
1.09846
1.09845
1.09845
1.09844
1.09843
1.09842
1.09841
1.0984
1.09838
1.09837
1.09835
1.09833
1.09831
1.09829
1.09827
1.09824
1.09821
1.09817
1.09814
1.0981
1.09806
1.09802
1.09797
1.09792
1.09787
1.09782
1.09777
1.09771
1.09765
1.0976
1.09754
1.09748
1.09742
1.09736
1.0973
1.09724
1.09718
1.09712
1.09707
1.09701
1.09696
1.0969
1.09685
1.0968
1.09675
1.0967
1.09666
1.09661
1.09657
1.09653
1.09649
1.09645
1.09642
1.09638
1.09635
1.09632
1.09629
1.09626
1.09623
1.0962
1.09617
1.09614
1.09611
1.09608
1.09605
1.09602
1.09599
1.09596
1.09593
1.09589
1.09586
1.09582
1.09578
1.09573
1.09569
1.09564
1.09558
1.09553
1.09547
1.0954
1.09533
1.09526
1.09518
1.0951
1.09501
1.09492
1.09483
1.09473
1.09462
1.09451
1.0944
1.09428
1.09416
1.09403
1.0939
1.09377
1.09364
1.0935
1.09335
1.09321
1.09306
1.09291
1.09276
1.09261
1.09246
1.0923
1.09215
1.092
1.09184
1.09169
1.09153
1.09138
1.09122
1.09107
1.09091
1.09076
1.0906
1.09044
1.09029
1.09013
1.08996
1.08979
1.08961
1.08942
1.08922
1.08901
1.08877
1.08851
1.08822
1.08789
1.08753
1.08712
1.08666
1.08615
1.08557
1.08494
1.08425
1.08349
1.08268
1.0818
1.08087
1.07989
1.07887
1.07781
1.07673
1.07563
1.07452
1.07342
1.07232
1.07126
1.07022
1.06923
1.0683
1.06742
1.06661
1.06587
1.06521
1.06462
1.0641
1.06366
1.06328
1.06296
1.0627
1.06248
1.0623
1.06215
1.06202
1.06191
1.06182
1.06173
1.06165
1.06157
1.06149
1.06142
1.06134
1.06126
1.06117
1.06108
1.06099
1.06089
1.06079
1.06068
1.06057
1.06044
1.06031
1.06018
1.06003
1.05989
1.05973
1.05958
1.05943
1.05928
1.05913
1.05899
1.05885
1.05873
1.05862
1.05853
1.05845
1.05839
1.05836
1.05833
1.05833
1.05835
1.05838
1.05843
1.0585
1.05858
1.05867
1.05877
1.05888
1.05899
1.05911
1.05923
1.05936
1.05949
1.05962
1.05976
1.05989
1.06003
1.06017
1.06031
1.06045
1.06059
1.06074
1.06089
1.06104
1.0612
1.06136
1.06153
1.0617
1.06188
1.06208
1.06228
1.06249
1.06272
1.06297
1.06323
1.06351
1.06381
1.06413
1.06448
1.06485
1.06524
1.06565
1.06609
1.06656
1.06704
1.06755
1.06807
1.06861
1.06917
1.06973
1.07031
1.07089
1.07148
1.07207
1.07265
1.07324
1.07381
1.07438
1.07494
1.07549
1.07603
1.07655
1.07707
1.07757
1.07807
1.07855
1.07902
1.07948
1.07993
1.08038
1.08081
1.08123
1.08165
1.08206
1.08245
1.08284
1.08323
1.0836
1.08398
1.08434
1.0847
1.08506
1.08541
1.08576
1.0861
1.08644
1.08677
1.08544
1.08554
1.08563
1.08572
1.0858
1.08588
1.08596
1.08603
1.0861
1.08616
1.08622
1.08627
1.08632
1.08636
1.0864
1.08644
1.08647
1.08649
1.08651
1.08652
1.08654
1.08654
1.08654
1.08654
1.08654
1.08653
1.08652
1.0865
1.08649
1.08648
1.08646
1.08644
1.08643
1.08641
1.0864
1.08639
1.08638
1.08638
1.08637
1.08638
1.08638
1.08639
1.08641
1.08643
1.08645
1.08648
1.08652
1.08656
1.08661
1.08667
1.08673
1.08681
1.08688
1.08697
1.08706
1.08717
1.08728
1.0874
1.08752
1.08766
1.08781
1.08796
1.08812
1.08829
1.08848
1.08866
1.08886
1.08907
1.08929
1.08951
1.08974
1.08998
1.09023
1.09049
1.09076
1.09103
1.09131
1.0916
1.0919
1.09221
1.09252
1.09283
1.09316
1.09348
1.09381
1.09415
1.09448
1.09481
1.09514
1.09546
1.09578
1.09608
1.09637
1.09665
1.09691
1.09715
1.09737
1.09757
1.09774
1.0979
1.09803
1.09814
1.09823
1.0983
1.09836
1.0984
1.09843
1.09845
1.09846
1.09847
1.09846
1.09846
1.09845
1.09844
1.09843
1.09841
1.0984
1.09838
1.09836
1.09834
1.09832
1.0983
1.09827
1.09824
1.09821
1.09818
1.09814
1.0981
1.09806
1.09802
1.09797
1.09792
1.09787
1.09782
1.09776
1.0977
1.09764
1.09758
1.09752
1.09745
1.09739
1.09732
1.09726
1.09719
1.09713
1.09706
1.097
1.09694
1.09688
1.09681
1.09675
1.0967
1.09664
1.09658
1.09653
1.09648
1.09643
1.09638
1.09633
1.09628
1.09624
1.0962
1.09616
1.09612
1.09608
1.09604
1.09601
1.09597
1.09594
1.09591
1.09587
1.09584
1.09581
1.09578
1.09575
1.09572
1.09569
1.09565
1.09562
1.09558
1.09555
1.09551
1.09547
1.09543
1.09538
1.09534
1.09529
1.09523
1.09518
1.09512
1.09506
1.09499
1.09492
1.09485
1.09477
1.09469
1.09461
1.09452
1.09443
1.09433
1.09423
1.09413
1.09402
1.09391
1.0938
1.09368
1.09356
1.09344
1.09331
1.09319
1.09306
1.09293
1.0928
1.09267
1.09253
1.0924
1.09227
1.09213
1.092
1.09186
1.09173
1.0916
1.09146
1.09133
1.0912
1.09107
1.09094
1.0908
1.09067
1.09053
1.09039
1.09024
1.09008
1.08992
1.08974
1.08954
1.08932
1.08908
1.08881
1.0885
1.08815
1.08775
1.08731
1.0868
1.08624
1.08562
1.08493
1.08418
1.08337
1.08249
1.08156
1.08058
1.07956
1.0785
1.07742
1.07632
1.07521
1.0741
1.07301
1.07194
1.0709
1.06991
1.06897
1.0681
1.06728
1.06654
1.06587
1.06528
1.06475
1.0643
1.06391
1.06358
1.06329
1.06306
1.06285
1.06268
1.06253
1.0624
1.06228
1.06217
1.06206
1.06196
1.06187
1.06177
1.06167
1.06157
1.06147
1.06136
1.06125
1.06114
1.06102
1.06089
1.06076
1.06063
1.06049
1.06034
1.06019
1.06003
1.05987
1.05971
1.05956
1.0594
1.05925
1.05911
1.05897
1.05885
1.05874
1.05864
1.05856
1.0585
1.05846
1.05843
1.05842
1.05843
1.05846
1.0585
1.05856
1.05863
1.05871
1.0588
1.0589
1.05901
1.05913
1.05924
1.05937
1.05949
1.05962
1.05975
1.05989
1.06003
1.06016
1.0603
1.06045
1.06059
1.06074
1.06089
1.06105
1.06121
1.06137
1.06154
1.06172
1.0619
1.0621
1.0623
1.06252
1.06275
1.063
1.06326
1.06355
1.06385
1.06417
1.06452
1.06489
1.06528
1.06569
1.06613
1.06659
1.06707
1.06757
1.06809
1.06863
1.06918
1.06974
1.07031
1.07089
1.07147
1.07205
1.07264
1.07321
1.07379
1.07436
1.07492
1.07547
1.07601
1.07654
1.07706
1.07757
1.07807
1.07856
1.07904
1.07951
1.07997
1.08042
1.08086
1.08129
1.08171
1.08212
1.08252
1.08291
1.08329
1.08367
1.08404
1.0844
1.08476
1.08512
1.08546
1.08581
1.08614
1.08648
1.0868
1.08529
1.08538
1.08547
1.08556
1.08564
1.08572
1.0858
1.08587
1.08594
1.086
1.08606
1.08612
1.08617
1.08622
1.08626
1.0863
1.08633
1.08636
1.08638
1.0864
1.08641
1.08642
1.08642
1.08643
1.08642
1.08642
1.08641
1.0864
1.08639
1.08638
1.08636
1.08635
1.08633
1.08632
1.08631
1.0863
1.08629
1.08628
1.08628
1.08628
1.08629
1.0863
1.08631
1.08633
1.08636
1.08639
1.08642
1.08647
1.08652
1.08657
1.08664
1.08671
1.08679
1.08687
1.08697
1.08707
1.08718
1.0873
1.08743
1.08757
1.08772
1.08787
1.08804
1.08821
1.08839
1.08858
1.08878
1.08899
1.08921
1.08944
1.08967
1.08991
1.09016
1.09042
1.09069
1.09096
1.09124
1.09153
1.09183
1.09213
1.09244
1.09276
1.09309
1.09341
1.09375
1.09408
1.09442
1.09475
1.09509
1.09541
1.09574
1.09605
1.09635
1.09663
1.0969
1.09715
1.09737
1.09758
1.09776
1.09792
1.09805
1.09816
1.09825
1.09833
1.09838
1.09842
1.09845
1.09846
1.09847
1.09847
1.09847
1.09846
1.09844
1.09843
1.09841
1.09839
1.09838
1.09835
1.09833
1.09831
1.09828
1.09825
1.09822
1.09819
1.09815
1.09812
1.09807
1.09803
1.09798
1.09793
1.09788
1.09782
1.09776
1.0977
1.09764
1.09757
1.09751
1.09744
1.09737
1.0973
1.09723
1.09716
1.09709
1.09702
1.09695
1.09688
1.09681
1.09674
1.09667
1.09661
1.09654
1.09648
1.09642
1.09636
1.0963
1.09624
1.09618
1.09613
1.09608
1.09603
1.09598
1.09593
1.09588
1.09584
1.0958
1.09576
1.09572
1.09568
1.09564
1.0956
1.09557
1.09553
1.0955
1.09546
1.09543
1.0954
1.09536
1.09533
1.09529
1.09526
1.09522
1.09519
1.09515
1.09511
1.09507
1.09502
1.09498
1.09493
1.09488
1.09483
1.09477
1.09471
1.09465
1.09459
1.09452
1.09445
1.09438
1.0943
1.09422
1.09414
1.09405
1.09396
1.09387
1.09378
1.09368
1.09358
1.09347
1.09337
1.09326
1.09315
1.09304
1.09293
1.09282
1.09271
1.0926
1.09248
1.09237
1.09226
1.09214
1.09203
1.09192
1.09181
1.0917
1.09159
1.09148
1.09137
1.09126
1.09115
1.09104
1.09092
1.09081
1.09068
1.09055
1.0904
1.09025
1.09007
1.08988
1.08966
1.0894
1.08912
1.08878
1.08841
1.08797
1.08749
1.08694
1.08632
1.08565
1.0849
1.08409
1.08323
1.0823
1.08132
1.0803
1.07925
1.07816
1.07706
1.07595
1.07485
1.07376
1.07269
1.07166
1.07067
1.06973
1.06886
1.06804
1.0673
1.06663
1.06603
1.0655
1.06504
1.06463
1.06429
1.06399
1.06373
1.0635
1.06331
1.06313
1.06297
1.06283
1.06269
1.06256
1.06244
1.06231
1.06219
1.06207
1.06195
1.06182
1.0617
1.06157
1.06143
1.0613
1.06116
1.06101
1.06086
1.0607
1.06054
1.06038
1.06022
1.06005
1.05988
1.05972
1.05956
1.05941
1.05926
1.05912
1.05899
1.05888
1.05878
1.0587
1.05863
1.05858
1.05855
1.05853
1.05853
1.05855
1.05858
1.05863
1.05869
1.05876
1.05885
1.05894
1.05904
1.05915
1.05926
1.05938
1.0595
1.05962
1.05975
1.05989
1.06002
1.06016
1.0603
1.06044
1.06059
1.06074
1.06089
1.06105
1.06121
1.06138
1.06155
1.06173
1.06192
1.06212
1.06233
1.06255
1.06278
1.06303
1.0633
1.06358
1.06389
1.06421
1.06456
1.06493
1.06532
1.06573
1.06617
1.06662
1.0671
1.0676
1.06811
1.06865
1.06919
1.06975
1.07031
1.07088
1.07146
1.07204
1.07262
1.0732
1.07377
1.07434
1.0749
1.07545
1.076
1.07653
1.07706
1.07758
1.07808
1.07858
1.07907
1.07955
1.08001
1.08047
1.08092
1.08135
1.08178
1.08219
1.08259
1.08299
1.08337
1.08375
1.08412
1.08448
1.08483
1.08518
1.08552
1.08586
1.08619
1.08651
1.08683
1.08514
1.08523
1.08531
1.0854
1.08548
1.08556
1.08563
1.08571
1.08578
1.08584
1.0859
1.08596
1.08602
1.08607
1.08611
1.08615
1.08619
1.08622
1.08625
1.08627
1.08629
1.0863
1.08631
1.08632
1.08632
1.08632
1.08631
1.0863
1.0863
1.08628
1.08627
1.08626
1.08625
1.08624
1.08623
1.08622
1.08621
1.0862
1.0862
1.0862
1.08621
1.08622
1.08623
1.08625
1.08627
1.0863
1.08634
1.08638
1.08643
1.08648
1.08655
1.08662
1.0867
1.08678
1.08688
1.08698
1.08709
1.08721
1.08734
1.08748
1.08763
1.08778
1.08795
1.08812
1.08831
1.0885
1.0887
1.08891
1.08913
1.08935
1.08959
1.08983
1.09008
1.09034
1.0906
1.09088
1.09116
1.09144
1.09174
1.09204
1.09235
1.09267
1.09299
1.09332
1.09366
1.09399
1.09433
1.09467
1.09501
1.09534
1.09567
1.09599
1.0963
1.09659
1.09687
1.09712
1.09736
1.09757
1.09776
1.09792
1.09806
1.09817
1.09826
1.09834
1.09839
1.09843
1.09845
1.09847
1.09847
1.09847
1.09846
1.09845
1.09843
1.09841
1.09839
1.09837
1.09835
1.09832
1.09829
1.09827
1.09824
1.0982
1.09817
1.09813
1.09809
1.09804
1.098
1.09795
1.09789
1.09784
1.09778
1.09771
1.09765
1.09758
1.09751
1.09744
1.09737
1.09729
1.09722
1.09714
1.09706
1.09699
1.09691
1.09683
1.09676
1.09668
1.09661
1.09654
1.09646
1.09639
1.09632
1.09626
1.09619
1.09612
1.09606
1.096
1.09594
1.09588
1.09582
1.09577
1.09571
1.09566
1.09561
1.09556
1.09551
1.09547
1.09542
1.09538
1.09534
1.0953
1.09526
1.09522
1.09518
1.09515
1.09511
1.09507
1.09504
1.095
1.09497
1.09493
1.0949
1.09486
1.09482
1.09479
1.09475
1.09471
1.09467
1.09462
1.09458
1.09453
1.09448
1.09443
1.09438
1.09432
1.09426
1.0942
1.09414
1.09408
1.09401
1.09394
1.09386
1.09379
1.09371
1.09363
1.09355
1.09346
1.09338
1.09329
1.0932
1.09311
1.09302
1.09292
1.09283
1.09274
1.09264
1.09255
1.09245
1.09236
1.09227
1.09218
1.09209
1.092
1.09191
1.09182
1.09174
1.09165
1.09156
1.09148
1.09139
1.0913
1.0912
1.0911
1.09099
1.09087
1.09074
1.09059
1.09041
1.09022
1.08998
1.08972
1.0894
1.08905
1.08863
1.08816
1.08763
1.08703
1.08636
1.08563
1.08483
1.08397
1.08305
1.08208
1.08107
1.08002
1.07894
1.07784
1.07674
1.07564
1.07455
1.07349
1.07247
1.07148
1.07055
1.06968
1.06888
1.06814
1.06747
1.06686
1.06633
1.06586
1.06545
1.06508
1.06477
1.06449
1.06424
1.06402
1.06382
1.06364
1.06346
1.0633
1.06314
1.06299
1.06284
1.06269
1.06255
1.0624
1.06225
1.0621
1.06195
1.0618
1.06164
1.06148
1.06131
1.06114
1.06097
1.0608
1.06062
1.06045
1.06027
1.0601
1.05992
1.05976
1.0596
1.05945
1.0593
1.05917
1.05905
1.05895
1.05886
1.05878
1.05873
1.05868
1.05866
1.05865
1.05866
1.05868
1.05871
1.05876
1.05883
1.0589
1.05898
1.05907
1.05917
1.05928
1.05939
1.05951
1.05963
1.05976
1.05989
1.06002
1.06016
1.0603
1.06044
1.06059
1.06074
1.06089
1.06105
1.06122
1.06139
1.06156
1.06174
1.06194
1.06214
1.06235
1.06257
1.06281
1.06307
1.06334
1.06362
1.06393
1.06426
1.0646
1.06497
1.06536
1.06577
1.06621
1.06666
1.06714
1.06763
1.06814
1.06867
1.06921
1.06976
1.07032
1.07088
1.07146
1.07203
1.07261
1.07318
1.07375
1.07432
1.07488
1.07544
1.07599
1.07653
1.07706
1.07759
1.0781
1.07861
1.07911
1.07959
1.08007
1.08053
1.08098
1.08143
1.08186
1.08227
1.08268
1.08308
1.08346
1.08384
1.0842
1.08456
1.08491
1.08525
1.08559
1.08592
1.08624
1.08655
1.08685
1.08498
1.08507
1.08516
1.08524
1.08532
1.0854
1.08547
1.08555
1.08562
1.08568
1.08575
1.08581
1.08587
1.08592
1.08597
1.08601
1.08605
1.08609
1.08612
1.08615
1.08617
1.08619
1.0862
1.08621
1.08622
1.08622
1.08622
1.08622
1.08621
1.08621
1.0862
1.08619
1.08618
1.08617
1.08616
1.08615
1.08615
1.08614
1.08614
1.08614
1.08615
1.08615
1.08617
1.08618
1.08621
1.08624
1.08627
1.08631
1.08636
1.08641
1.08647
1.08654
1.08662
1.0867
1.0868
1.0869
1.08701
1.08713
1.08726
1.08739
1.08754
1.0877
1.08786
1.08803
1.08822
1.08841
1.08861
1.08882
1.08903
1.08926
1.08949
1.08973
1.08998
1.09024
1.0905
1.09077
1.09105
1.09134
1.09163
1.09193
1.09224
1.09256
1.09288
1.09321
1.09354
1.09388
1.09422
1.09456
1.0949
1.09524
1.09558
1.09591
1.09622
1.09653
1.09681
1.09708
1.09732
1.09754
1.09774
1.0979
1.09805
1.09816
1.09826
1.09833
1.09838
1.09842
1.09844
1.09845
1.09846
1.09845
1.09844
1.09842
1.0984
1.09838
1.09836
1.09833
1.09831
1.09828
1.09825
1.09822
1.09818
1.09814
1.0981
1.09806
1.09802
1.09797
1.09791
1.09786
1.0978
1.09774
1.09767
1.0976
1.09753
1.09746
1.09738
1.0973
1.09722
1.09714
1.09706
1.09698
1.0969
1.09681
1.09673
1.09665
1.09657
1.09649
1.09641
1.09633
1.09626
1.09618
1.09611
1.09603
1.09596
1.09589
1.09583
1.09576
1.09569
1.09563
1.09557
1.09551
1.09545
1.09539
1.09534
1.09528
1.09523
1.09518
1.09513
1.09509
1.09504
1.095
1.09495
1.09491
1.09487
1.09483
1.0948
1.09476
1.09472