# vtk DataFile Version 2.0
LBE two cylinders
ASCII
DATASET STRUCTURED_POINTS
DIMENSIONS 400 100 1
ASPECT_RATIO 1 1 1
ORIGIN 0 0 0
POINT_DATA 40000
SCALARS rho double 1
LOOKUP_TABLE default
1.09131
1.09131
1.09131
1.09131
1.09132
1.09133
1.09134
1.09135
1.09136
1.09137
1.09138
1.0914
1.09141
1.09143
1.09144
1.09146
1.09147
1.09149
1.0915
1.09152
1.09153
1.09154
1.09156
1.09157
1.09158
1.09159
1.09161
1.09162
1.09163
1.09164
1.09166
1.09167
1.09169
1.09171
1.09172
1.09174
1.09177
1.09179
1.09182
1.09184
1.09187
1.09191
1.09194
1.09198
1.09203
1.09207
1.09212
1.09218
1.09224
1.0923
1.09237
1.09245
1.09253
1.09262
1.09271
1.09281
1.09292
1.09304
1.09316
1.0933
1.09344
1.09359
1.09375
1.09391
1.09409
1.09428
1.09447
1.09468
1.09489
1.09512
1.09535
1.0956
1.09585
1.09612
1.09639
1.09668
1.09698
1.09728
1.0976
1.09793
1.09826
1.0986
1.09895
1.0993
1.09966
1.10001
1.10037
1.10072
1.10106
1.1014
1.10172
1.10203
1.10232
1.10259
1.10284
1.10306
1.10326
1.10343
1.10358
1.1037
1.10379
1.10385
1.10389
1.1039
1.1039
1.10387
1.10382
1.10376
1.10369
1.1036
1.1035
1.1034
1.10328
1.10316
1.10303
1.1029
1.10277
1.10263
1.10249
1.10235
1.10221
1.10206
1.10192
1.10177
1.10162
1.10147
1.10132
1.10117
1.10102
1.10087
1.10073
1.10058
1.10044
1.10029
1.10016
1.10002
1.09989
1.09976
1.09964
1.09952
1.09941
1.0993
1.0992
1.0991
1.09901
1.09893
1.09885
1.09877
1.0987
1.09864
1.09858
1.09853
1.09848
1.09843
1.09839
1.09835
1.09831
1.09828
1.09825
1.09822
1.09819
1.09816
1.09814
1.09811
1.09809
1.09807
1.09804
1.09802
1.098
1.09797
1.09795
1.09793
1.0979
1.09788
1.09785
1.09782
1.09779
1.09777
1.09774
1.09771
1.09768
1.09765
1.09761
1.09758
1.09755
1.09752
1.09749
1.09746
1.09743
1.0974
1.09738
1.09735
1.09733
1.09731
1.09729
1.09728
1.09726
1.09725
1.09724
1.09724
1.09723
1.09723
1.09722
1.09722
1.09721
1.0972
1.09718
1.09715
1.09711
1.09706
1.09699
1.09689
1.09677
1.09662
1.09643
1.0962
1.09592
1.09559
1.09521
1.09478
1.09429
1.09375
1.09315
1.0925
1.0918
1.09106
1.09028
1.08947
1.08865
1.0878
1.08696
1.08613
1.08531
1.08452
1.08378
1.08308
1.08244
1.08186
1.08136
1.08092
1.08057
1.08029
1.08009
1.07995
1.07988
1.07986
1.07989
1.07996
1.08006
1.08018
1.08031
1.08044
1.08058
1.08071
1.08083
1.08094
1.08104
1.08113
1.0812
1.08126
1.08131
1.08134
1.08136
1.08136
1.08136
1.08134
1.08131
1.08127
1.08122
1.08117
1.08111
1.08105
1.08099
1.08093
1.08087
1.08081
1.08077
1.08073
1.0807
1.08067
1.08066
1.08066
1.08067
1.08068
1.0807
1.08072
1.08075
1.08078
1.08081
1.08084
1.08086
1.08088
1.08089
1.08089
1.08088
1.08086
1.08083
1.08078
1.08073
1.08066
1.08057
1.08047
1.08036
1.08023
1.08009
1.07993
1.07975
1.07956
1.07935
1.07912
1.07887
1.0786
1.07832
1.07801
1.07768
1.07732
1.07695
1.07655
1.07613
1.07569
1.07523
1.07475
1.07424
1.07371
1.07316
1.07259
1.07201
1.0714
1.07078
1.07014
1.06949
1.06882
1.06815
1.06746
1.06677
1.06607
1.06537
1.06467
1.06398
1.06329
1.06261
1.06195
1.0613
1.06067
1.06006
1.05948
1.05893
1.0584
1.0579
1.05744
1.05701
1.05661
1.05624
1.05591
1.0556
1.05533
1.05509
1.05487
1.05468
1.05451
1.05437
1.05424
1.05414
1.05405
1.05399
1.05394
1.0539
1.05388
1.05388
1.05389
1.05391
1.05396
1.05402
1.05409
1.05419
1.05431
1.05445
1.05461
1.05479
1.05501
1.05525
1.05552
1.05582
1.05616
1.05653
1.05693
1.05736
1.05783
1.05834
1.05887
1.05944
1.06003
1.06065
1.06129
1.06195
1.06263
1.06332
1.06402
1.06473
1.06542
1.09131
1.09131
1.09131
1.09131
1.09132
1.09132
1.09133
1.09134
1.09135
1.09136
1.09138
1.09139
1.09141
1.09142
1.09144
1.09145
1.09147
1.09148
1.0915
1.09151
1.09152
1.09154
1.09155
1.09156
1.09158
1.09159
1.0916
1.09161
1.09163
1.09164
1.09165
1.09167
1.09169
1.0917
1.09172
1.09174
1.09176
1.09179
1.09181
1.09184
1.09187
1.09191
1.09194
1.09198
1.09203
1.09207
1.09212
1.09218
1.09224
1.0923
1.09237
1.09245
1.09253
1.09262
1.09271
1.09282
1.09293
1.09304
1.09317
1.0933
1.09344
1.09359
1.09375
1.09392
1.09409
1.09428
1.09447
1.09467
1.09489
1.09511
1.09535
1.09559
1.09584
1.09611
1.09638
1.09666
1.09696
1.09726
1.09757
1.0979
1.09823
1.09856
1.0989
1.09925
1.0996
1.09995
1.1003
1.10064
1.10098
1.10131
1.10162
1.10193
1.10221
1.10248
1.10273
1.10295
1.10315
1.10332
1.10346
1.10358
1.10367
1.10374
1.10378
1.1038
1.1038
1.10377
1.10373
1.10368
1.1036
1.10352
1.10343
1.10333
1.10321
1.1031
1.10298
1.10285
1.10272
1.10258
1.10244
1.10231
1.10216
1.10202
1.10188
1.10173
1.10158
1.10144
1.10129
1.10114
1.10099
1.10085
1.1007
1.10056
1.10041
1.10027
1.10014
1.1
1.09987
1.09975
1.09963
1.09951
1.0994
1.09929
1.09919
1.0991
1.09901
1.09892
1.09884
1.09877
1.0987
1.09864
1.09858
1.09853
1.09848
1.09843
1.09839
1.09835
1.09831
1.09828
1.09825
1.09822
1.09819
1.09816
1.09814
1.09811
1.09809
1.09806
1.09804
1.09802
1.09799
1.09797
1.09795
1.09792
1.0979
1.09787
1.09785
1.09782
1.09779
1.09777
1.09774
1.09771
1.09768
1.09765
1.09762
1.09758
1.09755
1.09752
1.09749
1.09746
1.09744
1.09741
1.09738
1.09736
1.09734
1.09732
1.0973
1.09728
1.09727
1.09726
1.09725
1.09724
1.09724
1.09723
1.09723
1.09722
1.09721
1.0972
1.09718
1.09715
1.09711
1.09705
1.09698
1.09688
1.09675
1.0966
1.0964
1.09616
1.09588
1.09555
1.09517
1.09473
1.09424
1.09369
1.09309
1.09244
1.09174
1.091
1.09022
1.08942
1.08859
1.08776
1.08692
1.0861
1.08529
1.08451
1.08377
1.08308
1.08245
1.08188
1.08139
1.08096
1.08061
1.08034
1.08014
1.08
1.07993
1.07991
1.07993
1.08
1.08009
1.0802
1.08033
1.08046
1.08059
1.08071
1.08083
1.08094
1.08104
1.08112
1.08119
1.08125
1.08129
1.08132
1.08134
1.08134
1.08133
1.08131
1.08128
1.08124
1.0812
1.08114
1.08108
1.08102
1.08096
1.0809
1.08084
1.08078
1.08073
1.08069
1.08066
1.08063
1.08062
1.08061
1.08062
1.08062
1.08064
1.08066
1.08068
1.0807
1.08073
1.08075
1.08076
1.08077
1.08078
1.08077
1.08075
1.08073
1.08069
1.08064
1.08058
1.0805
1.08041
1.08031
1.08019
1.08006
1.07991
1.07975
1.07957
1.07937
1.07916
1.07892
1.07868
1.07841
1.07812
1.07781
1.07748
1.07714
1.07677
1.07638
1.07597
1.07553
1.07508
1.07461
1.07411
1.0736
1.07307
1.07251
1.07194
1.07135
1.07075
1.07013
1.06949
1.06884
1.06819
1.06752
1.06684
1.06616
1.06548
1.06479
1.06411
1.06344
1.06277
1.06212
1.06148
1.06085
1.06025
1.05967
1.05912
1.05859
1.0581
1.05763
1.0572
1.05679
1.05642
1.05608
1.05577
1.05549
1.05524
1.05502
1.05482
1.05464
1.05449
1.05436
1.05425
1.05415
1.05408
1.05402
1.05398
1.05396
1.05395
1.05395
1.05398
1.05402
1.05407
1.05415
1.05424
1.05436
1.05449
1.05465
1.05484
1.05505
1.05529
1.05556
1.05586
1.05619
1.05656
1.05696
1.05739
1.05786
1.05836
1.05889
1.05945
1.06004
1.06065
1.06129
1.06195
1.06262
1.06331
1.064
1.0647
1.06539
1.09129
1.09129
1.0913
1.0913
1.0913
1.09131
1.09132
1.09133
1.09134
1.09135
1.09137
1.09138
1.0914
1.09141
1.09142
1.09144
1.09145
1.09147
1.09148
1.0915
1.09151
1.09152
1.09154
1.09155
1.09156
1.09157
1.09159
1.0916
1.09161
1.09163
1.09164
1.09166
1.09167
1.09169
1.09171
1.09173
1.09175
1.09177
1.0918
1.09183
1.09186
1.09189
1.09192
1.09196
1.09201
1.09205
1.0921
1.09216
1.09222
1.09228
1.09235
1.09243
1.09251
1.0926
1.09269
1.09279
1.0929
1.09302
1.09314
1.09327
1.09341
1.09356
1.09372
1.09388
1.09406
1.09424
1.09444
1.09464
1.09485
1.09507
1.09531
1.09555
1.0958
1.09606
1.09634
1.09662
1.09691
1.09721
1.09752
1.09784
1.09817
1.0985
1.09884
1.09919
1.09953
1.09988
1.10022
1.10056
1.1009
1.10122
1.10154
1.10184
1.10212
1.10239
1.10263
1.10285
1.10305
1.10322
1.10336
1.10348
1.10357
1.10364
1.10368
1.1037
1.1037
1.10368
1.10365
1.10359
1.10352
1.10344
1.10335
1.10325
1.10314
1.10303
1.10291
1.10278
1.10265
1.10252
1.10239
1.10225
1.10211
1.10197
1.10183
1.10168
1.10154
1.10139
1.10124
1.1011
1.10095
1.10081
1.10067
1.10052
1.10038
1.10025
1.10011
1.09998
1.09985
1.09973
1.09961
1.09949
1.09938
1.09928
1.09918
1.09908
1.09899
1.09891
1.09883
1.09876
1.09869
1.09863
1.09857
1.09852
1.09847
1.09842
1.09838
1.09834
1.0983
1.09827
1.09824
1.09821
1.09818
1.09815
1.09813
1.0981
1.09808
1.09805
1.09803
1.09801
1.09798
1.09796
1.09794
1.09791
1.09789
1.09786
1.09784
1.09781
1.09779
1.09776
1.09773
1.0977
1.09767
1.09764
1.09761
1.09758
1.09755
1.09752
1.0975
1.09747
1.09744
1.09741
1.09739
1.09737
1.09734
1.09733
1.09731
1.09729
1.09728
1.09727
1.09726
1.09725
1.09725
1.09724
1.09724
1.09723
1.09722
1.09721
1.09719
1.09716
1.09712
1.09706
1.09698
1.09688
1.09675
1.09659
1.09639
1.09615
1.09586
1.09553
1.09514
1.0947
1.0942
1.09365
1.09305
1.09239
1.09169
1.09095
1.09017
1.08937
1.08855
1.08771
1.08688
1.08606
1.08526
1.08449
1.08376
1.08308
1.08245
1.08189
1.0814
1.08098
1.08064
1.08037
1.08017
1.08004
1.07997
1.07995
1.07997
1.08003
1.08012
1.08023
1.08034
1.08047
1.08059
1.08071
1.08083
1.08093
1.08102
1.0811
1.08117
1.08123
1.08127
1.08129
1.08131
1.08131
1.0813
1.08128
1.08124
1.0812
1.08115
1.0811
1.08103
1.08097
1.08091
1.08084
1.08078
1.08072
1.08067
1.08062
1.08058
1.08055
1.08053
1.08052
1.08051
1.08051
1.08052
1.08053
1.08054
1.08055
1.08056
1.08057
1.08057
1.08057
1.08056
1.08055
1.08052
1.08048
1.08043
1.08037
1.08029
1.08021
1.08011
1.07999
1.07986
1.07972
1.07957
1.07939
1.07921
1.079
1.07879
1.07855
1.0783
1.07803
1.07775
1.07744
1.07712
1.07678
1.07642
1.07604
1.07565
1.07523
1.0748
1.07435
1.07388
1.07339
1.07288
1.07236
1.07182
1.07126
1.07068
1.0701
1.06949
1.06888
1.06825
1.06761
1.06697
1.06632
1.06566
1.065
1.06435
1.0637
1.06305
1.06241
1.06179
1.06118
1.06059
1.06002
1.05947
1.05894
1.05845
1.05798
1.05754
1.05713
1.05675
1.0564
1.05607
1.05578
1.05552
1.05528
1.05506
1.05488
1.05471
1.05456
1.05444
1.05433
1.05425
1.05418
1.05413
1.05409
1.05407
1.05407
1.05408
1.05412
1.05417
1.05424
1.05432
1.05443
1.05456
1.05472
1.0549
1.05511
1.05534
1.05561
1.05591
1.05624
1.0566
1.05699
1.05742
1.05788
1.05838
1.05891
1.05946
1.06005
1.06066
1.06129
1.06195
1.06262
1.0633
1.064
1.06469
1.06538
1.09127
1.09128
1.09128
1.09128
1.09129
1.0913
1.0913
1.09131
1.09133
1.09134
1.09135
1.09136
1.09138
1.09139
1.09141
1.09142
1.09143
1.09145
1.09146
1.09148
1.09149
1.0915
1.09151
1.09153
1.09154
1.09155
1.09156
1.09158
1.09159
1.0916
1.09162
1.09163
1.09165
1.09166
1.09168
1.0917
1.09172
1.09174
1.09177
1.09179
1.09182
1.09186
1.09189
1.09193
1.09197
1.09202
1.09206
1.09212
1.09218
1.09224
1.09231
1.09238
1.09246
1.09255
1.09264
1.09274
1.09284
1.09296
1.09308
1.09321
1.09335
1.0935
1.09365
1.09382
1.09399
1.09417
1.09437
1.09457
1.09478
1.095
1.09523
1.09548
1.09573
1.09599
1.09626
1.09654
1.09683
1.09714
1.09745
1.09776
1.09809
1.09842
1.09876
1.0991
1.09944
1.09979
1.10013
1.10047
1.10081
1.10113
1.10144
1.10174
1.10203
1.10229
1.10253
1.10276
1.10295
1.10312
1.10327
1.10339
1.10348
1.10355
1.10359
1.10361
1.10361
1.10359
1.10356
1.1035
1.10344
1.10336
1.10327
1.10317
1.10306
1.10295
1.10283
1.10271
1.10258
1.10245
1.10232
1.10218
1.10204
1.1019
1.10176
1.10162
1.10148
1.10133
1.10119
1.10105
1.1009
1.10076
1.10062
1.10048
1.10034
1.10021
1.10007
1.09994
1.09982
1.0997
1.09958
1.09946
1.09935
1.09925
1.09915
1.09906
1.09897
1.09889
1.09881
1.09874
1.09867
1.09861
1.09855
1.0985
1.09845
1.0984
1.09836
1.09832
1.09828
1.09825
1.09822
1.09819
1.09816
1.09813
1.0981
1.09808
1.09806
1.09803
1.09801
1.09799
1.09796
1.09794
1.09792
1.0979
1.09787
1.09785
1.09782
1.0978
1.09777
1.09775
1.09772
1.09769
1.09767
1.09764
1.09761
1.09758
1.09755
1.09752
1.0975
1.09747
1.09744
1.09742
1.0974
1.09737
1.09735
1.09734
1.09732
1.09731
1.09729
1.09728
1.09728
1.09727
1.09727
1.09726
1.09726
1.09725
1.09724
1.09723
1.0972
1.09717
1.09713
1.09707
1.09699
1.09689
1.09676
1.09659
1.09639
1.09614
1.09585
1.09551
1.09512
1.09468
1.09418
1.09362
1.09301
1.09236
1.09165
1.09091
1.09013
1.08933
1.08851
1.08767
1.08685
1.08603
1.08523
1.08446
1.08374
1.08307
1.08245
1.0819
1.08141
1.081
1.08066
1.0804
1.0802
1.08007
1.08
1.07998
1.08
1.08006
1.08014
1.08024
1.08035
1.08047
1.08059
1.08071
1.08082
1.08092
1.081
1.08108
1.08114
1.08119
1.08123
1.08125
1.08127
1.08126
1.08125
1.08122
1.08119
1.08114
1.08109
1.08103
1.08097
1.0809
1.08083
1.08076
1.08069
1.08063
1.08057
1.08052
1.08047
1.08043
1.0804
1.08038
1.08036
1.08034
1.08033
1.08033
1.08033
1.08032
1.08032
1.08031
1.0803
1.08028
1.08025
1.08022
1.08017
1.08012
1.08005
1.07997
1.07988
1.07978
1.07966
1.07954
1.07939
1.07924
1.07907
1.07889
1.07869
1.07848
1.07826
1.07802
1.07777
1.0775
1.07721
1.07692
1.0766
1.07627
1.07593
1.07557
1.07519
1.0748
1.0744
1.07397
1.07354
1.07308
1.07261
1.07213
1.07163
1.07111
1.07059
1.07004
1.06948
1.06891
1.06833
1.06774
1.06714
1.06653
1.06591
1.06529
1.06467
1.06405
1.06343
1.06282
1.06222
1.06163
1.06105
1.06049
1.05995
1.05943
1.05894
1.05846
1.05802
1.0576
1.05721
1.05684
1.0565
1.0562
1.05591
1.05565
1.05542
1.05521
1.05503
1.05486
1.05472
1.05459
1.05449
1.0544
1.05433
1.05428
1.05425
1.05423
1.05424
1.05426
1.0543
1.05436
1.05444
1.05454
1.05466
1.05481
1.05498
1.05519
1.05542
1.05568
1.05597
1.05629
1.05665
1.05704
1.05746
1.05792
1.05841
1.05893
1.05948
1.06006
1.06067
1.0613
1.06195
1.06262
1.0633
1.06399
1.06469
1.06539
1.09125
1.09125
1.09126
1.09126
1.09127
1.09127
1.09128
1.09129
1.0913
1.09132
1.09133
1.09134
1.09135
1.09137
1.09138
1.09139
1.09141
1.09142
1.09143
1.09145
1.09146
1.09147
1.09148
1.0915
1.09151
1.09152
1.09153
1.09154
1.09155
1.09157
1.09158
1.09159
1.09161
1.09162
1.09164
1.09166
1.09168
1.0917
1.09172
1.09175
1.09178
1.09181
1.09184
1.09188
1.09191
1.09196
1.092
1.09206
1.09211
1.09217
1.09224
1.09231
1.09238
1.09247
1.09256
1.09266
1.09276
1.09287
1.09299
1.09312
1.09326
1.0934
1.09356
1.09372
1.09389
1.09407
1.09426
1.09446
1.09468
1.0949
1.09513
1.09537
1.09562
1.09588
1.09615
1.09644
1.09673
1.09703
1.09734
1.09765
1.09798
1.09831
1.09865
1.09899
1.09933
1.09968
1.10002
1.10036
1.1007
1.10102
1.10134
1.10164
1.10192
1.10219
1.10243
1.10266
1.10285
1.10303
1.10317
1.10329
1.10339
1.10345
1.1035
1.10352
1.10352
1.1035
1.10346
1.10341
1.10334
1.10326
1.10317
1.10308
1.10297
1.10286
1.10274
1.10262
1.10249
1.10236
1.10223
1.1021
1.10196
1.10183
1.10169
1.10155
1.10141
1.10127
1.10112
1.10098
1.10084
1.1007
1.10056
1.10043
1.10029
1.10016
1.10003
1.0999
1.09977
1.09965
1.09954
1.09943
1.09932
1.09922
1.09912
1.09903
1.09894
1.09886
1.09878
1.09871
1.09864
1.09858
1.09852
1.09847
1.09842
1.09837
1.09833
1.09829
1.09825
1.09822
1.09818
1.09815
1.09813
1.0981
1.09807
1.09805
1.09803
1.098
1.09798
1.09796
1.09794
1.09792
1.09789
1.09787
1.09785
1.09783
1.0978
1.09778
1.09775
1.09773
1.0977
1.09768
1.09765
1.09763
1.0976
1.09757
1.09755
1.09752
1.0975
1.09747
1.09745
1.09743
1.0974
1.09738
1.09737
1.09735
1.09733
1.09732
1.09731
1.0973
1.0973
1.09729
1.09729
1.09728
1.09728
1.09727
1.09726
1.09725
1.09723
1.09719
1.09715
1.09709
1.09701
1.0969
1.09677
1.0966
1.0964
1.09615
1.09586
1.09551
1.09512
1.09467
1.09416
1.0936
1.09299
1.09233
1.09162
1.09088
1.0901
1.08929
1.08847
1.08764
1.08681
1.086
1.0852
1.08444
1.08372
1.08306
1.08245
1.0819
1.08142
1.08102
1.08068
1.08042
1.08023
1.0801
1.08003
1.08
1.08002
1.08007
1.08015
1.08025
1.08035
1.08047
1.08058
1.08069
1.08079
1.08089
1.08097
1.08104
1.0811
1.08115
1.08118
1.0812
1.0812
1.0812
1.08118
1.08115
1.08111
1.08106
1.08101
1.08094
1.08087
1.0808
1.08073
1.08065
1.08058
1.08051
1.08044
1.08037
1.08032
1.08026
1.08022
1.08018
1.08014
1.08011
1.08008
1.08006
1.08004
1.08001
1.07999
1.07996
1.07992
1.07988
1.07984
1.07978
1.07972
1.07964
1.07955
1.07946
1.07935
1.07923
1.07909
1.07895
1.07879
1.07862
1.07844
1.07825
1.07804
1.07782
1.07759
1.07735
1.07709
1.07683
1.07655
1.07626
1.07596
1.07564
1.07532
1.07498
1.07463
1.07427
1.0739
1.07351
1.07311
1.0727
1.07228
1.07184
1.07139
1.07093
1.07045
1.06996
1.06946
1.06895
1.06842
1.06788
1.06733
1.06677
1.06621
1.06563
1.06506
1.06448
1.0639
1.06332
1.06275
1.06219
1.06163
1.06109
1.06056
1.06004
1.05955
1.05908
1.05862
1.0582
1.05779
1.05741
1.05706
1.05673
1.05642
1.05614
1.05589
1.05565
1.05544
1.05525
1.05508
1.05494
1.05481
1.0547
1.05461
1.05454
1.05448
1.05445
1.05444
1.05444
1.05447
1.05451
1.05458
1.05467
1.05478
1.05492
1.05509
1.05528
1.05551
1.05576
1.05604
1.05636
1.05671
1.05709
1.05751
1.05796
1.05845
1.05896
1.05951
1.06009
1.06069
1.06131
1.06196
1.06263
1.06331
1.064
1.0647
1.06541
1.09122
1.09122
1.09123
1.09123
1.09124
1.09125
1.09126
1.09127
1.09128
1.09129
1.0913
1.09131
1.09132
1.09134
1.09135
1.09136
1.09137
1.09139
1.0914
1.09141
1.09142
1.09144
1.09145
1.09146
1.09147
1.09148
1.09149
1.0915
1.09151
1.09152
1.09154
1.09155
1.09156
1.09158
1.09159
1.09161
1.09162
1.09164
1.09166
1.09169
1.09171
1.09174
1.09177
1.0918
1.09184
1.09188
1.09192
1.09197
1.09202
1.09208
1.09214
1.09221
1.09228
1.09236
1.09245
1.09255
1.09265
1.09276
1.09287
1.093
1.09313
1.09327
1.09343
1.09359
1.09376
1.09394
1.09413
1.09433
1.09454
1.09476
1.09499
1.09523
1.09548
1.09574
1.09601
1.09629
1.09658
1.09688
1.09719
1.09751
1.09783
1.09817
1.0985
1.09885
1.09919
1.09954
1.09988
1.10022
1.10056
1.10089
1.10121
1.10151
1.1018
1.10207
1.10232
1.10254
1.10274
1.10292
1.10306
1.10318
1.10328
1.10335
1.10339
1.10341
1.10341
1.10339
1.10335
1.1033
1.10323
1.10315
1.10306
1.10296
1.10286
1.10275
1.10263
1.10251
1.10239
1.10226
1.10213
1.102
1.10187
1.10173
1.1016
1.10146
1.10132
1.10118
1.10105
1.10091
1.10077
1.10063
1.1005
1.10036
1.10023
1.1001
1.09997
1.09984
1.09972
1.0996
1.09949
1.09938
1.09927
1.09917
1.09907
1.09898
1.09889
1.09881
1.09874
1.09866
1.0986
1.09854
1.09848
1.09842
1.09837
1.09833
1.09829
1.09825
1.09821
1.09818
1.09814
1.09812
1.09809
1.09806
1.09804
1.09801
1.09799
1.09797
1.09795
1.09792
1.0979
1.09788
1.09786
1.09784
1.09782
1.0978
1.09778
1.09775
1.09773
1.09771
1.09769
1.09766
1.09764
1.09761
1.09759
1.09757
1.09754
1.09752
1.0975
1.09747
1.09745
1.09743
1.09741
1.09739
1.09738
1.09736
1.09735
1.09734
1.09733
1.09732
1.09732
1.09731
1.09731
1.09731
1.0973
1.0973
1.09729
1.09727
1.09725
1.09722
1.09718
1.09712
1.09703
1.09693
1.09679
1.09662
1.09641
1.09616
1.09587
1.09552
1.09512
1.09466
1.09415
1.09359
1.09297
1.09231
1.0916
1.09085
1.09007
1.08926
1.08844
1.08761
1.08678
1.08597
1.08518
1.08442
1.08371
1.08305
1.08244
1.0819
1.08143
1.08103
1.0807
1.08044
1.08025
1.08012
1.08005
1.08002
1.08003
1.08008
1.08015
1.08024
1.08034
1.08045
1.08055
1.08066
1.08075
1.08084
1.08092
1.08098
1.08103
1.08107
1.0811
1.08112
1.08112
1.08111
1.08109
1.08105
1.08101
1.08095
1.08089
1.08082
1.08075
1.08067
1.08059
1.0805
1.08042
1.08034
1.08026
1.08018
1.08011
1.08004
1.07998
1.07992
1.07986
1.07981
1.07976
1.07971
1.07967
1.07962
1.07957
1.07952
1.07946
1.07939
1.07932
1.07924
1.07915
1.07906
1.07895
1.07883
1.0787
1.07856
1.07841
1.07825
1.07807
1.07789
1.07769
1.07749
1.07727
1.07705
1.07681
1.07657
1.07632
1.07606
1.07579
1.07551
1.07522
1.07493
1.07462
1.07431
1.07399
1.07367
1.07333
1.07298
1.07263
1.07227
1.07189
1.07151
1.07111
1.07071
1.07029
1.06986
1.06942
1.06896
1.0685
1.06802
1.06753
1.06703
1.06652
1.066
1.06548
1.06495
1.06442
1.06388
1.06335
1.06281
1.06229
1.06177
1.06125
1.06075
1.06027
1.05979
1.05934
1.0589
1.05849
1.05809
1.05772
1.05737
1.05704
1.05674
1.05645
1.05619
1.05595
1.05573
1.05554
1.05536
1.0552
1.05507
1.05495
1.05486
1.05478
1.05473
1.05469
1.05468
1.05468
1.05471
1.05476
1.05484
1.05494
1.05507
1.05522
1.0554
1.05562
1.05586
1.05614
1.05645
1.05679
1.05716
1.05757
1.05802
1.0585
1.059
1.05954
1.06011
1.06071
1.06133
1.06198
1.06264
1.06332
1.06401
1.06471
1.06542
1.09119
1.09119
1.0912
1.0912
1.09121
1.09122
1.09123
1.09124
1.09125
1.09126
1.09127
1.09128
1.09129
1.0913
1.09131
1.09133
1.09134
1.09135
1.09136
1.09137
1.09138
1.09139
1.0914
1.09141
1.09142
1.09143
1.09144
1.09145
1.09146
1.09147
1.09148
1.09149
1.0915
1.09151
1.09153
1.09154
1.09156
1.09157
1.09159
1.09161
1.09163
1.09166
1.09168
1.09171
1.09175
1.09178
1.09182
1.09187
1.09191
1.09197
1.09203
1.09209
1.09216
1.09224
1.09232
1.09241
1.09251
1.09261
1.09272
1.09285
1.09298
1.09312
1.09327
1.09342
1.09359
1.09377
1.09396
1.09416
1.09436
1.09458
1.09481
1.09505
1.0953
1.09556
1.09583
1.09611
1.0964
1.0967
1.09701
1.09733
1.09766
1.09799
1.09833
1.09867
1.09901
1.09936
1.09971
1.10005
1.10039
1.10072
1.10105
1.10135
1.10165
1.10192
1.10217
1.1024
1.10261
1.10278
1.10294
1.10306
1.10315
1.10322
1.10327
1.10329
1.10329
1.10326
1.10323
1.10317
1.1031
1.10302
1.10293
1.10284
1.10273
1.10262
1.10251
1.10239
1.10227
1.10214
1.10202
1.10189
1.10176
1.10163
1.10149
1.10136
1.10122
1.10109
1.10095
1.10082
1.10068
1.10055
1.10041
1.10028
1.10015
1.10002
1.0999
1.09977
1.09965
1.09954
1.09942
1.09932
1.09921
1.09911
1.09902
1.09893
1.09884
1.09876
1.09868
1.09861
1.09855
1.09848
1.09843
1.09837
1.09832
1.09828
1.09824
1.0982
1.09816
1.09813
1.0981
1.09807
1.09804
1.09801
1.09799
1.09797
1.09794
1.09792
1.0979
1.09788
1.09786
1.09784
1.09782
1.0978
1.09778
1.09776
1.09774
1.09772
1.0977
1.09768
1.09766
1.09764
1.09762
1.0976
1.09758
1.09756
1.09754
1.09751
1.09749
1.09748
1.09746
1.09744
1.09742
1.09741
1.09739
1.09738
1.09737
1.09736
1.09735
1.09735
1.09734
1.09734
1.09734
1.09734
1.09733
1.09733
1.09732
1.0973
1.09728
1.09725
1.09721
1.09715
1.09706
1.09696
1.09682
1.09665
1.09644
1.09618
1.09588
1.09553
1.09513
1.09467
1.09415
1.09358
1.09296
1.09229
1.09158
1.09082
1.09004
1.08923
1.08841
1.08758
1.08675
1.08594
1.08516
1.0844
1.08369
1.08304
1.08244
1.0819
1.08144
1.08104
1.08072
1.08046
1.08027
1.08014
1.08006
1.08003
1.08004
1.08008
1.08014
1.08022
1.08032
1.08041
1.08051
1.0806
1.08069
1.08077
1.08084
1.0809
1.08094
1.08098
1.081
1.08101
1.081
1.08099
1.08096
1.08092
1.08087
1.08081
1.08074
1.08066
1.08058
1.08049
1.0804
1.08031
1.08021
1.08012
1.08002
1.07993
1.07984
1.07975
1.07967
1.07959
1.07951
1.07943
1.07936
1.07929
1.07921
1.07914
1.07906
1.07898
1.0789
1.07881
1.07871
1.07861
1.07849
1.07837
1.07824
1.0781
1.07795
1.07779
1.07762
1.07744
1.07726
1.07706
1.07685
1.07664
1.07642
1.07619
1.07595
1.07571
1.07546
1.07521
1.07495
1.07469
1.07442
1.07415
1.07387
1.07359
1.0733
1.07301
1.07272
1.07242
1.07211
1.0718
1.07148
1.07115
1.07081
1.07046
1.0701
1.06974
1.06936
1.06897
1.06856
1.06815
1.06772
1.06729
1.06684
1.06638
1.06592
1.06544
1.06496
1.06447
1.06398
1.06349
1.06299
1.0625
1.06201
1.06153
1.06106
1.06059
1.06014
1.0597
1.05928
1.05887
1.05848
1.05811
1.05776
1.05743
1.05712
1.05683
1.05656
1.05631
1.05608
1.05587
1.05569
1.05552
1.05537
1.05525
1.05514
1.05506
1.055
1.05496
1.05495
1.05496
1.05499
1.05505
1.05513
1.05524
1.05538
1.05555
1.05575
1.05599
1.05625
1.05655
1.05688
1.05725
1.05765
1.05809
1.05855
1.05906
1.05959
1.06015
1.06074
1.06136
1.062
1.06266
1.06333
1.06402
1.06473
1.06544
1.09115
1.09115
1.09116
1.09117
1.09118
1.09118
1.09119
1.0912
1.09121
1.09122
1.09123
1.09124
1.09125
1.09126
1.09127
1.09128
1.09129
1.0913
1.09131
1.09132
1.09133
1.09134
1.09135
1.09136
1.09137
1.09137
1.09138
1.09139
1.0914
1.09141
1.09141
1.09142
1.09143
1.09144
1.09145
1.09146
1.09147
1.09149
1.0915
1.09152
1.09154
1.09156
1.09158
1.0916
1.09163
1.09166
1.0917
1.09174
1.09178
1.09183
1.09188
1.09194
1.09201
1.09208
1.09216
1.09225
1.09234
1.09244
1.09255
1.09267
1.0928
1.09293
1.09308
1.09323
1.0934
1.09357
1.09376
1.09395
1.09416
1.09438
1.09461
1.09484
1.09509
1.09535
1.09562
1.0959
1.09619
1.09649
1.0968
1.09711
1.09744
1.09777
1.09811
1.09845
1.0988
1.09914
1.09949
1.09984
1.10018
1.10052
1.10085
1.10116
1.10146
1.10174
1.102
1.10223
1.10244
1.10262
1.10278
1.10291
1.103
1.10307
1.10312
1.10314
1.10314
1.10311
1.10308
1.10302
1.10295
1.10287
1.10278
1.10269
1.10258
1.10247
1.10236
1.10225
1.10213
1.10201
1.10188
1.10176
1.10163
1.1015
1.10137
1.10124
1.10111
1.10098
1.10084
1.10071
1.10058
1.10045
1.10032
1.10019
1.10006
1.09994
1.09981
1.09969
1.09957
1.09946
1.09935
1.09924
1.09914
1.09904
1.09895
1.09886
1.09878
1.0987
1.09862
1.09855
1.09848
1.09842
1.09837
1.09831
1.09826
1.09822
1.09818
1.09814
1.0981
1.09807
1.09804
1.09801
1.09798
1.09796
1.09794
1.09791
1.09789
1.09787
1.09785
1.09783
1.09782
1.0978
1.09778
1.09776
1.09774
1.09773
1.09771
1.09769
1.09767
1.09765
1.09764
1.09762
1.0976
1.09758
1.09756
1.09754
1.09753
1.09751
1.09749
1.09748
1.09746
1.09745
1.09743
1.09742
1.09741
1.0974
1.09739
1.09738
1.09738
1.09737
1.09737
1.09737
1.09737
1.09737
1.09736
1.09736
1.09735
1.09734
1.09732
1.09729
1.09724
1.09718
1.0971
1.09699
1.09685
1.09668
1.09646
1.09621
1.0959
1.09555
1.09514
1.09467
1.09415
1.09358
1.09295
1.09228
1.09156
1.0908
1.09001
1.0892
1.08838
1.08755
1.08672
1.08591
1.08513
1.08438
1.08368
1.08302
1.08243
1.0819
1.08144
1.08105
1.08072
1.08047
1.08028
1.08015
1.08006
1.08003
1.08003
1.08006
1.08012
1.08019
1.08027
1.08036
1.08044
1.08053
1.0806
1.08067
1.08073
1.08078
1.08082
1.08085
1.08086
1.08086
1.08085
1.08082
1.08079
1.08074
1.08068
1.08061
1.08053
1.08045
1.08036
1.08026
1.08016
1.08005
1.07994
1.07983
1.07972
1.07961
1.0795
1.07939
1.07929
1.07918
1.07908
1.07898
1.07887
1.07877
1.07867
1.07857
1.07846
1.07836
1.07824
1.07813
1.07801
1.07788
1.07774
1.0776
1.07745
1.07729
1.07712
1.07694
1.07676
1.07657
1.07637
1.07616
1.07595
1.07573
1.07551
1.07528
1.07504
1.07481
1.07457
1.07433
1.07408
1.07384
1.07359
1.07334
1.0731
1.07285
1.0726
1.07234
1.07209
1.07183
1.07157
1.07131
1.07104
1.07076
1.07048
1.07019
1.0699
1.06959
1.06927
1.06895
1.06861
1.06826
1.0679
1.06753
1.06714
1.06675
1.06634
1.06593
1.0655
1.06507
1.06462
1.06418
1.06372
1.06327
1.06281
1.06235
1.0619
1.06145
1.061
1.06057
1.06014
1.05973
1.05933
1.05894
1.05857
1.05821
1.05788
1.05756
1.05726
1.05698
1.05671
1.05647
1.05625
1.05605
1.05587
1.05571
1.05558
1.05547
1.05538
1.05531
1.05527
1.05525
1.05526
1.0553
1.05537
1.05546
1.05558
1.05574
1.05592
1.05614
1.05639
1.05668
1.057
1.05735
1.05774
1.05817
1.05863
1.05912
1.05965
1.0602
1.06078
1.06139
1.06203
1.06268
1.06336
1.06405
1.06475
1.06545
1.09111
1.09111
1.09112
1.09113
1.09114
1.09115
1.09116
1.09117
1.09117
1.09118
1.09119
1.0912
1.09121
1.09122
1.09123
1.09124
1.09125
1.09126
1.09126
1.09127
1.09128
1.09129
1.09129
1.0913
1.0913
1.09131
1.09132
1.09132
1.09133
1.09133
1.09134
1.09134
1.09135
1.09135
1.09136
1.09137
1.09138
1.09138
1.09139
1.09141
1.09142
1.09144
1.09145
1.09147
1.0915
1.09153
1.09156
1.09159
1.09163
1.09167
1.09172
1.09178
1.09184
1.09191
1.09198
1.09206
1.09215
1.09225
1.09235
1.09247
1.09259
1.09272
1.09287
1.09302
1.09318
1.09335
1.09354
1.09373
1.09393
1.09415
1.09437
1.09461
1.09486
1.09511
1.09538
1.09566
1.09595
1.09624
1.09655
1.09686
1.09719
1.09752
1.09785
1.09819
1.09854
1.09889
1.09924
1.09959
1.09994
1.10028
1.10061
1.10093
1.10123
1.10152
1.10178
1.10203
1.10224
1.10243
1.10259
1.10272
1.10282
1.1029
1.10294
1.10297
1.10296
1.10294
1.1029
1.10285
1.10278
1.1027
1.10261
1.10251
1.10241
1.10231
1.1022
1.10208
1.10197
1.10185
1.10173
1.10161
1.10148
1.10136
1.10123
1.10111
1.10098
1.10085
1.10072
1.10059
1.10046
1.10034
1.10021
1.10008
1.09996
1.09984
1.09972
1.0996
1.09948
1.09937
1.09926
1.09916
1.09906
1.09896
1.09887
1.09878
1.0987
1.09862
1.09855
1.09848
1.09841
1.09835
1.0983
1.09824
1.0982
1.09815
1.09811
1.09807
1.09804
1.098
1.09797
1.09795
1.09792
1.0979
1.09787
1.09785
1.09783
1.09782
1.0978
1.09778
1.09776
1.09775
1.09773
1.09772
1.0977
1.09768
1.09767
1.09765
1.09764
1.09762
1.09761
1.09759
1.09758
1.09756
1.09755
1.09753
1.09752
1.0975
1.09749
1.09748
1.09746
1.09745
1.09744
1.09743
1.09742
1.09742
1.09741
1.0974
1.0974
1.0974
1.0974
1.0974
1.0974
1.0974
1.0974
1.09739
1.09739
1.09737
1.09735
1.09732
1.09728
1.09721
1.09713
1.09702
1.09688
1.09671
1.09649
1.09623
1.09592
1.09556
1.09515
1.09468
1.09416
1.09358
1.09294
1.09226
1.09154
1.09078
1.08998
1.08917
1.08834
1.08751
1.08669
1.08588
1.0851
1.08435
1.08365
1.08301
1.08242
1.08189
1.08143
1.08105
1.08073
1.08047
1.08028
1.08014
1.08006
1.08001
1.08001
1.08003
1.08007
1.08013
1.0802
1.08027
1.08035
1.08042
1.08048
1.08054
1.08059
1.08063
1.08066
1.08067
1.08067
1.08067
1.08064
1.08061
1.08056
1.08051
1.08044
1.08036
1.08027
1.08018
1.08007
1.07996
1.07985
1.07973
1.0796
1.07948
1.07935
1.07922
1.07909
1.07895
1.07882
1.07869
1.07856
1.07843
1.0783
1.07817
1.07804
1.07791
1.07778
1.07764
1.07751
1.07736
1.07722
1.07707
1.07691
1.07674
1.07658
1.0764
1.07622
1.07603
1.07583
1.07563
1.07543
1.07522
1.075
1.07478
1.07456
1.07434
1.07411
1.07388
1.07366
1.07343
1.07321
1.07298
1.07276
1.07254
1.07232
1.07211
1.07189
1.07168
1.07146
1.07125
1.07103
1.07082
1.0706
1.07037
1.07015
1.06991
1.06967
1.06942
1.06917
1.0689
1.06862
1.06834
1.06804
1.06773
1.06741
1.06708
1.06674
1.06638
1.06602
1.06564
1.06525
1.06485
1.06445
1.06404
1.06362
1.06319
1.06276
1.06233
1.06191
1.06148
1.06106
1.06064
1.06023
1.05984
1.05945
1.05908
1.05872
1.05837
1.05804
1.05773
1.05743
1.05716
1.0569
1.05667
1.05645
1.05626
1.05609
1.05595
1.05582
1.05573
1.05566
1.05561
1.0556
1.05561
1.05565
1.05572
1.05582
1.05596
1.05612
1.05632
1.05656
1.05683
1.05714
1.05748
1.05786
1.05827
1.05872
1.0592
1.05971
1.06026
1.06084
1.06144
1.06207
1.06272
1.06339
1.06407
1.06477
1.06548
1.09106
1.09107
1.09108
1.09109
1.0911
1.09111
1.09112
1.09113
1.09113
1.09114
1.09115
1.09116
1.09117
1.09117
1.09118
1.09119
1.09119
1.0912
1.09121
1.09121
1.09122
1.09122
1.09123
1.09123
1.09123
1.09124
1.09124
1.09124
1.09124
1.09125
1.09125
1.09125
1.09125
1.09125
1.09125
1.09126
1.09126
1.09127
1.09127
1.09128
1.09129
1.0913
1.09131
1.09133
1.09134
1.09137
1.09139
1.09142
1.09146
1.09149
1.09154
1.09159
1.09164
1.09171
1.09178
1.09185
1.09194
1.09203
1.09213
1.09224
1.09236
1.09249
1.09263
1.09278
1.09294
1.09311
1.09329
1.09348
1.09368
1.09389
1.09412
1.09435
1.09459
1.09485
1.09511
1.09539
1.09567
1.09596
1.09627
1.09658
1.0969
1.09722
1.09756
1.0979
1.09824
1.09859
1.09894
1.09929
1.09964
1.09999
1.10032
1.10065
1.10096
1.10126
1.10153
1.10178
1.10201
1.1022
1.10237
1.10251
1.10261
1.10269
1.10274
1.10276
1.10276
1.10274
1.1027
1.10264
1.10258
1.1025
1.10241
1.10232
1.10222
1.10211
1.102
1.10189
1.10178
1.10167
1.10155
1.10143
1.10132
1.1012
1.10107
1.10095
1.10083
1.10071
1.10058
1.10046
1.10033
1.10021
1.10009
1.09996
1.09984
1.09972
1.09961
1.09949
1.09938
1.09927
1.09916
1.09906
1.09896
1.09887
1.09878
1.09869
1.09861
1.09853
1.09846
1.09839
1.09833
1.09827
1.09822
1.09816
1.09812
1.09807
1.09803
1.098
1.09796
1.09793
1.0979
1.09788
1.09785
1.09783
1.09781
1.09779
1.09777
1.09775
1.09774
1.09772
1.09771
1.09769
1.09768
1.09767
1.09765
1.09764
1.09763