# vtk DataFile Version 2.0
LBE two cylinders
ASCII
DATASET STRUCTURED_POINTS
DIMENSIONS 400 100 1
ASPECT_RATIO 1 1 1
ORIGIN 0 0 0
POINT_DATA 40000
SCALARS rho double 1
LOOKUP_TABLE default
1.09863
1.09833
1.09803
1.09776
1.09751
1.09729
1.0971
1.09693
1.09678
1.09666
1.09655
1.09645
1.09637
1.0963
1.09622
1.09615
1.09608
1.09599
1.09589
1.09577
1.09563
1.09547
1.09528
1.09506
1.09482
1.09455
1.09426
1.09396
1.09364
1.09331
1.09298
1.09265
1.09233
1.09201
1.09171
1.09142
1.09116
1.09091
1.09068
1.09047
1.09028
1.09011
1.08996
1.08983
1.08971
1.08961
1.08953
1.08946
1.08941
1.08937
1.08935
1.08935
1.08935
1.08938
1.08943
1.08949
1.08958
1.08968
1.08981
1.08997
1.09014
1.09035
1.09057
1.09083
1.0911
1.0914
1.09172
1.09206
1.09242
1.0928
1.09319
1.0936
1.09402
1.09445
1.09489
1.09535
1.0958
1.09627
1.09674
1.09721
1.09768
1.09816
1.09864
1.09912
1.0996
1.10008
1.10056
1.10103
1.1015
1.10195
1.1024
1.10283
1.10325
1.10364
1.10401
1.10435
1.10465
1.10492
1.10515
1.10534
1.10549
1.1056
1.10566
1.10568
1.10566
1.10561
1.10552
1.1054
1.10527
1.10512
1.10496
1.1048
1.10464
1.10449
1.10436
1.10425
1.10416
1.1041
1.10407
1.10406
1.10408
1.10412
1.10418
1.10426
1.10435
1.10444
1.10453
1.10463
1.10471
1.10479
1.10486
1.10491
1.10495
1.10499
1.105
1.10501
1.10502
1.10501
1.10501
1.105
1.105
1.105
1.10501
1.10503
1.10505
1.10508
1.10512
1.10517
1.10523
1.10529
1.10536
1.10544
1.10551
1.10559
1.10568
1.10577
1.10588
1.10599
1.10613
1.10628
1.10647
1.1067
1.10696
1.10728
1.10765
1.10807
1.10854
1.10907
1.10965
1.11026
1.11091
1.11158
1.11226
1.11295
1.11362
1.11426
1.11487
1.11544
1.11596
1.11642
1.11682
1.11717
1.11745
1.11769
1.11787
1.11801
1.11812
1.11819
1.11825
1.1183
1.11834
1.11838
1.11843
1.1185
1.11858
1.11868
1.1188
1.11895
1.11912
1.11931
1.11954
1.11978
1.12006
1.12035
1.12067
1.12102
1.12138
1.12176
1.12216
1.12258
1.12301
1.12345
1.12391
1.12437
1.12483
1.1253
1.12577
1.12623
1.12668
1.12711
1.12753
1.12792
1.12829
1.12861
1.12889
1.12912
1.12929
1.12939
1.12941
1.12935
1.12918
1.12891
1.12851
1.12799
1.12732
1.12651
1.12554
1.12441
1.12312
1.12167
1.12006
1.11829
1.11639
1.11436
1.11223
1.11
1.10771
1.10538
1.10304
1.10072
1.09843
1.09622
1.09409
1.09207
1.09018
1.08842
1.08682
1.08537
1.08408
1.08296
1.08198
1.08116
1.08048
1.07994
1.07952
1.07921
1.07902
1.07892
1.0789
1.07896
1.07909
1.07928
1.07953
1.07982
1.08015
1.08052
1.08092
1.08135
1.0818
1.08228
1.08277
1.08329
1.08382
1.08436
1.08492
1.08549
1.08607
1.08666
1.08726
1.08787
1.08848
1.08911
1.08974
1.09038
1.09102
1.09168
1.09234
1.09301
1.09369
1.09437
1.09506
1.09575
1.09644
1.09713
1.09783
1.09851
1.09919
1.09985
1.1005
1.10114
1.10176
1.10236
1.10295
1.10351
1.10406
1.1046
1.10512
1.10562
1.10612
1.1066
1.10708
1.10756
1.10803
1.10849
1.10896
1.10942
1.10989
1.11035
1.11081
1.11127
1.11172
1.11217
1.11261
1.11305
1.11348
1.11389
1.11428
1.11465
1.115
1.1153
1.11556
1.11575
1.11585
1.11584
1.11569
1.11537
1.11482
1.11401
1.11289
1.11143
1.10959
1.10738
1.10479
1.10188
1.09872
1.09538
1.09198
1.08863
1.08543
1.08247
1.07984
1.07756
1.07566
1.07415
1.073
1.07219
1.07168
1.07142
1.07137
1.07147
1.07167
1.07188
1.072
1.07191
1.07142
1.07036
1.0685
1.06565
1.06171
1.05667
1.05066
1.04399
1.03705
1.03026
1.02399
1.0185
1.0139
1.01021
1.00734
1.00518
1.0036
1.00246
1.00165
1.00109
1.00071
1.00046
1.00029
1.00018
1.00011
1.00007
1.09868
1.09837
1.09808
1.09781
1.09757
1.09735
1.09715
1.09698
1.09683
1.0967
1.09659
1.09648
1.09639
1.09631
1.09623
1.09614
1.09606
1.09596
1.09585
1.09572
1.09558
1.09541
1.09522
1.095
1.09476
1.0945
1.09422
1.09392
1.09361
1.09329
1.09296
1.09264
1.09232
1.09202
1.09172
1.09144
1.09117
1.09092
1.09069
1.09048
1.0903
1.09012
1.08997
1.08984
1.08972
1.08962
1.08954
1.08947
1.08942
1.08938
1.08936
1.08936
1.08937
1.0894
1.08944
1.08951
1.0896
1.0897
1.08983
1.08999
1.09017
1.09037
1.09059
1.09084
1.09112
1.09141
1.09173
1.09207
1.09242
1.0928
1.09319
1.09359
1.09401
1.09443
1.09487
1.09532
1.09577
1.09623
1.0967
1.09717
1.09764
1.09811
1.09859
1.09906
1.09954
1.10001
1.10048
1.10095
1.10141
1.10186
1.1023
1.10272
1.10313
1.10352
1.10388
1.10421
1.10451
1.10478
1.105
1.10519
1.10534
1.10545
1.10551
1.10553
1.10552
1.10547
1.10539
1.10529
1.10516
1.10502
1.10487
1.10472
1.10458
1.10444
1.10432
1.10421
1.10413
1.10407
1.10404
1.10403
1.10405
1.10409
1.10415
1.10422
1.1043
1.10439
1.10449
1.10458
1.10466
1.10474
1.10481
1.10487
1.10491
1.10495
1.10497
1.10498
1.10499
1.10499
1.10499
1.10499
1.10499
1.105
1.10501
1.10502
1.10505
1.10508
1.10512
1.10517
1.10523
1.10529
1.10536
1.10543
1.10551
1.10559
1.10568
1.10578
1.10588
1.106
1.10614
1.1063
1.10649
1.10672
1.10698
1.1073
1.10766
1.10808
1.10855
1.10907
1.10963
1.11024
1.11087
1.11153
1.11221
1.11288
1.11354
1.11418
1.11479
1.11536
1.11588
1.11635
1.11676
1.11711
1.11741
1.11765
1.11785
1.118
1.11812
1.11821
1.11828
1.11834
1.11839
1.11844
1.11849
1.11856
1.11864
1.11875
1.11887
1.11901
1.11918
1.11938
1.1196
1.11984
1.12011
1.1204
1.12072
1.12105
1.12141
1.12178
1.12218
1.12258
1.123
1.12343
1.12387
1.12432
1.12477
1.12522
1.12566
1.1261
1.12652
1.12693
1.12731
1.12767
1.128
1.12828
1.12852
1.12871
1.12883
1.12889
1.12886
1.12875
1.12854
1.12822
1.12779
1.12724
1.12655
1.12572
1.12475
1.12364
1.12237
1.12096
1.11941
1.11772
1.11591
1.11398
1.11195
1.10984
1.10767
1.10546
1.10324
1.10102
1.09883
1.0967
1.09464
1.09267
1.09081
1.08908
1.08748
1.08603
1.08472
1.08357
1.08256
1.0817
1.08097
1.08039
1.07992
1.07958
1.07934
1.0792
1.07914
1.07917
1.07927
1.07943
1.07965
1.07992
1.08024
1.08059
1.08097
1.08139
1.08183
1.0823
1.08279
1.0833
1.08382
1.08436
1.08491
1.08548
1.08606
1.08665
1.08724
1.08785
1.08847
1.08909
1.08972
1.09036
1.091
1.09166
1.09232
1.09299
1.09366
1.09434
1.09503
1.09572
1.09641
1.0971
1.09778
1.09847
1.09914
1.0998
1.10045
1.10109
1.10171
1.10231
1.1029
1.10346
1.10401
1.10455
1.10507
1.10558
1.10607
1.10656
1.10704
1.10751
1.10798
1.10845
1.10891
1.10937
1.10983
1.11029
1.11075
1.1112
1.11165
1.1121
1.11254
1.11297
1.11339
1.11379
1.11417
1.11454
1.11486
1.11515
1.11538
1.11555
1.11562
1.11558
1.11539
1.11502
1.11444
1.1136
1.11246
1.111
1.10919
1.10703
1.10453
1.10174
1.09869
1.09549
1.09221
1.08897
1.08585
1.08294
1.08031
1.07802
1.07609
1.07452
1.07331
1.07242
1.07184
1.07151
1.07138
1.07141
1.07152
1.07164
1.07166
1.07145
1.07086
1.06971
1.06783
1.06505
1.06127
1.05648
1.05079
1.04443
1.03774
1.03111
1.02489
1.01936
1.01467
1.01086
1.00786
1.00559
1.0039
1.00268
1.00181
1.0012
1.00079
1.00051
1.00033
1.0002
1.00012
1.00007
1.09877
1.09845
1.09816
1.0979
1.09766
1.09744
1.09724
1.09707
1.09691
1.09677
1.09664
1.09653
1.09642
1.09632
1.09622
1.09612
1.09602
1.09591
1.09578
1.09564
1.09549
1.09531
1.09511
1.0949
1.09466
1.09441
1.09413
1.09384
1.09355
1.09324
1.09293
1.09262
1.09231
1.09202
1.09173
1.09145
1.09119
1.09095
1.09072
1.09051
1.09032
1.09015
1.08999
1.08986
1.08974
1.08964
1.08955
1.08949
1.08943
1.0894
1.08937
1.08937
1.08938
1.08941
1.08946
1.08952
1.08961
1.08972
1.08985
1.09
1.09018
1.09038
1.0906
1.09085
1.09112
1.09141
1.09172
1.09205
1.0924
1.09277
1.09315
1.09355
1.09396
1.09438
1.09481
1.09526
1.0957
1.09616
1.09662
1.09708
1.09755
1.09802
1.09849
1.09896
1.09943
1.0999
1.10037
1.10083
1.10128
1.10173
1.10216
1.10258
1.10298
1.10336
1.10372
1.10404
1.10434
1.1046
1.10483
1.10502
1.10516
1.10527
1.10534
1.10537
1.10536
1.10532
1.10525
1.10515
1.10504
1.10491
1.10477
1.10463
1.10449
1.10437
1.10425
1.10416
1.10408
1.10403
1.104
1.10399
1.10401
1.10404
1.1041
1.10417
1.10425
1.10434
1.10443
1.10451
1.1046
1.10468
1.10475
1.10481
1.10486
1.10489
1.10492
1.10494
1.10495
1.10496
1.10497
1.10497
1.10497
1.10498
1.10499
1.10501
1.10504
1.10507
1.10511
1.10516
1.10522
1.10528
1.10535
1.10542
1.1055
1.10558
1.10567
1.10577
1.10588
1.106
1.10614
1.1063
1.1065
1.10672
1.10699
1.1073
1.10766
1.10807
1.10854
1.10905
1.1096
1.1102
1.11082
1.11147
1.11214
1.1128
1.11346
1.1141
1.1147
1.11527
1.1158
1.11627
1.1167
1.11706
1.11737
1.11763
1.11785
1.11802
1.11815
1.11826
1.11834
1.11841
1.11847
1.11853
1.1186
1.11867
1.11876
1.11886
1.11899
1.11913
1.1193
1.11949
1.11971
1.11995
1.12021
1.1205
1.1208
1.12113
1.12147
1.12183
1.12221
1.1226
1.123
1.12341
1.12382
1.12424
1.12465
1.12507
1.12547
1.12586
1.12624
1.12659
1.12692
1.12722
1.12748
1.12769
1.12786
1.12797
1.12801
1.12799
1.12788
1.12769
1.1274
1.12702
1.12653
1.12592
1.1252
1.12435
1.12339
1.12229
1.12108
1.11974
1.11828
1.11671
1.11504
1.11328
1.11143
1.10951
1.10754
1.10553
1.1035
1.10146
1.09944
1.09745
1.09551
1.09364
1.09185
1.09016
1.08858
1.08713
1.0858
1.08461
1.08355
1.08262
1.08183
1.08117
1.08064
1.08022
1.07991
1.0797
1.07959
1.07955
1.0796
1.07971
1.07989
1.08012
1.0804
1.08072
1.08108
1.08148
1.0819
1.08235
1.08283
1.08333
1.08384
1.08437
1.08492
1.08548
1.08606
1.08664
1.08724
1.08784
1.08845
1.08907
1.0897
1.09034
1.09099
1.09164
1.0923
1.09296
1.09364
1.09432
1.095
1.09568
1.09637
1.09706
1.09774
1.09842
1.09909
1.09975
1.1004
1.10104
1.10166
1.10226
1.10284
1.10341
1.10396
1.1045
1.10502
1.10553
1.10603
1.10651
1.10699
1.10747
1.10794
1.1084
1.10886
1.10932
1.10978
1.11023
1.11069
1.11114
1.11158
1.11202
1.11245
1.11287
1.11328
1.11368
1.11405
1.11439
1.1147
1.11497
1.11517
1.1153
1.11534
1.11525
1.11502
1.1146
1.11397
1.11309
1.11193
1.11047
1.10869
1.10659
1.10419
1.10152
1.09862
1.09557
1.09244
1.08932
1.0863
1.08345
1.08085
1.07855
1.07658
1.07495
1.07366
1.0727
1.07203
1.07161
1.07139
1.07133
1.07136
1.07138
1.07131
1.07103
1.07038
1.0692
1.06735
1.06466
1.06105
1.05649
1.05104
1.04492
1.0384
1.03187
1.02567
1.02009
1.01532
1.01139
1.00829
1.00592
1.00415
1.00286
1.00194
1.0013
1.00085
1.00055
1.00035
1.00022
1.00014
1.00008
1.09889
1.09857
1.09829
1.09803
1.09778
1.09756
1.09736
1.09718
1.09701
1.09686
1.09672
1.09659
1.09646
1.09634
1.09622
1.09609
1.09596
1.09583
1.09568
1.09553
1.09536
1.09517
1.09497
1.09475
1.09452
1.09427
1.09401
1.09374
1.09346
1.09317
1.09288
1.09259
1.0923
1.09201
1.09174
1.09147
1.09122
1.09098
1.09075
1.09055
1.09035
1.09018
1.09003
1.08989
1.08977
1.08966
1.08957
1.0895
1.08945
1.08941
1.08939
1.08938
1.08939
1.08942
1.08947
1.08953
1.08962
1.08973
1.08986
1.09001
1.09018
1.09038
1.0906
1.09084
1.0911
1.09139
1.09169
1.09202
1.09236
1.09272
1.09309
1.09348
1.09388
1.0943
1.09472
1.09515
1.0956
1.09605
1.0965
1.09696
1.09742
1.09789
1.09835
1.09882
1.09928
1.09975
1.10021
1.10066
1.10111
1.10155
1.10198
1.1024
1.10279
1.10317
1.10352
1.10384
1.10414
1.1044
1.10462
1.10481
1.10495
1.10506
1.10513
1.10516
1.10516
1.10513
1.10507
1.10498
1.10488
1.10476
1.10464
1.10451
1.10439
1.10428
1.10417
1.10409
1.10402
1.10397
1.10395
1.10394
1.10396
1.10399
1.10404
1.10411
1.10419
1.10427
1.10435
1.10444
1.10452
1.1046
1.10467
1.10473
1.10478
1.10483
1.10486
1.10488
1.1049
1.10492
1.10493
1.10493
1.10494
1.10495
1.10497
1.10499
1.10502
1.10505
1.10509
1.10514
1.10519
1.10526
1.10532
1.1054
1.10548
1.10556
1.10565
1.10575
1.10586
1.10598
1.10613
1.10629
1.10649
1.10672
1.10699
1.1073
1.10765
1.10806
1.10851
1.10902
1.10956
1.11015
1.11077
1.11141
1.11206
1.11272
1.11337
1.11401
1.11461
1.11519
1.11572
1.1162
1.11664
1.11702
1.11735
1.11763
1.11786
1.11805
1.1182
1.11833
1.11843
1.11852
1.11859
1.11867
1.11874
1.11883
1.11892
1.11903
1.11915
1.1193
1.11947
1.11965
1.11986
1.12009
1.12035
1.12062
1.12091
1.12122
1.12155
1.12189
1.12224
1.12261
1.12298
1.12335
1.12373
1.1241
1.12447
1.12483
1.12518
1.12551
1.12581
1.12609
1.12634
1.12655
1.12672
1.12683
1.1269
1.1269
1.12684
1.1267
1.12649
1.1262
1.12582
1.12534
1.12478
1.12411
1.12335
1.12249
1.12153
1.12048
1.11933
1.11809
1.11676
1.11535
1.11386
1.11231
1.11069
1.10902
1.1073
1.10554
1.10376
1.10196
1.10016
1.09837
1.0966
1.09487
1.09319
1.09158
1.09005
1.0886
1.08726
1.08603
1.08492
1.08392
1.08305
1.0823
1.08166
1.08115
1.08074
1.08044
1.08024
1.08012
1.08009
1.08014
1.08025
1.08043
1.08066
1.08094
1.08126
1.08162
1.08202
1.08245
1.0829
1.08338
1.08388
1.0844
1.08494
1.08549
1.08606
1.08664
1.08723
1.08783
1.08845
1.08907
1.08969
1.09033
1.09097
1.09162
1.09228
1.09295
1.09362
1.0943
1.09498
1.09566
1.09634
1.09703
1.09771
1.09838
1.09905
1.09971
1.10036
1.10099
1.10161
1.10221
1.10279
1.10336
1.10391
1.10445
1.10497
1.10548
1.10598
1.10647
1.10695
1.10742
1.10789
1.10835
1.10881
1.10927
1.10973
1.11018
1.11062
1.11107
1.11151
1.11194
1.11236
1.11278
1.11318
1.11356
1.11391
1.11424
1.11453
1.11477
1.11494
1.11503
1.11502
1.11488
1.11459
1.11411
1.11342
1.11249
1.11129
1.10982
1.10806
1.10602
1.10372
1.10118
1.09844
1.09557
1.09262
1.08966
1.08677
1.08402
1.08147
1.07917
1.07717
1.07548
1.07412
1.07307
1.0723
1.07178
1.07148
1.07133
1.07126
1.07121
1.07106
1.0707
1.07
1.0688
1.06696
1.06434
1.06085
1.05646
1.05121
1.04528
1.03894
1.03251
1.02636
1.02076
1.01592
1.01191
1.00871
1.00625
1.0044
1.00304
1.00207
1.00139
1.00092
1.0006
1.00038
1.00024
1.00015
1.00009
1.09902
1.09872
1.09844
1.09818
1.09794
1.09772
1.09751
1.09732
1.09714
1.09697
1.09681
1.09666
1.09651
1.09636
1.0962
1.09605
1.09589
1.09573
1.09556
1.09538
1.09519
1.095
1.09479
1.09457
1.09435
1.09411
1.09386
1.09361
1.09335
1.09308
1.09281
1.09254
1.09227
1.09201
1.09175
1.09149
1.09125
1.09102
1.0908
1.09059
1.0904
1.09023
1.09007
1.08993
1.0898
1.08969
1.0896
1.08952
1.08947
1.08942
1.0894
1.08939
1.0894
1.08943
1.08947
1.08954
1.08962
1.08973
1.08986
1.09
1.09017
1.09037
1.09058
1.09082
1.09107
1.09135
1.09164
1.09196
1.09229
1.09264
1.093
1.09338
1.09377
1.09417
1.09459
1.09501
1.09545
1.09589
1.09633
1.09679
1.09724
1.0977
1.09816
1.09862
1.09908
1.09954
1.1
1.10045
1.1009
1.10133
1.10176
1.10217
1.10256
1.10293
1.10328
1.1036
1.10389
1.10415
1.10437
1.10455
1.1047
1.10481
1.10488
1.10492
1.10492
1.1049
1.10485
1.10477
1.10468
1.10458
1.10448
1.10437
1.10426
1.10416
1.10407
1.104
1.10394
1.1039
1.10388
1.10388
1.10389
1.10393
1.10398
1.10404
1.10411
1.10418
1.10427
1.10435
1.10443
1.1045
1.10457
1.10464
1.10469
1.10474
1.10478
1.10481
1.10483
1.10485
1.10487
1.10488
1.1049
1.10491
1.10493
1.10496
1.10498
1.10502
1.10506
1.10511
1.10516
1.10522
1.10529
1.10536
1.10544
1.10552
1.10561
1.10572
1.10583
1.10596
1.1061
1.10627
1.10647
1.1067
1.10697
1.10728
1.10764
1.10804
1.10849
1.10899
1.10952
1.1101
1.11071
1.11134
1.11198
1.11264
1.11328
1.11391
1.11452
1.1151
1.11564
1.11613
1.11658
1.11698
1.11733
1.11763
1.11788
1.1181
1.11828
1.11842
1.11855
1.11865
1.11875
1.11884
1.11892
1.11902
1.11912
1.11923
1.11936
1.1195
1.11966
1.11985
1.12005
1.12027
1.12051
1.12076
1.12104
1.12132
1.12163
1.12194
1.12226
1.12258
1.12291
1.12324
1.12356
1.12388
1.12419
1.12448
1.12474
1.12499
1.12521
1.12539
1.12553
1.12563
1.12568
1.12568
1.12562
1.1255
1.12531
1.12505
1.12472
1.12431
1.12383
1.12327
1.12263
1.12192
1.12113
1.12027
1.11934
1.11834
1.11728
1.11616
1.11498
1.11375
1.11248
1.11116
1.1098
1.1084
1.10696
1.10549
1.10399
1.10247
1.10092
1.09937
1.09781
1.09626
1.09472
1.09322
1.09176
1.09036
1.08903
1.08777
1.08661
1.08554
1.08458
1.08373
1.08299
1.08236
1.08184
1.08142
1.08111
1.08089
1.08076
1.08072
1.08075
1.08085
1.08102
1.08124
1.08151
1.08183
1.08219
1.08258
1.08301
1.08347
1.08395
1.08446
1.08498
1.08552
1.08608
1.08665
1.08724
1.08784
1.08844
1.08906
1.08969
1.09032
1.09097
1.09162
1.09227
1.09294
1.09361
1.09428
1.09496
1.09564
1.09632
1.097
1.09768
1.09835
1.09901
1.09967
1.10031
1.10094
1.10156
1.10216
1.10275
1.10331
1.10387
1.10441
1.10493
1.10544
1.10594
1.10643
1.10691
1.10738
1.10785
1.10831
1.10877
1.10922
1.10967
1.11012
1.11057
1.111
1.11144
1.11186
1.11228
1.11268
1.11307
1.11344
1.11378
1.11408
1.11435
1.11455
1.11468
1.11473
1.11466
1.11445
1.11408
1.11353
1.11277
1.11177
1.11053
1.10904
1.1073
1.10532
1.10313
1.10074
1.09818
1.09551
1.09277
1.09
1.08727
1.08464
1.08216
1.07989
1.07787
1.07613
1.07469
1.07354
1.07267
1.07205
1.07164
1.07139
1.07123
1.07108
1.07085
1.07041
1.06965
1.06841
1.06657
1.06401
1.06062
1.05639
1.05133
1.0456
1.03942
1.03311
1.02701
1.0214
1.01651
1.01241
1.00913
1.00657
1.00464
1.00323
1.0022
1.00148
1.00098
1.00064
1.00041
1.00026
1.00016
1.00009
1.09915
1.09887
1.0986
1.09835
1.09811
1.09789
1.09767
1.09747
1.09728
1.09709
1.09691
1.09673
1.09654
1.09636
1.09618
1.09599
1.09581
1.09561
1.09542
1.09522
1.09501
1.09481
1.09459
1.09438
1.09415
1.09393
1.0937
1.09346
1.09322
1.09298
1.09274
1.09249
1.09225
1.092
1.09176
1.09152
1.09129
1.09107
1.09085
1.09065
1.09046
1.09028
1.09012
1.08998
1.08985
1.08973
1.08963
1.08955
1.08949
1.08944
1.08941
1.0894
1.08941
1.08943
1.08948
1.08954
1.08962
1.08972
1.08985
1.08999
1.09016
1.09034
1.09055
1.09077
1.09102
1.09129
1.09157
1.09187
1.09219
1.09253
1.09288
1.09324
1.09362
1.09402
1.09442
1.09483
1.09526
1.09569
1.09612
1.09657
1.09702
1.09747
1.09792
1.09838
1.09883
1.09929
1.09974
1.10019
1.10063
1.10106
1.10148
1.10189
1.10228
1.10264
1.10299
1.10331
1.10359
1.10385
1.10407
1.10425
1.1044
1.10451
1.10459
1.10463
1.10464
1.10463
1.10459
1.10453
1.10446
1.10437
1.10428
1.10419
1.1041
1.10402
1.10395
1.10389
1.10384
1.10381
1.1038
1.1038
1.10382
1.10385
1.10389
1.10395
1.10401
1.10409
1.10416
1.10424
1.10432
1.10439
1.10446
1.10453
1.10459
1.10464
1.10468
1.10472
1.10475
1.10478
1.1048
1.10482
1.10484
1.10486
1.10488
1.10491
1.10494
1.10497
1.10501
1.10506
1.10511
1.10517
1.10524
1.10531
1.10539
1.10547
1.10557
1.10567
1.10578
1.10592
1.10607
1.10624
1.10644
1.10668
1.10695
1.10726
1.10762
1.10802
1.10846
1.10895
1.10948
1.11005
1.11065
1.11127
1.11191
1.11255
1.1132
1.11383
1.11444
1.11502
1.11556
1.11607
1.11653
1.11695
1.11732
1.11764
1.11792
1.11816
1.11837
1.11854
1.11869
1.11881
1.11893
1.11903
1.11913
1.11923
1.11934
1.11946
1.11959
1.11973
1.11988
1.12005
1.12024
1.12045
1.12066
1.1209
1.12114
1.1214
1.12167
1.12194
1.12222
1.12249
1.12276
1.12303
1.12329
1.12353
1.12375
1.12395
1.12413
1.12427
1.12437
1.12444
1.12446
1.12443
1.12435
1.12422
1.12403
1.12377
1.12345
1.12307
1.12262
1.12211
1.12154
1.1209
1.12021
1.11946
1.11867
1.11783
1.11695
1.11603
1.11507
1.11409
1.11309
1.11206
1.111
1.10992
1.10882
1.1077
1.10655
1.10537
1.10416
1.10292
1.10165
1.10035
1.09902
1.09768
1.09633
1.09497
1.09362
1.09229
1.09099
1.08974
1.08855
1.08743
1.08639
1.08544
1.08459
1.08384
1.08319
1.08265
1.08221
1.08187
1.08163
1.08148
1.08141
1.08142
1.0815
1.08165
1.08185
1.08212
1.08243
1.08278
1.08317
1.0836
1.08405
1.08453
1.08504
1.08557
1.08612
1.08668
1.08726
1.08785
1.08845
1.08907
1.08969
1.09032
1.09096
1.09161
1.09227
1.09293
1.0936
1.09427
1.09495
1.09562
1.0963
1.09698
1.09765
1.09832
1.09898
1.09963
1.10027
1.1009
1.10151
1.10211
1.1027
1.10327
1.10382
1.10436
1.10489
1.1054
1.1059
1.10639
1.10687
1.10735
1.10781
1.10827
1.10873
1.10918
1.10963
1.11007
1.11051
1.11094
1.11137
1.11179
1.11219
1.11259
1.11296
1.11331
1.11363
1.11391
1.11414
1.11431
1.11439
1.11438
1.11424
1.11395
1.1135
1.11286
1.11202
1.11095
1.10966
1.10816
1.10644
1.10453
1.10245
1.10022
1.09787
1.09542
1.0929
1.09035
1.0878
1.08531
1.08292
1.08069
1.07866
1.07687
1.07535
1.07411
1.07313
1.07239
1.07187
1.07151
1.07124
1.07099
1.07066
1.07014
1.06931
1.06804
1.0662
1.06368
1.06039
1.0563
1.05142
1.04587
1.03985
1.03365
1.02761
1.02201
1.01707
1.01291
1.00953
1.0069
1.00489
1.00341
1.00234
1.00158
1.00105
1.00069
1.00044
1.00028
1.00017
1.0001
1.09926
1.099
1.09875
1.09851
1.09827
1.09805
1.09783
1.09762
1.09741
1.0972
1.09699
1.09678
1.09657
1.09636
1.09614
1.09592
1.0957
1.09548
1.09526
1.09504
1.09483
1.09461
1.09439
1.09417
1.09396
1.09374
1.09353
1.09331
1.09309
1.09288
1.09266
1.09243
1.09221
1.09199
1.09177
1.09155
1.09133
1.09112
1.09091
1.09071
1.09052
1.09035
1.09018
1.09003
1.0899
1.08978
1.08968
1.08959
1.08952
1.08947
1.08943
1.08941
1.08942
1.08944
1.08947
1.08953
1.08961
1.08971
1.08983
1.08997
1.09012
1.0903
1.0905
1.09072
1.09095
1.09121
1.09148
1.09177
1.09207
1.09239
1.09273
1.09308
1.09344
1.09382
1.09421
1.09461
1.09502
1.09544
1.09587
1.0963
1.09674
1.09718
1.09763
1.09808
1.09853
1.09897
1.09942
1.09986
1.1003
1.10072
1.10114
1.10154
1.10193
1.1023
1.10264
1.10295
1.10324
1.10349
1.10371
1.1039
1.10405
1.10416
1.10424
1.10429
1.10431
1.10431
1.10428
1.10424
1.10418
1.10412
1.10405
1.10398
1.10391
1.10385
1.10379
1.10375
1.10371
1.10369
1.10369
1.10369
1.10371
1.10375
1.10379
1.10384
1.1039
1.10397
1.10404
1.10411
1.10419
1.10426
1.10433
1.1044
1.10446
1.10452
1.10457
1.10461
1.10465
1.10468
1.10471
1.10474
1.10476
1.10479
1.10481
1.10484
1.10488
1.10491
1.10495
1.105
1.10505
1.10511
1.10517
1.10525
1.10532
1.10541
1.1055
1.10561
1.10573
1.10586
1.10602
1.1062
1.10641
1.10665
1.10692
1.10724
1.10759
1.10799
1.10843
1.10892
1.10944
1.11
1.11059
1.11121
1.11184
1.11248
1.11312
1.11375
1.11436
1.11494
1.1155
1.11602
1.1165
1.11693
1.11732
1.11767
1.11797
1.11824
1.11847
1.11866
1.11884
1.11898
1.11912
1.11924
1.11935
1.11946
1.11958
1.11969
1.11982
1.11995
1.1201
1.12025
1.12042
1.1206
1.12079
1.12099
1.1212
1.12142
1.12164
1.12186
1.12207
1.12228
1.12249
1.12267
1.12285
1.123
1.12312
1.12322
1.12328
1.1233
1.12328
1.12322
1.12311
1.12295
1.12273
1.12246
1.12213
1.12175
1.12131
1.12081
1.12026
1.11967
1.11903
1.11835
1.11763
1.11688
1.11611
1.11531
1.11451
1.11369
1.11286
1.11203
1.11119
1.11036
1.10952
1.10867
1.10782
1.10695
1.10607
1.10517
1.10424
1.10327
1.10227
1.10124
1.10016
1.09904
1.09789
1.0967
1.09549
1.09427
1.09305
1.09184
1.09065
1.0895
1.08841
1.08738
1.08643
1.08557
1.0848
1.08413
1.08355
1.08308
1.08271
1.08243
1.08224
1.08214
1.08213
1.08218
1.08231
1.0825
1.08275
1.08305
1.08339
1.08377
1.0842
1.08465
1.08513
1.08564
1.08617
1.08672
1.08729
1.08787
1.08847
1.08908
1.0897
1.09033
1.09097
1.09162
1.09227
1.09293
1.0936
1.09427
1.09494
1.09561
1.09629
1.09696
1.09763
1.09829
1.09895
1.0996
1.10023
1.10086
1.10147
1.10207
1.10266
1.10323
1.10378
1.10432
1.10485
1.10536
1.10587
1.10636
1.10684
1.10731
1.10778
1.10824
1.10869
1.10914
1.10958
1.11002
1.11045
1.11088
1.1113
1.11171
1.1121
1.11248
1.11284
1.11317
1.11347
1.11372
1.11391
1.11403
1.11406
1.11397
1.11376
1.11338
1.11284
1.11211
1.11117
1.11003
1.1087
1.10718
1.10549
1.10366
1.10171
1.09965
1.0975
1.09528
1.093
1.09068
1.08833
1.086
1.08372
1.08155
1.07953
1.0777
1.07611
1.07476
1.07366
1.07281
1.07216
1.07168
1.07129
1.07093
1.0705
1.0699
1.069
1.06769
1.06585
1.06337
1.06017
1.0562
1.05148
1.04609
1.04023
1.03415
1.02817
1.02258
1.01761
1.01339
1.00994
1.00722
1.00514
1.0036
1.00248
1.00168
1.00112
1.00073
1.00048
1.0003
1.00019
1.00011
1.09932
1.09908
1.09885
1.09863
1.0984
1.09818
1.09796
1.09773
1.09751
1.09728
1.09705
1.09681
1.09657
1.09633
1.09608
1.09583
1.09559
1.09534
1.0951
1.09487
1.09464
1.09441
1.09419
1.09397
1.09376
1.09356
1.09336
1.09316
1.09296
1.09277
1.09257
1.09237
1.09217
1.09197
1.09177
1.09157
1.09136
1.09117
1.09097
1.09078
1.09059
1.09042
1.09025
1.0901
1.08996
1.08984
1.08973
1.08963
1.08956
1.0895
1.08945
1.08943
1.08943
1.08944
1.08947
1.08952
1.0896
1.08969
1.0898
1.08993
1.09008
1.09025
1.09044
1.09064
1.09087
1.09111
1.09136
1.09164
1.09193
1.09223
1.09255
1.09288
1.09323
1.09359
1.09397
1.09435
1.09475
1.09515
1.09556
1.09599
1.09641
1.09684
1.09728
1.09772
1.09816
1.0986
1.09904
1.09947
1.0999
1.10032
1.10074
1.10114
1.10152
1.10188
1.10222
1.10254
1.10282
1.10308
1.1033
1.10348
1.10364
1.10376
1.10384
1.1039
1.10393
1.10394
1.10393
1.10391
1.10387
1.10383
1.10378
1.10373
1.10368
1.10364
1.10361
1.10358
1.10356
1.10355
1.10355
1.10357
1.10359
1.10362
1.10366
1.10371
1.10377
1.10383
1.1039
1.10397
1.10404
1.10411
1.10418
1.10425
1.10432
1.10438
1.10443
1.10448
1.10453
1.10457
1.10461
1.10464
1.10467
1.1047
1.10473
1.10476
1.1048
1.10484
1.10488
1.10492
1.10498
1.10503
1.1051
1.10517
1.10525
1.10533
1.10543
1.10554
1.10566
1.1058
1.10596
1.10615
1.10636
1.10661
1.10689
1.10721
1.10757
1.10796
1.10841
1.10889
1.10941
1.10996
1.11055
1.11115
1.11178
1.11241
1.11305
1.11367
1.11429
1.11488
1.11544
1.11597
1.11646
1.11692
1.11733
1.1177
1.11803
1.11832
1.11857
1.11879
1.11899
1.11916
1.11931
1.11944
1.11957
1.11968
1.1198
1.11991
1.12003
1.12015
1.12028
1.12041
1.12056
1.1207
1.12086
1.12101
1.12117
1.12133
1.12149
1.12164
1.12179
1.12192
1.12203
1.12213
1.1222
1.12224
1.12225
1.12223
1.12216
1.12206
1.12191
1.12171
1.12146
1.12117
1.12082
1.12042
1.11998
1.11948
1.11894
1.11836
1.11774
1.1171
1.11642
1.11572
1.11501
1.11429
1.11357
1.11285
1.11213
1.11143
1.11073
1.11005
1.10939
1.10874
1.1081
1.10746
1.10683
1.1062
1.10556
1.1049
1.10422
1.10352
1.10277
1.10198
1.10114
1.10025
1.09931
1.09832
1.09728
1.0962
1.09509
1.09396
1.09282
1.09169
1.09057
1.0895
1.08848
1.08752
1.08663
1.08584
1.08513
1.08452
1.084
1.08359
1.08327
1.08305
1.08292
1.08287
1.0829
1.083
1.08317
1.0834
1.08369
1.08402
1.0844
1.08481
1.08527
1.08575
1.08626
1.08679
1.08734
1.08791
1.0885
1.0891
1.08972
1.09035
1.09098
1.09163
1.09228
1.09294
1.0936
1.09427
1.09494
1.09561
1.09628
1.09694
1.09761
1.09827
1.09892
1.09957
1.1002
1.10082
1.10144
1.10203
1.10262
1.10319
1.10375
1.10429
1.10481
1.10533
1.10583
1.10632
1.10681
1.10728
1.10774
1.1082
1.10865
1.1091
1.10954
1.10997
1.1104
1.11082
1.11123
1.11163
1.11201
1.11237
1.11271
1.11302
1.11329
1.1135
1.11365
1.11371
1.11367
1.11351
1.11321
1.11274
1.11209
1.11126
1.11024
1.10903
1.10765
1.10613
1.10448
1.10274
1.10092
1.09903
1.0971
1.09512
1.09308
1.09099
1.08886
1.08671
1.08456
1.08246
1.08046
1.0786
1.07694
1.07549
1.07428
1.07329
1.07252
1.0719
1.07139
1.07092
1.07038
1.06969
1.06872
1.06736
1.06551
1.06306
1.05994
1.05608
1.05151
1.04628
1.04056
1.03461
1.0287
1.02313
1.01813
1.01385
1.01033
1.00754
1.00539
1.00379
1.00262
1.00178
1.00119
1.00078
1.00051
1.00032
1.0002
1.00012
1.09928
1.09908
1.09888
1.09867
1.09846
1.09824
1.09802
1.09779
1.09755
1.0973
1.09705
1.09679
1.09653
1.09626
1.09599
1.09572
1.09546
1.0952
1.09494
1.09469
1.09445
1.09422
1.094
1.09379
1.09358
1.09339
1.0932
1.09302
1.09284
1.09266
1.09248
1.0923
1.09213
1.09195
1.09176
1.09158
1.09139
1.09121
1.09102
1.09084
1.09066
1.09049
1.09033
1.09017
1.09003
1.0899
1.08978
1.08968
1.0896
1.08953
1.08948
1.08945
1.08944
1.08944
1.08947
1.08951
1.08958
1.08966
1.08976
1.08988
1.09002
1.09018
1.09036
1.09055
1.09076
1.09098
1.09123
1.09148
1.09176
1.09204
1.09234
1.09266
1.09299
1.09333
1.09369
1.09405
1.09443
1.09482
1.09522
1.09562
1.09603
1.09645
1.09688
1.0973
1.09773
1.09816
1.09859
1.09902
1.09944
1.09986
1.10027
1.10066
1.10104
1.1014
1.10174
1.10205
1.10234
1.10259
1.10282
1.10301
1.10316
1.10329
1.10339
1.10345
1.1035
1.10352
1.10353
1.10352
1.10351
1.10349
1.10346
1.10344
1.10342
1.1034
1.10338
1.10337
1.10337
1.10338
1.10339
1.10341
1.10344
1.10347
1.10351
1.10356
1.10361
1.10367
1.10374
1.1038
1.10387
1.10394
1.10401
1.10408
1.10415
1.10422
1.10428
1.10433
1.10439
1.10443
1.10448
1.10452
1.10456
1.10459
1.10463
1.10466
1.1047
1.10474
1.10478
1.10483
1.10488
1.10494
1.105
1.10508
1.10515
1.10524
1.10534
1.10546
1.10559
1.10573
1.1059
1.10609
1.10631
1.10657
1.10685
1.10718
1.10754
1.10794
1.10838
1.10886
1.10938
1.10993
1.1105
1.11111
1.11172
1.11235
1.11298
1.11361
1.11422
1.11482
1.11539
1.11593
1.11644
1.11691
1.11734
1.11773
1.11808
1.11839
1.11867
1.11891
1.11912
1.11931
1.11947
1.11962
1.11975
1.11987
1.11998
1.12009
1.12019
1.12029
1.12039
1.1205
1.1206
1.12071
1.12081
1.12091
1.12101
1.1211
1.12118
1.12125
1.12131
1.12134
1.12135
1.12134
1.1213
1.12122
1.12111
1.12096
1.12077
1.12053
1.12025
1.11992
1.11955
1.11913
1.11867
1.11817
1.11763
1.11705
1.11645
1.11581
1.11516
1.11449
1.11382
1.11314
1.11247
1.1118
1.11115
1.11052
1.10991
1.10933
1.10877
1.10823
1.10773
1.10724
1.10678
1.10633
1.10589
1.10546
1.10503
1.10458
1.10412
1.10364
1.10312
1.10256
1.10194
1.10128
1.10055
1.09976
1.09891
1.098
1.09703
1.09601
1.09496
1.09388
1.0928
1.09171
1.09065
1.08963
1.08866
1.08775
1.08692
1.08618
1.08553
1.08497
1.08452
1.08416
1.08389
1.08372
1.08364
1.08364
1.08372
1.08387
1.08408
1.08435
1.08467
1.08504
1.08545
1.0859
1.08638
1.08689
1.08742
1.08798
1.08855
1.08914
1.08975
1.09037
1.091
1.09165
1.0923
1.09295
1.09361
1.09428
1.09494
1.09561
1.09627
1.09694
1.0976
1.09825
1.0989
1.09954
1.10017
1.10079
1.1014
1.102
1.10258
1.10315
1.10371
1.10425
1.10478
1.1053
1.1058
1.10629
1.10678
1.10725
1.10771
1.10817
1.10862
1.10906
1.1095
1.10992
1.11034
1.11075
1.11115
1.11154
1.11191
1.11226
1.11257
1.11285
1.11309
1.11326
1.11335
1.11335
1.11324
1.11299
1.11258
1.11201
1.11126
1.11033
1.10922
1.10795
1.10654
1.10502
1.10342
1.10177
1.10009
1.09839
1.09667
1.09492
1.09313
1.09128
1.08937
1.08741
1.0854
1.0834
1.08143
1.07957
1.07784
1.07631
1.07497
1.07386
1.07294
1.07219
1.07155
1.07095
1.0703
1.06951
1.06847
1.06707
1.0652
1.06277
1.0597
1.05595
1.05151
1.04643
1.04086
1.03502
1.02918
1.02365
1.01864
1.01431
1.01072
1.00786
1.00564
1.00398
1.00276
1.00188
1.00126
1.00083
1.00054
1.00034
1.00021
1.00013
1.09909
1.09893
1.09877
1.09859
1.09839
1.09819
1.09797
1.09774
1.0975
1.09724
1.09698
1.0967
1.09642
1.09614
1.09586
1.09558
1.0953
1.09503
1.09477
1.09451
1.09427
1.09404
1.09382
1.09362
1.09342
1.09323
1.09305
1.09288
1.09271
1.09255
1.09239
1.09223
1.09207
1.09191
1.09175
1.09158
1.09141
1.09124
1.09107
1.0909
1.09073
1.09056
1.0904
1.09025
1.0901
1.08997
1.08985
1.08974
1.08965
1.08957
1.08951
1.08947
1.08945
1.08945
1.08946
1.0895
1.08955
1.08963
1.08972
1.08983
1.08996
1.0901
1.09026
1.09044
1.09064
1.09085
1.09107
1.09131
1.09156
1.09183
1.09211
1.09241
1.09271
1.09304
1.09337
1.09372
1.09407
1.09444
1.09482
1.09521
1.0956
1.09601
1.09641
1.09683
1.09724
1.09766
1.09808
1.09849
1.09891
1.09932
1.09972
1.10011
1.10049
1.10084
1.10118
1.1015
1.10178
1.10204
1.10227
1.10246
1.10263
1.10276
1.10287
1.10295
1.10301
1.10305
1.10308
1.10309
1.1031
1.1031
1.10311
1.10311
1.10311
1.10311
1.10312
1.10313
1.10315
1.10317
1.10319
1.10322
1.10326
1.10329
1.10334
1.10338
1.10344
1.10349
1.10355
1.10362
1.10369
1.10376
1.10383
1.1039
1.10397
1.10404
1.1041
1.10417
1.10423
1.10428
1.10433
1.10438
1.10442
1.10447
1.10451
1.10455
1.10459
1.10463
1.10467
1.10472
1.10477
1.10483
1.1049
1.10497
1.10505
1.10514
1.10524
1.10536
1.1055
1.10565
1.10583
1.10603
1.10626
1.10652
1.10681
1.10714
1.10751
1.10791
1.10836
1.10884
1.10935
1.1099
1.11047
1.11106
1.11168
1.1123
1.11293
1.11355
1.11417
1.11476
1.11534