# vtk DataFile Version 2.0
LBE two cylinders
ASCII
DATASET STRUCTURED_POINTS
DIMENSIONS 400 100 1
ASPECT_RATIO 1 1 1
ORIGIN 0 0 0
POINT_DATA 40000
SCALARS rho double 1
LOOKUP_TABLE default
1.06283
1.06294
1.06307
1.06322
1.06337
1.06352
1.06367
1.06382
1.06398
1.06413
1.06427
1.06442
1.06456
1.0647
1.06485
1.06499
1.06513
1.06528
1.06542
1.06558
1.06573
1.06589
1.06605
1.06621
1.06638
1.06656
1.06673
1.06691
1.06709
1.06728
1.06746
1.06764
1.06782
1.068
1.06817
1.06834
1.0685
1.06865
1.06879
1.06893
1.06905
1.06917
1.06929
1.0694
1.0695
1.06961
1.06971
1.06982
1.06992
1.07002
1.07013
1.07024
1.07035
1.07047
1.07061
1.07076
1.07092
1.07112
1.07134
1.0716
1.0719
1.07226
1.07266
1.07313
1.07365
1.07423
1.07488
1.07557
1.07631
1.07709
1.07789
1.07871
1.07954
1.08037
1.08118
1.08198
1.08274
1.08348
1.08419
1.08486
1.0855
1.08611
1.08669
1.08724
1.08776
1.08826
1.08873
1.08918
1.08961
1.09001
1.09038
1.09073
1.09105
1.09135
1.09161
1.09184
1.09204
1.0922
1.09233
1.09242
1.09249
1.09252
1.09252
1.09249
1.09243
1.09236
1.09227
1.09218
1.09208
1.092
1.09194
1.09191
1.09193
1.092
1.09214
1.09235
1.09263
1.09298
1.09339
1.09387
1.09439
1.09494
1.0955
1.09607
1.09661
1.09712
1.09758
1.09798
1.09832
1.09859
1.09879
1.09892
1.099
1.09902
1.099
1.09893
1.09884
1.09872
1.09858
1.09844
1.09828
1.09812
1.09795
1.09778
1.09762
1.09745
1.09727
1.0971
1.09692
1.09674
1.09655
1.09636
1.09616
1.09596
1.09575
1.09553
1.0953
1.09507
1.09483
1.09458
1.09432
1.09406
1.09379
1.09352
1.09325
1.09297
1.09269
1.09241
1.09213
1.09186
1.09159
1.09132
1.09107
1.09082
1.09057
1.09034
1.09012
1.0899
1.0897
1.0895
1.08932
1.08914
1.08898
1.08882
1.08867
1.08852
1.08839
1.08826
1.08813
1.08801
1.0879
1.0878
1.0877
1.08761
1.08752
1.08744
1.08737
1.08731
1.08727
1.08723
1.08722
1.08722
1.08724
1.08728
1.08735
1.08745
1.08757
1.08773
1.08791
1.08811
1.08835
1.08861
1.0889
1.08921
1.08955
1.0899
1.09027
1.09066
1.09107
1.09149
1.09193
1.09238
1.09284
1.09332
1.09381
1.09431
1.09483
1.09536
1.0959
1.09646
1.09703
1.09762
1.09822
1.09883
1.09946
1.1001
1.10076
1.10143
1.10211
1.10281
1.10353
1.10426
1.105
1.10576
1.10654
1.10733
1.10814
1.10896
1.10978
1.11061
1.11143
1.11225
1.11306
1.11385
1.11462
1.11536
1.11607
1.11676
1.11741
1.11804
1.11864
1.11921
1.11977
1.1203
1.12082
1.12132
1.12181
1.12229
1.12276
1.12322
1.12367
1.12411
1.12454
1.12496
1.12536
1.12575
1.12611
1.12645
1.12675
1.12701
1.1272
1.12731
1.12731
1.12717
1.12683
1.12626
1.12539
1.12417
1.12255
1.12049
1.11796
1.11497
1.11156
1.1078
1.1038
1.09967
1.09555
1.09157
1.08785
1.08447
1.0815
1.07896
1.07686
1.07518
1.07388
1.07293
1.07228
1.07188
1.07168
1.07166
1.07177
1.072
1.07231
1.07269
1.07313
1.07361
1.07414
1.07471
1.07531
1.07594
1.07659
1.07726
1.07791
1.07849
1.07895
1.07915
1.07894
1.0781
1.07639
1.07355
1.06941
1.0639
1.05716
1.04952
1.04145
1.03352
1.0262
1.01983
1.01458
1.01043
1.00729
1.00498
1.00334
1.00219
1.00142
1.0009
1.00056
1.00034
1.00021
1.00012
1.00007
1.00004
1.00002
1.00001
1.00001
1
1
1
1
1
1
1
1
1
1
1
1
1
1
1
1
1
1
1
1
1
1
1
1
1
1
1
1
1
1
1
1
1
1
1
1
1
1
1
1
1
1
1
1
1
1.06284
1.06296
1.06309
1.06323
1.06338
1.06354
1.06369
1.06384
1.064
1.06415
1.0643
1.06444
1.06459
1.06473
1.06488
1.06502
1.06517
1.06532
1.06547
1.06562
1.06578
1.06594
1.0661
1.06627
1.06644
1.06661
1.06679
1.06697
1.06715
1.06733
1.06751
1.06769
1.06787
1.06804
1.06821
1.06837
1.06853
1.06867
1.06881
1.06894
1.06906
1.06918
1.06929
1.0694
1.0695
1.0696
1.0697
1.0698
1.0699
1.07
1.07011
1.07021
1.07033
1.07045
1.07058
1.07073
1.07091
1.0711
1.07133
1.07159
1.0719
1.07225
1.07266
1.07312
1.07364
1.07422
1.07485
1.07554
1.07627
1.07704
1.07783
1.07864
1.07947
1.08029
1.08109
1.08189
1.08265
1.08339
1.0841
1.08477
1.08541
1.08602
1.0866
1.08715
1.08767
1.08817
1.08864
1.08908
1.0895
1.0899
1.09027
1.09061
1.09093
1.09122
1.09148
1.09171
1.0919
1.09206
1.09219
1.09229
1.09236
1.09239
1.09239
1.09237
1.09232
1.09226
1.09218
1.0921
1.09201
1.09194
1.09189
1.09187
1.0919
1.09197
1.09211
1.09232
1.0926
1.09294
1.09335
1.09381
1.09432
1.09486
1.09541
1.09596
1.0965
1.097
1.09746
1.09786
1.0982
1.09848
1.09868
1.09883
1.09891
1.09894
1.09892
1.09886
1.09877
1.09866
1.09852
1.09838
1.09822
1.09806
1.09789
1.09772
1.09755
1.09738
1.09721
1.09704
1.09686
1.09668
1.0965
1.09631
1.09611
1.09591
1.09571
1.09549
1.09527
1.09504
1.09481
1.09457
1.09432
1.09406
1.0938
1.09354
1.09327
1.09299
1.09272
1.09245
1.09217
1.0919
1.09164
1.09138
1.09112
1.09087
1.09063
1.0904
1.09018
1.08996
1.08976
1.08956
1.08937
1.08919
1.08902
1.08886
1.08871
1.08856
1.08842
1.08829
1.08817
1.08805
1.08793
1.08783
1.08772
1.08763
1.08754
1.08747
1.0874
1.08734
1.08729
1.08726
1.08724
1.08725
1.08727
1.08731
1.08738
1.08748
1.0876
1.08775
1.08793
1.08814
1.08837
1.08863
1.08892
1.08923
1.08956
1.08991
1.09028
1.09067
1.09107
1.09149
1.09193
1.09238
1.09284
1.09332
1.09381
1.09431
1.09483
1.09536
1.0959
1.09646
1.09703
1.09762
1.09821
1.09883
1.09946
1.1001
1.10075
1.10142
1.1021
1.1028
1.10352
1.10424
1.10499
1.10575
1.10652
1.10731
1.10811
1.10893
1.10974
1.11057
1.11139
1.1122
1.113
1.11379
1.11455
1.11529
1.116
1.11669
1.11734
1.11797
1.11857
1.11915
1.1197
1.12024
1.12076
1.12126
1.12175
1.12223
1.12269
1.12315
1.1236
1.12403
1.12446
1.12487
1.12526
1.12564
1.12599
1.12631
1.12659
1.12682
1.12698
1.12704
1.12699
1.12678
1.12638
1.12573
1.1248
1.12353
1.12189
1.11984
1.11737
1.11448
1.11122
1.10764
1.10384
1.09991
1.09596
1.09212
1.08849
1.08516
1.08219
1.07962
1.07746
1.07571
1.07433
1.0733
1.07257
1.0721
1.07185
1.07177
1.07184
1.07203
1.07231
1.07267
1.07309
1.07356
1.07407
1.07462
1.0752
1.0758
1.07643
1.07705
1.07765
1.07816
1.07852
1.07861
1.07828
1.07733
1.07555
1.07275
1.06877
1.06356
1.05722
1.04998
1.04226
1.03454
1.0273
1.02088
1.0155
1.01119
1.00788
1.00543
1.00366
1.00242
1.00157
1.00101
1.00063
1.00039
1.00024
1.00014
1.00008
1.00005
1.00003
1.00002
1.00001
1
1
1
1
1
1
1
1
1
1
1
1
1
1
1
1
1
1
1
1
1
1
1
1
1
1
1
1
1
1
1
1
1
1
1
1
1
1
1
1
1
1
1
1
1
1.06284
1.06297
1.06311
1.06326
1.06341
1.06356
1.06372
1.06388
1.06403
1.06418
1.06434
1.06449
1.06464
1.06479
1.06494
1.06508
1.06524
1.06539
1.06554
1.0657
1.06586
1.06602
1.06619
1.06636
1.06653
1.0667
1.06688
1.06705
1.06723
1.06741
1.06759
1.06776
1.06794
1.0681
1.06827
1.06842
1.06857
1.06871
1.06884
1.06896
1.06907
1.06918
1.06928
1.06938
1.06948
1.06957
1.06966
1.06975
1.06985
1.06994
1.07004
1.07015
1.07026
1.07038
1.07052
1.07067
1.07085
1.07105
1.07128
1.07155
1.07186
1.07221
1.07262
1.07308
1.07359
1.07417
1.07479
1.07547
1.07619
1.07694
1.07773
1.07853
1.07935
1.08016
1.08097
1.08175
1.08252
1.08326
1.08397
1.08464
1.08528
1.08589
1.08647
1.08702
1.08754
1.08804
1.0885
1.08894
1.08936
1.08975
1.09012
1.09046
1.09078
1.09106
1.09132
1.09155
1.09174
1.09191
1.09204
1.09214
1.09221
1.09225
1.09226
1.09224
1.0922
1.09215
1.09208
1.092
1.09193
1.09187
1.09183
1.09182
1.09185
1.09193
1.09207
1.09228
1.09255
1.09288
1.09328
1.09374
1.09423
1.09476
1.09531
1.09585
1.09638
1.09687
1.09733
1.09773
1.09807
1.09835
1.09856
1.09871
1.0988
1.09883
1.09881
1.09876
1.09867
1.09855
1.09842
1.09827
1.09811
1.09795
1.09778
1.09761
1.09744
1.09727
1.0971
1.09692
1.09675
1.09657
1.09639
1.09621
1.09602
1.09583
1.09563
1.09542
1.09521
1.09499
1.09477
1.09454
1.0943
1.09406
1.09381
1.09355
1.09329
1.09303
1.09277
1.09251
1.09224
1.09198
1.09172
1.09146
1.09121
1.09097
1.09073
1.0905
1.09027
1.09006
1.08985
1.08965
1.08946
1.08928
1.0891
1.08894
1.08878
1.08863
1.08849
1.08835
1.08822
1.08809
1.08798
1.08787
1.08776
1.08767
1.08758
1.0875
1.08743
1.08737
1.08732
1.08729
1.08727
1.08728
1.0873
1.08734
1.08741
1.08751
1.08763
1.08778
1.08796
1.08816
1.0884
1.08866
1.08894
1.08925
1.08958
1.08993
1.09029
1.09068
1.09109
1.0915
1.09194
1.09239
1.09285
1.09332
1.09381
1.09432
1.09483
1.09536
1.0959
1.09646
1.09703
1.09762
1.09822
1.09883
1.09945
1.1001
1.10075
1.10142
1.1021
1.1028
1.10351
1.10424
1.10499
1.10574
1.10652
1.1073
1.1081
1.1089
1.10972
1.11053
1.11134
1.11215
1.11294
1.11372
1.11448
1.11522
1.11593
1.11662
1.11727
1.1179
1.11851
1.11908
1.11964
1.12017
1.12069
1.12119
1.12168
1.12215
1.12262
1.12307
1.12351
1.12394
1.12435
1.12476
1.12514
1.1255
1.12583
1.12613
1.12638
1.12656
1.12667
1.12667
1.12654
1.12625
1.12575
1.12501
1.12399
1.12266
1.12098
1.11894
1.11653
1.11377
1.11069
1.10734
1.10378
1.10011
1.0964
1.09276
1.08927
1.08602
1.08308
1.08049
1.07827
1.07643
1.07496
1.07382
1.073
1.07243
1.0721
1.07195
1.07196
1.0721
1.07234
1.07266
1.07305
1.07349
1.07398
1.0745
1.07506
1.07563
1.07622
1.0768
1.07735
1.0778
1.07808
1.07809
1.07768
1.07668
1.07492
1.0722
1.0684
1.06346
1.05742
1.05049
1.04302
1.03545
1.02824
1.02177
1.01628
1.01184
1.00839
1.00581
1.00394
1.00262
1.00171
1.0011
1.00069
1.00043
1.00026
1.00016
1.00009
1.00005
1.00003
1.00002
1.00001
1.00001
1
1
1
1
1
1
1
1
1
1
1
1
1
1
1
1
1
1
1
1
1
1
1
1
1
1
1
1
1
1
1
1
1
1
1
1
1
1
1
1
1
1
1
1
1.06286
1.06299
1.06313
1.06328
1.06344
1.0636
1.06376
1.06392
1.06408
1.06424
1.06439
1.06455
1.0647
1.06486
1.06501
1.06517
1.06533
1.06548
1.06564
1.0658
1.06597
1.06613
1.0663
1.06647
1.06665
1.06682
1.067
1.06717
1.06735
1.06752
1.06769
1.06786
1.06802
1.06818
1.06834
1.06848
1.06862
1.06874
1.06886
1.06897
1.06908
1.06917
1.06926
1.06935
1.06943
1.06952
1.0696
1.06968
1.06977
1.06986
1.06995
1.07005
1.07016
1.07029
1.07042
1.07058
1.07076
1.07096
1.0712
1.07148
1.07179
1.07215
1.07255
1.07301
1.07352
1.07409
1.0747
1.07537
1.07608
1.07682
1.07759
1.07838
1.07919
1.07999
1.08079
1.08158
1.08234
1.08308
1.08379
1.08447
1.08512
1.08573
1.08631
1.08686
1.08738
1.08787
1.08834
1.08878
1.0892
1.08959
1.08995
1.09029
1.09061
1.09089
1.09115
1.09138
1.09158
1.09174
1.09188
1.09198
1.09205
1.0921
1.09211
1.09211
1.09208
1.09203
1.09197
1.0919
1.09184
1.09179
1.09176
1.09176
1.0918
1.09188
1.09203
1.09223
1.0925
1.09283
1.09322
1.09366
1.09415
1.09467
1.0952
1.09573
1.09625
1.09674
1.09719
1.09759
1.09793
1.09821
1.09842
1.09857
1.09866
1.0987
1.09868
1.09862
1.09853
1.09842
1.09828
1.09813
1.09797
1.0978
1.09763
1.09745
1.09728
1.09711
1.09694
1.09676
1.09659
1.09642
1.09624
1.09607
1.09589
1.0957
1.09552
1.09532
1.09512
1.09492
1.09471
1.09449
1.09427
1.09404
1.09381
1.09357
1.09332
1.09308
1.09283
1.09258
1.09233
1.09207
1.09182
1.09158
1.09133
1.09109
1.09086
1.09063
1.0904
1.09019
1.08998
1.08978
1.08958
1.08939
1.08921
1.08904
1.08888
1.08872
1.08857
1.08843
1.08829
1.08816
1.08804
1.08792
1.08781
1.08771
1.08762
1.08753
1.08746
1.0874
1.08735
1.08732
1.08731
1.08731
1.08733
1.08738
1.08745
1.08754
1.08767
1.08782
1.08799
1.0882
1.08843
1.08868
1.08896
1.08927
1.0896
1.08995
1.09031
1.0907
1.0911
1.09152
1.09195
1.0924
1.09286
1.09334
1.09382
1.09433
1.09484
1.09537
1.09591
1.09647
1.09704
1.09762
1.09822
1.09884
1.09946
1.1001
1.10076
1.10143
1.10211
1.10281
1.10352
1.10425
1.10499
1.10575
1.10652
1.1073
1.1081
1.1089
1.1097
1.11051
1.11131
1.11211
1.1129
1.11367
1.11443
1.11516
1.11587
1.11655
1.11721
1.11784
1.11844
1.11902
1.11957
1.12011
1.12062
1.12112
1.12161
1.12208
1.12254
1.12298
1.12342
1.12384
1.12425
1.12464
1.12501
1.12535
1.12566
1.12592
1.12613
1.12626
1.1263
1.12622
1.126
1.12559
1.12497
1.12411
1.12298
1.12155
1.11981
1.11777
1.11542
1.1128
1.10992
1.10683
1.10358
1.10021
1.09681
1.09342
1.09014
1.08703
1.08415
1.08156
1.07929
1.07736
1.07577
1.07452
1.07357
1.07289
1.07245
1.07221
1.07214
1.07222
1.0724
1.07268
1.07303
1.07344
1.0739
1.0744
1.07493
1.07548
1.07604
1.07658
1.07708
1.07748
1.0777
1.07765
1.07719
1.07616
1.0744
1.07174
1.06806
1.0633
1.05751
1.05084
1.0436
1.0362
1.02907
1.02259
1.01702
1.01246
1.00889
1.00619
1.00422
1.00282
1.00185
1.00119
1.00075
1.00047
1.00029
1.00017
1.0001
1.00006
1.00003
1.00002
1.00001
1.00001
1
1
1
1
1
1
1
1
1
1
1
1
1
1
1
1
1
1
1
1
1
1
1
1
1
1
1
1
1
1
1
1
1
1
1
1
1
1
1
1
1
1
1
1
1.06288
1.06302
1.06316
1.06332
1.06347
1.06364
1.0638
1.06397
1.06413
1.0643
1.06446
1.06463
1.06479
1.06495
1.06511
1.06528
1.06544
1.0656
1.06577
1.06594
1.0661
1.06627
1.06645
1.06662
1.06679
1.06697
1.06714
1.06731
1.06748
1.06765
1.06781
1.06797
1.06812
1.06827
1.06841
1.06854
1.06867
1.06878
1.06888
1.06898
1.06907
1.06915
1.06923
1.0693
1.06937
1.06944
1.06952
1.06959
1.06967
1.06975
1.06984
1.06994
1.07004
1.07017
1.07031
1.07047
1.07065
1.07086
1.07111
1.07139
1.07171
1.07207
1.07248
1.07294
1.07344
1.074
1.0746
1.07525
1.07594
1.07667
1.07743
1.0782
1.07899
1.07979
1.08058
1.08136
1.08212
1.08286
1.08357
1.08425
1.0849
1.08552
1.0861
1.08665
1.08718
1.08767
1.08814
1.08858
1.089
1.08939
1.08975
1.09009
1.09041
1.0907
1.09095
1.09119
1.09139
1.09156
1.0917
1.09181
1.09188
1.09193
1.09196
1.09196
1.09194
1.0919
1.09185
1.0918
1.09175
1.09171
1.09169
1.09169
1.09174
1.09183
1.09198
1.09218
1.09245
1.09277
1.09315
1.09359
1.09406
1.09457
1.09509
1.09561
1.09612
1.09661
1.09705
1.09745
1.09778
1.09806
1.09827
1.09842
1.09851
1.09854
1.09853
1.09847
1.09838
1.09826
1.09812
1.09796
1.09779
1.09762
1.09745
1.09727
1.09709
1.09692
1.09675
1.09658
1.09641
1.09624
1.09607
1.0959
1.09573
1.09555
1.09538
1.0952
1.09501
1.09483
1.09463
1.09443
1.09423
1.09402
1.0938
1.09358
1.09335
1.09313
1.09289
1.09266
1.09242
1.09218
1.09194
1.09171
1.09147
1.09124
1.09101
1.09078
1.09056
1.09034
1.09013
1.08993
1.08973
1.08954
1.08935
1.08917
1.089
1.08884
1.08868
1.08853
1.08838
1.08824
1.08811
1.08799
1.08787
1.08776
1.08767
1.08758
1.0875
1.08744
1.08739
1.08736
1.08734
1.08734
1.08737
1.08741
1.08749
1.08758
1.0877
1.08785
1.08803
1.08823
1.08846
1.08871
1.08899
1.0893
1.08962
1.08997
1.09034
1.09072
1.09112
1.09154
1.09197
1.09242
1.09288
1.09335
1.09384
1.09434
1.09486
1.09539
1.09593
1.09649
1.09706
1.09764
1.09824
1.09885
1.09948
1.10012
1.10077
1.10144
1.10213
1.10283
1.10354
1.10427
1.10501
1.10577
1.10654
1.10732
1.10811
1.1089
1.1097
1.1105
1.11129
1.11208
1.11286
1.11362
1.11437
1.1151
1.11581
1.11649
1.11714
1.11777
1.11837
1.11895
1.11951
1.12004
1.12056
1.12106
1.12154
1.122
1.12246
1.1229
1.12333
1.12374
1.12414
1.12451
1.12486
1.12518
1.12546
1.12568
1.12583
1.1259
1.12585
1.12567
1.12532
1.12477
1.12401
1.123
1.12173
1.1202
1.11841
1.11637
1.1141
1.11163
1.10898
1.10618
1.10326
1.10026
1.0972
1.09412
1.09109
1.08815
1.08537
1.0828
1.08049
1.07848
1.07677
1.07538
1.07429
1.07347
1.07291
1.07256
1.0724
1.07239
1.07251
1.07274
1.07305
1.07342
1.07385
1.07432
1.07483
1.07535
1.07588
1.07639
1.07684
1.07719
1.07736
1.07724
1.07671
1.07563
1.07385
1.07123
1.06766
1.06309
1.05753
1.05112
1.04412
1.03689
1.02985
1.02338
1.01775
1.01309
1.0094
1.00658
1.00451
1.00303
1.002
1.00129
1.00082
1.00051
1.00032
1.00019
1.00011
1.00007
1.00004
1.00002
1.00001
1.00001
1
1
1
1
1
1
1
1
1
1
1
1
1
1
1
1
1
1
1
1
1
1
1
1
1
1
1
1
1
1
1
1
1
1
1
1
1
1
1
1
1
1
1
1
1.06291
1.06305
1.0632
1.06335
1.06352
1.06369
1.06386
1.06403
1.0642
1.06437
1.06455
1.06472
1.06489
1.06506
1.06523
1.0654
1.06557
1.06574
1.06592
1.06609
1.06626
1.06644
1.06661
1.06679
1.06696
1.06713
1.0673
1.06747
1.06763
1.06779
1.06794
1.06809
1.06823
1.06836
1.06849
1.0686
1.06871
1.06881
1.0689
1.06898
1.06905
1.06912
1.06918
1.06924
1.0693
1.06936
1.06942
1.06948
1.06955
1.06963
1.06971
1.06981
1.06992
1.07004
1.07018
1.07035
1.07054
1.07076
1.07102
1.07131
1.07163
1.072
1.07241
1.07286
1.07336
1.0739
1.07449
1.07513
1.0758
1.0765
1.07724
1.078
1.07877
1.07955
1.08033
1.0811
1.08186
1.0826
1.08331
1.08399
1.08465
1.08527
1.08586
1.08642
1.08695
1.08745
1.08792
1.08836
1.08878
1.08918
1.08955
1.08989
1.09021
1.0905
1.09076
1.091
1.0912
1.09138
1.09152
1.09164
1.09173
1.09179
1.09182
1.09183
1.09181
1.09179
1.09175
1.09171
1.09167
1.09164
1.09163
1.09164
1.09169
1.09179
1.09194
1.09214
1.0924
1.09272
1.09309
1.09352
1.09398
1.09447
1.09498
1.09549
1.09599
1.09647
1.0969
1.09729
1.09763
1.09791
1.09812
1.09827
1.09836
1.09839
1.09837
1.09831
1.09822
1.09809
1.09795
1.09779
1.09761
1.09744
1.09726
1.09707
1.0969
1.09672
1.09655
1.09638
1.09621
1.09604
1.09588
1.09572
1.09555
1.09539
1.09523
1.09506
1.09489
1.09472
1.09454
1.09436
1.09417
1.09398
1.09379
1.09359
1.09338
1.09317
1.09296
1.09274
1.09252
1.09229
1.09207
1.09185
1.09162
1.0914
1.09117
1.09095
1.09073
1.09052
1.09031
1.0901
1.0899
1.0897
1.08951
1.08933
1.08915
1.08897
1.0888
1.08864
1.08849
1.08834
1.0882
1.08807
1.08794
1.08783
1.08773
1.08763
1.08755
1.08749
1.08743
1.0874
1.08738
1.08738
1.08741
1.08745
1.08753
1.08762
1.08774
1.08789
1.08807
1.08827
1.0885
1.08875
1.08903
1.08933
1.08965
1.09
1.09036
1.09075
1.09115
1.09156
1.092
1.09244
1.0929
1.09338
1.09386
1.09437
1.09488
1.09541
1.09595
1.09651
1.09708
1.09766
1.09826
1.09887
1.0995
1.10014
1.1008
1.10147
1.10216
1.10286
1.10358
1.10431
1.10505
1.1058
1.10657
1.10735
1.10813
1.10892
1.10971
1.1105
1.11128
1.11206
1.11283
1.11359
1.11433
1.11505
1.11575
1.11643
1.11708
1.11771
1.11831
1.11889
1.11945
1.11998
1.12049
1.12099
1.12147
1.12193
1.12238
1.12281
1.12323
1.12363
1.12401
1.12437
1.1247
1.12498
1.12522
1.12539
1.12547
1.12545
1.12529
1.12498
1.12449
1.12378
1.12285
1.12169
1.12029
1.11866
1.11682
1.11479
1.11262
1.11032
1.10792
1.10544
1.10288
1.10025
1.09756
1.09482
1.09207
1.08935
1.0867
1.08419
1.08186
1.07977
1.07795
1.07641
1.07517
1.0742
1.07349
1.07302
1.07274
1.07264
1.07268
1.07284
1.0731
1.07343
1.07382
1.07426
1.07474
1.07523
1.07572
1.07619
1.0766
1.0769
1.077
1.07682
1.07623
1.07511
1.07331
1.07073
1.06726
1.06284
1.0575
1.05133
1.04456
1.03751
1.03058
1.02414
1.01846
1.01371
1.0099
1.00698
1.00481
1.00325
1.00215
1.0014
1.00089
1.00056
1.00034
1.00021
1.00012
1.00007
1.00004
1.00002
1.00001
1.00001
1
1
1
1
1
1
1
1
1
1
1
1
1
1
1
1
1
1
1
1
1
1
1
1
1
1
1
1
1
1
1
1
1
1
1
1
1
1
1
1
1
1
1
1
1.06294
1.06308
1.06324
1.0634
1.06357
1.06374
1.06392
1.0641
1.06428
1.06446
1.06465
1.06483
1.06501
1.06519
1.06537
1.06555
1.06573
1.06591
1.06608
1.06626
1.06644
1.06662
1.06679
1.06697
1.06714
1.06731
1.06747
1.06763
1.06778
1.06793
1.06807
1.0682
1.06833
1.06845
1.06855
1.06865
1.06874
1.06883
1.0689
1.06897
1.06902
1.06908
1.06913
1.06917
1.06922
1.06927
1.06932
1.06937
1.06944
1.06951
1.06959
1.06968
1.06979
1.06992
1.07007
1.07025
1.07045
1.07068
1.07094
1.07124
1.07157
1.07194
1.07235
1.0728
1.07329
1.07382
1.07439
1.075
1.07564
1.07633
1.07704
1.07777
1.07852
1.07928
1.08005
1.08081
1.08156
1.0823
1.08301
1.0837
1.08436
1.08499
1.08559
1.08615
1.08669
1.0872
1.08767
1.08812
1.08855
1.08895
1.08932
1.08967
1.08999
1.09029
1.09056
1.0908
1.09101
1.0912
1.09135
1.09147
1.09157
1.09163
1.09167
1.09169
1.09169
1.09167
1.09165
1.09162
1.09159
1.09157
1.09157
1.09159
1.09165
1.09175
1.0919
1.0921
1.09236
1.09267
1.09304
1.09345
1.0939
1.09438
1.09487
1.09537
1.09586
1.09633
1.09676
1.09715
1.09748
1.09775
1.09796
1.09811
1.0982
1.09823
1.09822
1.09816
1.09806
1.09793
1.09778
1.09761
1.09744
1.09725
1.09707
1.09688
1.0967
1.09652
1.09635
1.09618
1.09601
1.09585
1.09569
1.09553
1.09538
1.09522
1.09507
1.09492
1.09476
1.0946
1.09444
1.09428
1.09411
1.09394
1.09376
1.09358
1.0934
1.09321
1.09301
1.09281
1.09261
1.09241
1.0922
1.09199
1.09177
1.09156
1.09135
1.09113
1.09092
1.09071
1.0905
1.09029
1.09009
1.08989
1.08969
1.0895
1.08931
1.08913
1.08895
1.08878
1.08861
1.08846
1.08831
1.08816
1.08803
1.08791
1.0878
1.0877
1.08761
1.08754
1.08748
1.08745
1.08743
1.08743
1.08745
1.0875
1.08757
1.08767
1.08779
1.08794
1.08811
1.08831
1.08854
1.08879
1.08907
1.08937
1.08969
1.09003
1.0904
1.09078
1.09118
1.09159
1.09203
1.09247
1.09293
1.09341
1.09389
1.0944
1.09491
1.09544
1.09598
1.09654
1.09711
1.09769
1.09829
1.09891
1.09953
1.10018
1.10084
1.10151
1.1022
1.1029
1.10362
1.10435
1.1051
1.10585
1.10662
1.10739
1.10816
1.10895
1.10973
1.11051
1.11128
1.11205
1.11281
1.11356
1.11429
1.115
1.1157
1.11637
1.11702
1.11765
1.11825
1.11883
1.11938
1.11992
1.12043
1.12092
1.1214
1.12186
1.1223
1.12272
1.12313
1.12351
1.12388
1.12421
1.1245
1.12475
1.12493
1.12503
1.12502
1.12489
1.12461
1.12415
1.12349
1.12261
1.12152
1.12019
1.11866
1.11695
1.11509
1.11311
1.11105
1.10895
1.10681
1.10464
1.10244
1.10019
1.09788
1.0955
1.09306
1.09058
1.0881
1.08567
1.08335
1.0812
1.07928
1.0776
1.0762
1.07507
1.0742
1.07358
1.07318
1.07297
1.07291
1.07299
1.07319
1.07346
1.07381
1.07421
1.07465
1.07511
1.07557
1.076
1.07636
1.0766
1.07665
1.0764
1.07576
1.07459
1.07278
1.07023
1.06684
1.06256
1.05741
1.05148
1.04493
1.03807
1.03126
1.02486
1.01915
1.01432
1.01042
1.00739
1.00512
1.00347
1.00231
1.0015
1.00096
1.00061
1.00038
1.00023
1.00014
1.00008
1.00005
1.00003
1.00001
1.00001
1
1
1
1
1
1
1
1
1
1
1
1
1
1
1
1
1
1
1
1
1
1
1
1
1
1
1
1
1
1
1
1
1
1
1
1
1
1
1
1
1
1
1
1
1.06298
1.06312
1.06328
1.06345
1.06363
1.06381
1.064
1.06419
1.06438
1.06457
1.06476
1.06495
1.06514
1.06533
1.06552
1.06571
1.0659
1.06608
1.06627
1.06645
1.06663
1.06681
1.06699
1.06716
1.06733
1.06749
1.06764
1.06779
1.06794
1.06807
1.0682
1.06831
1.06842
1.06852
1.06861
1.0687
1.06877
1.06884
1.06889
1.06894
1.06899
1.06903
1.06907
1.0691
1.06914
1.06918
1.06922
1.06927
1.06933
1.0694
1.06948
1.06958
1.06969
1.06983
1.06998
1.07017
1.07038
1.07062
1.07089
1.0712
1.07153
1.07191
1.07231
1.07276
1.07323
1.07375
1.0743
1.07488
1.0755
1.07615
1.07683
1.07754
1.07826
1.079
1.07975
1.0805
1.08124
1.08198
1.08269
1.08338
1.08405
1.08469
1.0853
1.08587
1.08642
1.08693
1.08742
1.08788
1.08831
1.08872
1.0891
1.08946
1.08979
1.0901
1.09037
1.09062
1.09085
1.09104
1.0912
1.09133
1.09144
1.09151
1.09156
1.09159
1.0916
1.09159
1.09158
1.09156
1.09154
1.09153
1.09154
1.09157
1.09164
1.09174
1.09189
1.09209
1.09234
1.09264
1.09299
1.09339
1.09383
1.09429
1.09478
1.09526
1.09574
1.0962
1.09663
1.09701
1.09734
1.09761
1.09782
1.09797
1.09806
1.0981
1.09808
1.09802
1.09792
1.09779
1.09764
1.09747
1.09728
1.0971
1.09691
1.09672
1.09653
1.09635
1.09617
1.096
1.09583
1.09567
1.09551
1.09536
1.09521
1.09507
1.09492
1.09478
1.09464
1.09449
1.09434
1.0942
1.09405
1.09389
1.09373
1.09357
1.09341
1.09324
1.09306
1.09288
1.0927
1.09251
1.09232
1.09212
1.09193
1.09172
1.09152
1.09132
1.09111
1.0909
1.0907
1.09049
1.09029
1.09008
1.08988
1.08968
1.08949
1.0893
1.08911
1.08893
1.08876
1.08859
1.08843
1.08828
1.08813
1.088
1.08788
1.08777
1.08768
1.0876
1.08754
1.0875
1.08748
1.08748
1.0875
1.08755
1.08762
1.08772
1.08784
1.08799
1.08816
1.08836
1.08859
1.08884
1.08911
1.08941
1.08973
1.09007
1.09044
1.09082
1.09121
1.09163
1.09206
1.09251
1.09297
1.09344
1.09393
1.09443
1.09495
1.09548
1.09602
1.09658
1.09715
1.09773
1.09833
1.09895
1.09958
1.10022
1.10088
1.10156
1.10225
1.10296
1.10368
1.10441
1.10515
1.10591
1.10667
1.10744
1.10821
1.10899
1.10976
1.11053
1.11129
1.11205
1.1128
1.11353
1.11425
1.11496
1.11565
1.11632
1.11696
1.11759
1.11819
1.11877
1.11932
1.11985
1.12036
1.12085
1.12132
1.12178
1.12221
1.12262
1.12301
1.12338
1.12372
1.12402
1.12427
1.12446
1.12457
1.12458
1.12447
1.12421
1.12378
1.12315
1.12232
1.12126
1.12
1.11853
1.11689
1.11512
1.11327
1.11136
1.10945
1.10755
1.10567
1.10382
1.10197
1.10009
1.09816
1.09613
1.09401
1.0918
1.08951
1.0872
1.08493
1.08276
1.08074
1.07893
1.07737
1.07607
1.07504
1.07426
1.07371
1.07337
1.07321
1.0732
1.07331
1.07353
1.07383
1.07418
1.07458
1.075
1.07542
1.07581
1.07613
1.07632
1.0763
1.07599
1.07529
1.07408
1.07226
1.06972
1.0664
1.06226
1.05729
1.05156
1.04524
1.03857
1.03189
1.02554
1.01982
1.01493
1.01093
1.0078
1.00543
1.0037
1.00247
1.00162
1.00104
1.00066
1.00041
1.00025
1.00015
1.00009
1.00005
1.00003
1.00002
1.00001
1
1
1
1
1
1
1
1
1
1
1
1
1
1
1
1
1
1
1
1
1
1
1
1
1
1
1
1
1
1
1
1
1
1
1
1
1
1
1
1
1
1
1
1
1.06302
1.06317
1.06334
1.06352
1.0637
1.06389
1.06409
1.06428
1.06449
1.06469
1.06489
1.06509
1.0653
1.0655
1.06569
1.06589
1.06608
1.06628
1.06647
1.06665
1.06683
1.06701
1.06719
1.06735
1.06752
1.06767
1.06782
1.06796
1.06808
1.0682
1.06832
1.06842
1.06851
1.06859
1.06866
1.06873
1.06879
1.06884
1.06888
1.06892
1.06895
1.06898
1.06901
1.06904
1.06907
1.06911
1.06915
1.06919
1.06925
1.06932
1.0694
1.0695
1.06962
1.06977
1.06993
1.07013
1.07035
1.0706
1.07088
1.0712
1.07154
1.07191
1.07232
1.07275
1.07321
1.07371
1.07423
1.07479
1.07538
1.07599
1.07664
1.07731
1.07801
1.07872
1.07945
1.08018
1.08091
1.08164
1.08235
1.08305
1.08372
1.08437
1.08498
1.08557
1.08613
1.08666
1.08716
1.08763
1.08807
1.08849
1.08888
1.08925
1.08959
1.0899
1.09019
1.09045
1.09068
1.09088
1.09106
1.0912
1.09131
1.0914
1.09146
1.0915
1.09152
1.09152
1.09152
1.09151
1.0915
1.09151
1.09152
1.09156
1.09164
1.09174
1.09189
1.09209
1.09233
1.09263
1.09297
1.09335
1.09378
1.09423
1.0947
1.09517
1.09564
1.09609
1.09651
1.09689
1.09722
1.09749
1.09771
1.09786
1.09795
1.09799
1.09797
1.09791
1.09781
1.09768
1.09753
1.09735
1.09717
1.09698
1.09678
1.09659
1.0964
1.09621
1.09603
1.09586
1.09569
1.09553
1.09537
1.09522
1.09508
1.09494
1.0948
1.09466
1.09453
1.09439
1.09426
1.09412
1.09399
1.09385
1.09371
1.09356
1.09341
1.09326
1.0931
1.09294
1.09278
1.09261
1.09243
1.09225
1.09207
1.09188
1.09169
1.0915
1.0913
1.0911
1.0909
1.09069
1.09049
1.09029
1.09008
1.08988
1.08968
1.08948
1.08929
1.0891
1.08891
1.08874
1.08856
1.0884
1.08825
1.08811
1.08797
1.08786
1.08776
1.08767
1.08761
1.08756
1.08754
1.08754
1.08756
1.0876
1.08767
1.08777
1.08789
1.08804
1.08821
1.08841
1.08864
1.08889
1.08916
1.08946
1.08978
1.09012
1.09048
1.09086
1.09126
1.09167
1.0921
1.09255
1.09301
1.09348
1.09397
1.09447
1.09499
1.09552
1.09606
1.09662
1.09719
1.09778
1.09838
1.099
1.09963
1.10028
1.10094
1.10162
1.10231
1.10302
1.10374
1.10448
1.10522
1.10598
1.10674
1.1075
1.10827
1.10903
1.1098
1.11056
1.11131
1.11205
1.11279
1.11351
1.11422
1.11492
1.1156
1.11627
1.11691
1.11753
1.11813
1.1187
1.11926
1.11979
1.1203
1.12078
1.12125
1.12169
1.12211
1.12251
1.12288
1.12323
1.12353
1.12379
1.12399
1.12411
1.12413
1.12403
1.12379
1.12338
1.12279
1.12198
1.12096
1.11973
1.11831
1.11672
1.11501
1.11322
1.1114
1.1096
1.10785
1.10617
1.10456
1.10301
1.10149
1.09997
1.09838
1.09671
1.09491
1.09297
1.0909
1.08875
1.08656
1.08439
1.08231
1.0804
1.07869
1.07722
1.07601
1.07505
1.07434
1.07386
1.07358
1.07346
1.07349
1.07363
1.07387
1.07417
1.07453
1.07491
1.07529
1.07563
1.0759
1.07603
1.07596
1.07559
1.07483
1.07358
1.07174
1.06921
1.06595
1.06192
1.05711
1.05159
1.04548
1.03901
1.03247
1.0262
1.02048
1.01553
1.01144
1.00821
1.00575
1.00394
1.00264
1.00174
1.00112
1.00071
1.00044
1.00027
1.00016
1.0001
1.00006
1.00003
1.00002
1.00001
1.00001
1
1
1
1
1
1
1
1
1
1
1
1
1
1
1
1
1
1
1
1
1
1
1
1
1
1
1
1
1
1
1
1
1
1
1
1
1
1
1
1
1
1
1
1.06308
1.06324
1.06341
1.06359
1.06378
1.06398
1.06419
1.0644
1.06461
1.06482
1.06504
1.06525
1.06546
1.06567
1.06588
1.06608
1.06628
1.06648
1.06667
1.06686
1.06704
1.06722
1.06739
1.06755
1.0677
1.06785
1.06798
1.06811
1.06823
1.06833
1.06843
1.06851
1.06859
1.06865
1.06871
1.06876
1.0688
1.06884
1.06887
1.0689
1.06893
1.06895
1.06897
1.069
1.06903
1.06906
1.0691
1.06915
1.06921
1.06928
1.06937
1.06948
1.06961
1.06976
1.06994
1.07015
1.07038
1.07065
1.07094
1.07126
1.0716
1.07198
1.07237
1.0728
1.07324
1.07371
1.07421
1.07473
1.07528
1.07586
1.07647
1.07711
1.07777
1.07845
1.07915
1.07986
1.08058
1.0813
1.08201
1.08271
1.08339
1.08404
1.08467
1.08527
1.08584
1.08638
1.0869
1.08738
1.08784
1.08827
1.08867
1.08905
1.0894
1.08973
1.09003
1.0903
1.09055
1.09076
1.09095
1.0911
1.09123
1.09132
1.0914
1.09144
1.09148
1.09149
1.0915
1.0915
1.0915
1.09152
1.09154
1.09159
1.09167
1.09178
1.09193
1.09212
1.09236
1.09264
1.09297
1.09335
1.09375
1.09419
1.09465
1.09511
1.09557
1.09601
1.09643
1.0968
1.09713
1.09741
1.09763
1.09778
1.09788
1.09792
1.09791
1.09786
1.09776
1.09763
1.09747
1.0973
1.09711
1.09691
1.09671
1.09651
1.09632
1.09613
1.09595
1.09577
1.0956
1.09544
1.09528
1.09513
1.09498
1.09484
1.09471
1.09458
1.09445
1.09432
1.09419
1.09407
1.09394
1.09382
1.09369
1.09356
1.09342
1.09329
1.09315
1.093
1.09285
1.0927
1.09254
1.09237
1.0922
1.09203
1.09185
1.09167
1.09148
1.09129
1.09109
1.09089
1.09069
1.09049
1.09029
1.09008
1.08988
1.08968
1.08948
1.08928
1.08909
1.0889
1.08872
1.08854
1.08838
1.08822
1.08809
1.08796
1.08785
1.08776
1.08769
1.08764
1.08761
1.0876
1.08762
1.08767
1.08774
1.08783
1.08795
1.0881
1.08827
1.08847
1.08869
1.08894
1.08921
1.08951
1.08983
1.09017
1.09053
1.09091
1.0913
1.09172
1.09215
1.09259
1.09305
1.09353
1.09402
1.09452
1.09504
1.09557
1.09611
1.09667
1.09724
1.09783
1.09844
1.09905
1.09969
1.10034
1.10101
1.10169
1.10239
1.1031
1.10382
1.10456
1.10531
1.10606
1.10682
1.10758
1.10834
1.10909
1.10985
1.11059
1.11133
1.11206
1.11279
1.1135
1.1142
1.11489
1.11556
1.11621
1.11685
1.11747
1.11807
1.11864
1.11919
1.11972
1.12022
1.1207
1.12116
1.1216
1.12201
1.12239
1.12274
1.12305
1.12331
1.12351
1.12364
1.12367
1.12359
1.12336
1.12297
1.12239
1.12161
1.12062
1.11942
1.11803
1.11648
1.1148
1.11305
1.11128
1.10954
1.10787
1.1063
1.10485
1.1035
1.10224
1.10102
1.09982
1.09856
1.09721
1.09572
1.09406
1.09224
1.09027
1.08819
1.08606
1.08396
1.08196
1.08012
1.07849
1.0771
1.07597
1.07509
1.07445
1.07403
1.07379
1.07372
1.07378
1.07394
1.07419
1.07449
1.07482
1.07516
1.07546
1.07567
1.07575
1.07562
1.0752
1.07438
1.07309
1.07121
1.0687
1.06549
1.06155
1.05689
1.05156
1.04567
1.03939
1.03301
1.02682
1.02112
1.01612
1.01196
1.00863
1.00608
1.00418
1.00282
1.00186
1.0012
1.00077
1.00048
1.00029
1.00018
1.00011
1.00006
1.00004
1.00002
1.00001
1.00001
1
1
1
1
1
1
1
1
1
1
1
1
1
1
1
1
1
1
1
1
1
1
1
1
1
1
1
1
1
1
1
1
1
1
1
1
1
1
1
1
1
1
1
1.06314
1.06331
1.06349
1.06368
1.06388
1.06409
1.0643
1.06452
1.06475
1.06497
1.0652
1.06542
1.06564
1.06586
1.06608
1.06629
1.06649
1.06669
1.06689
1.06707
1.06725
1.06743
1.06759
1.06774
1.06789
1.06802
1.06815
1.06826
1.06836
1.06845
1.06853
1.0686
1.06866
1.06871
1.06876
1.06879
1.06883
1.06886
1.06888
1.0689
1.06892
1.06895
1.06897
1.06899
1.06902
1.06906
1.0691
1.06916
1.06922
1.0693
1.0694
1.06952
1.06966
1.06983
1.07002
1.07024
1.07049
1.07076
1.07106
1.07139
1.07173
1.0721
1.07249
1.0729
1.07333
1.07377
1.07424
1.07473
1.07524
1.07578
1.07634
1.07694
1.07756
1.07821
1.07888
1.07957
1.08027
1.08097
1.08168
1.08237
1.08305
1.08372
1.08436
1.08497
1.08555
1.08611
1.08664
1.08713
1.0876
1.08805
1.08846
1.08886
1.08922
1.08956
1.08987
1.09016
1.09042
1.09064
1.09084
1.09101
1.09114
1.09125
1.09134
1.0914
1.09144
1.09147
1.09149
1.0915
1.09152
1.09155
1.09158
1.09164
1.09173