# vtk DataFile Version 2.0
LBE two cylinders
ASCII
DATASET STRUCTURED_POINTS
DIMENSIONS 400 100 1
ASPECT_RATIO 1 1 1
ORIGIN 0 0 0
POINT_DATA 40000
SCALARS rho double 1
LOOKUP_TABLE default
1.02664
1.03894
1.05388
1.06993
1.08501
1.09782
1.10762
1.11432
1.11835
1.12043
1.12126
1.1214
1.12123
1.12092
1.12055
1.12014
1.11968
1.11919
1.11867
1.11814
1.11759
1.11705
1.11651
1.11597
1.11545
1.11494
1.11444
1.11395
1.11346
1.11299
1.11252
1.11206
1.11162
1.1112
1.11079
1.1104
1.11003
1.10969
1.10937
1.10907
1.10878
1.10852
1.10828
1.10805
1.10783
1.10763
1.10744
1.10726
1.10709
1.10694
1.10679
1.10666
1.10654
1.10643
1.10633
1.10625
1.10618
1.10612
1.10607
1.10603
1.10601
1.10599
1.10599
1.106
1.10601
1.10604
1.10607
1.10612
1.10617
1.10623
1.1063
1.10638
1.10646
1.10656
1.10665
1.10676
1.10687
1.10699
1.10711
1.10723
1.10736
1.10749
1.10762
1.10774
1.10787
1.108
1.10812
1.10825
1.10836
1.10847
1.10858
1.10868
1.10877
1.10885
1.10892
1.10898
1.10904
1.10908
1.10911
1.10912
1.10913
1.10912
1.10911
1.10908
1.10904
1.10898
1.10892
1.10885
1.10877
1.10868
1.10858
1.10847
1.10836
1.10825
1.10812
1.108
1.10787
1.10774
1.10762
1.10749
1.10736
1.10723
1.10711
1.10699
1.10687
1.10676
1.10665
1.10656
1.10646
1.10638
1.1063
1.10623
1.10617
1.10612
1.10607
1.10604
1.10601
1.106
1.10599
1.10599
1.10601
1.10603
1.10607
1.10612
1.10618
1.10625
1.10633
1.10643
1.10654
1.10666
1.10679
1.10694
1.10709
1.10726
1.10744
1.10763
1.10783
1.10805
1.10828
1.10852
1.10878
1.10907
1.10937
1.10969
1.11003
1.1104
1.11079
1.1112
1.11162
1.11206
1.11252
1.11299
1.11346
1.11395
1.11444
1.11494
1.11545
1.11597
1.11651
1.11705
1.11759
1.11814
1.11867
1.11919
1.11968
1.12014
1.12055
1.12092
1.12123
1.12141
1.12127
1.12045
1.1184
1.11442
1.10781
1.09817
1.08563
1.07102
1.05571
1.04124
1.02883
1.0191
1.01205
1.00726
1.0042
1.00234
1.00126
1.00065
1.00033
1.00016
1.00007
1.00003
1.00001
1.00001
1
1
1
1
1
1
1
1
1
1
1
1
1
1
1
1
1
1
1
1
1
1
1
1
1
1
1
1
1
1
1
1
1
1
1
1
1
1
1
1
1
1
1
1
1
1
1
1
1
1
1
1
1
1
1
1
1
1
1
1
1
1
1
1
1
1
1
1
1
1
1
1
1
1
1
1
1
1
1
1
1
1
1
1
1
1
1
1
1
1
1
1
1
1
1
1
1
1
1
1
1
1
1
1
1
1
1
1
1
1
1
1
1
1
1
1
1
1
1
1
1
1
1
1
1
1
1
1
1
1
1
1
1
1
1
1
1
1
1
1
1
1
1
1
1
1
1
1
1
1
1
1
1
1
1
1
1
1
1
1
1
1
1
1
1
1
1
1
1
1
1
1
1
1
1
1
1
1
1
1
1
1
1
1
1
1
1.02756
1.04097
1.05584
1.07075
1.08444
1.09606
1.10515
1.11174
1.11614
1.1188
1.1202
1.12076
1.12081
1.12059
1.12025
1.11985
1.11941
1.11895
1.11846
1.11795
1.11743
1.1169
1.11637
1.11586
1.11535
1.11485
1.11435
1.11387
1.11339
1.11292
1.11247
1.11202
1.11158
1.11116
1.11076
1.11038
1.11001
1.10967
1.10935
1.10905
1.10876
1.1085
1.10826
1.10803
1.10781
1.10761
1.10742
1.10724
1.10707
1.10692
1.10677
1.10664
1.10652
1.10641
1.10632
1.10623
1.10616
1.1061
1.10605
1.10602
1.10599
1.10598
1.10597
1.10598
1.10599
1.10602
1.10605
1.10609
1.10615
1.10621
1.10627
1.10635
1.10643
1.10652
1.10662
1.10673
1.10684
1.10695
1.10707
1.10719
1.10731
1.10744
1.10757
1.1077
1.10782
1.10795
1.10807
1.10819
1.1083
1.10841
1.10852
1.10861
1.1087
1.10878
1.10886
1.10892
1.10897
1.10901
1.10904
1.10906
1.10906
1.10906
1.10904
1.10901
1.10897
1.10892
1.10886
1.10878
1.1087
1.10861
1.10852
1.10841
1.1083
1.10819
1.10807
1.10795
1.10782
1.1077
1.10757
1.10744
1.10731
1.10719
1.10707
1.10695
1.10684
1.10673
1.10662
1.10652
1.10643
1.10635
1.10627
1.10621
1.10615
1.10609
1.10605
1.10602
1.10599
1.10598
1.10597
1.10598
1.10599
1.10602
1.10605
1.1061
1.10616
1.10623
1.10632
1.10641
1.10652
1.10664
1.10677
1.10692
1.10707
1.10724
1.10742
1.10761
1.10781
1.10803
1.10826
1.1085
1.10876
1.10905
1.10935
1.10967
1.11001
1.11038
1.11076
1.11116
1.11158
1.11202
1.11247
1.11292
1.11339
1.11387
1.11435
1.11485
1.11535
1.11586
1.11637
1.1169
1.11743
1.11795
1.11846
1.11895
1.11941
1.11985
1.12025
1.1206
1.12082
1.12077
1.12022
1.11883
1.1162
1.11186
1.10539
1.0965
1.08522
1.07203
1.05787
1.04401
1.03163
1.02152
1.0139
1.00857
1.00506
1.00288
1.00157
1.00083
1.00042
1.00021
1.0001
1.00005
1.00002
1.00001
1
1
1
1
1
1
1
1
1
1
1
1
1
1
1
1
1
1
1
1
1
1
1
1
1
1
1
1
1
1
1
1
1
1
1
1
1
1
1
1
1
1
1
1
1
1
1
1
1
1
1
1
1
1
1
1
1
1
1
1
1
1
1
1
1
1
1
1
1
1
1
1
1
1
1
1
1
1
1
1
1
1
1
1
1
1
1
1
1
1
1
1
1
1
1
1
1
1
1
1
1
1
1
1
1
1
1
1
1
1
1
1
1
1
1
1
1
1
1
1
1
1
1
1
1
1
1
1
1
1
1
1
1
1
1
1
1
1
1
1
1
1
1
1
1
1
1
1
1
1
1
1
1
1
1
1
1
1
1
1
1
1
1
1
1
1
1
1
1
1
1
1
1
1
1
1
1
1
1
1
1
1
1
1
1
1
1.02868
1.04273
1.05719
1.07106
1.08362
1.09428
1.10283
1.10934
1.11402
1.11714
1.11899
1.11992
1.12022
1.12015
1.11988
1.11952
1.11911
1.11867
1.1182
1.11772
1.11722
1.11671
1.11621
1.11571
1.11522
1.11474
1.11426
1.11379
1.11332
1.11286
1.11241
1.11198
1.11155
1.11113
1.11074
1.11036
1.10999
1.10965
1.10933
1.10903
1.10875
1.10848
1.10824
1.10801
1.10779
1.10759
1.1074
1.10722
1.10705
1.1069
1.10676
1.10663
1.10651
1.1064
1.1063
1.10622
1.10615
1.10609
1.10604
1.106
1.10598
1.10596
1.10595
1.10596
1.10597
1.106
1.10603
1.10607
1.10612
1.10618
1.10625
1.10633
1.10641
1.1065
1.1066
1.1067
1.10681
1.10692
1.10704
1.10716
1.10728
1.10741
1.10753
1.10766
1.10778
1.10791
1.10803
1.10815
1.10826
1.10837
1.10847
1.10857
1.10865
1.10873
1.1088
1.10886
1.10891
1.10895
1.10898
1.109
1.10901
1.109
1.10898
1.10895
1.10891
1.10886
1.1088
1.10873
1.10865
1.10857
1.10847
1.10837
1.10826
1.10815
1.10803
1.10791
1.10778
1.10766
1.10753
1.10741
1.10728
1.10716
1.10704
1.10692
1.10681
1.1067
1.1066
1.1065
1.10641
1.10633
1.10625
1.10618
1.10612
1.10607
1.10603
1.106
1.10597
1.10596
1.10595
1.10596
1.10598
1.106
1.10604
1.10609
1.10615
1.10622
1.1063
1.1064
1.10651
1.10663
1.10676
1.1069
1.10705
1.10722
1.1074
1.10759
1.10779
1.10801
1.10824
1.10848
1.10875
1.10903
1.10933
1.10965
1.10999
1.11036
1.11074
1.11113
1.11155
1.11198
1.11241
1.11286
1.11332
1.11379
1.11426
1.11474
1.11522
1.11571
1.11621
1.11671
1.11722
1.11772
1.1182
1.11867
1.11911
1.11952
1.11988
1.12015
1.12022
1.11992
1.11901
1.11717
1.1141
1.1095
1.10314
1.09484
1.08461
1.07269
1.05969
1.04656
1.03437
1.02401
1.0159
1.01002
1.00604
1.00349
1.00194
1.00104
1.00054
1.00027
1.00013
1.00006
1.00003
1.00001
1.00001
1
1
1
1
1
1
1
1
1
1
1
1
1
1
1
1
1
1
1
1
1
1
1
1
1
1
1
1
1
1
1
1
1
1
1
1
1
1
1
1
1
1
1
1
1
1
1
1
1
1
1
1
1
1
1
1
1
1
1
1
1
1
1
1
1
1
1
1
1
1
1
1
1
1
1
1
1
1
1
1
1
1
1
1
1
1
1
1
1
1
1
1
1
1
1
1
1
1
1
1
1
1
1
1
1
1
1
1
1
1
1
1
1
1
1
1
1
1
1
1
1
1
1
1
1
1
1
1
1
1
1
1
1
1
1
1
1
1
1
1
1
1
1
1
1
1
1
1
1
1
1
1
1
1
1
1
1
1
1
1
1
1
1
1
1
1
1
1
1
1
1
1
1
1
1
1
1
1
1
1
1
1
1
1
1
1.03053
1.04426
1.05783
1.07056
1.08195
1.09176
1.10001
1.10669
1.11182
1.11546
1.11778
1.11907
1.11962
1.11971
1.11952
1.1192
1.11882
1.11839
1.11795
1.11749
1.11701
1.11653
1.11605
1.11557
1.11509
1.11463
1.11416
1.11371
1.11326
1.11281
1.11237
1.11194
1.11152
1.11112
1.11072
1.11035
1.10999
1.10965
1.10932
1.10902
1.10874
1.10847
1.10822
1.10799
1.10777
1.10757
1.10738
1.1072
1.10703
1.10688
1.10674
1.10661
1.10649
1.10639
1.10629
1.10621
1.10614
1.10608
1.10603
1.10599
1.10596
1.10595
1.10594
1.10594
1.10596
1.10598
1.10601
1.10605
1.10611
1.10616
1.10623
1.10631
1.10639
1.10648
1.10657
1.10668
1.10678
1.1069
1.10701
1.10713
1.10726
1.10738
1.10751
1.10763
1.10776
1.10788
1.108
1.10812
1.10823
1.10834
1.10844
1.10854
1.10863
1.10871
1.10879
1.10885
1.1089
1.10894
1.10897
1.10899
1.109
1.10899
1.10897
1.10894
1.1089
1.10885
1.10879
1.10871
1.10863
1.10854
1.10844
1.10834
1.10823
1.10812
1.108
1.10788
1.10776
1.10763
1.10751
1.10738
1.10726
1.10713
1.10701
1.1069
1.10678
1.10668
1.10657
1.10648
1.10639
1.10631
1.10623
1.10616
1.10611
1.10605
1.10601
1.10598
1.10596
1.10594
1.10594
1.10595
1.10596
1.10599
1.10603
1.10608
1.10614
1.10621
1.10629
1.10639
1.10649
1.10661
1.10674
1.10688
1.10703
1.1072
1.10738
1.10757
1.10777
1.10799
1.10822
1.10847
1.10874
1.10902
1.10932
1.10965
1.10999
1.11035
1.11072
1.11112
1.11152
1.11194
1.11237
1.11281
1.11326
1.11371
1.11416
1.11463
1.11509
1.11557
1.11605
1.11653
1.11701
1.11749
1.11795
1.11839
1.11882
1.11921
1.11953
1.11971
1.11963
1.11908
1.11781
1.11551
1.11193
1.10691
1.10041
1.09248
1.08318
1.07261
1.06102
1.04898
1.03731
1.02687
1.01831
1.01184
1.0073
1.0043
1.00244
1.00133
1.0007
1.00036
1.00017
1.00008
1.00004
1.00002
1.00001
1
1
1
1
1
1
1
1
1
1
1
1
1
1
1
1
1
1
1
1
1
1
1
1
1
1
1
1
1
1
1
1
1
1
1
1
1
1
1
1
1
1
1
1
1
1
1
1
1
1
1
1
1
1
1
1
1
1
1
1
1
1
1
1
1
1
1
1
1
1
1
1
1
1
1
1
1
1
1
1
1
1
1
1
1
1
1
1
1
1
1
1
1
1
1
1
1
1
1
1
1
1
1
1
1
1
1
1
1
1
1
1
1
1
1
1
1
1
1
1
1
1
1
1
1
1
1
1
1
1
1
1
1
1
1
1
1
1
1
1
1
1
1
1
1
1
1
1
1
1
1
1
1
1
1
1
1
1
1
1
1
1
1
1
1
1
1
1
1
1
1
1
1
1
1
1
1
1
1
1
1
1
1
1
1
1.03261
1.04572
1.05827
1.06969
1.07982
1.08877
1.09667
1.1035
1.1091
1.11336
1.11631
1.11809
1.11899
1.11927
1.11919
1.11891
1.11854
1.11814
1.11771
1.11727
1.11682
1.11636
1.1159
1.11543
1.11498
1.11453
1.11408
1.11364
1.1132
1.11277
1.11234
1.11192
1.11151
1.11111
1.11073
1.11035
1.10999
1.10965
1.10933
1.10902
1.10873
1.10846
1.10821
1.10798
1.10776
1.10755
1.10736
1.10718
1.10702
1.10687
1.10673
1.1066
1.10648
1.10637
1.10628
1.1062
1.10612
1.10606
1.10601
1.10598
1.10595
1.10593
1.10592
1.10593
1.10594
1.10596
1.10599
1.10604
1.10609
1.10614
1.10621
1.10629
1.10637
1.10646
1.10656
1.10666
1.10677
1.10688
1.10699
1.10711
1.10724
1.10736
1.10749
1.10761
1.10774
1.10786
1.10798
1.1081
1.10821
1.10832
1.10842
1.10852
1.10861
1.10869
1.10876
1.10882
1.10887
1.10891
1.10894
1.10896
1.10897
1.10896
1.10894
1.10891
1.10887
1.10882
1.10876
1.10869
1.10861
1.10852
1.10842
1.10832
1.10821
1.1081
1.10798
1.10786
1.10774
1.10761
1.10749
1.10736
1.10724
1.10711
1.10699
1.10688
1.10677
1.10666
1.10656
1.10646
1.10637
1.10629
1.10621
1.10614
1.10609
1.10604
1.10599
1.10596
1.10594
1.10593
1.10592
1.10593
1.10595
1.10598
1.10601
1.10606
1.10612
1.1062
1.10628
1.10637
1.10648
1.1066
1.10673
1.10687
1.10702
1.10718
1.10736
1.10755
1.10776
1.10798
1.10821
1.10846
1.10873
1.10902
1.10933
1.10965
1.10999
1.11035
1.11073
1.11111
1.11151
1.11192
1.11234
1.11277
1.1132
1.11364
1.11408
1.11453
1.11498
1.11543
1.1159
1.11636
1.11682
1.11727
1.11771
1.11814
1.11854
1.11891
1.11919
1.11927
1.11899
1.11811
1.11634
1.11343
1.10924
1.10377
1.09719
1.08969
1.08138
1.07221
1.06214
1.05136
1.04038
1.03003
1.02109
1.014
1.00883
1.00532
1.00307
1.0017
1.00091
1.00047
1.00023
1.00011
1.00005
1.00002
1.00001
1
1
1
1
1
1
1
1
1
1
1
1
1
1
1
1
1
1
1
1
1
1
1
1
1
1
1
1
1
1
1
1
1
1
1
1
1
1
1
1
1
1
1
1
1
1
1
1
1
1
1
1
1
1
1
1
1
1
1
1
1
1
1
1
1
1
1
1
1
1
1
1
1
1
1
1
1
1
1
1
1
1
1
1
1
1
1
1
1
1
1
1
1
1
1
1
1
1
1
1
1
1
1
1
1
1
1
1
1
1
1
1
1
1
1
1
1
1
1
1
1
1
1
1
1
1
1
1
1
1
1
1
1
1
1
1
1
1
1
1
1
1
1
1
1
1
1
1
1
1
1
1
1
1
1
1
1
1
1
1
1
1
1
1
1
1
1
1
1
1
1
1
1
1
1
1
1
1
1
1
1
1
1
1
1
1.03477
1.04705
1.05837
1.06842
1.07734
1.08548
1.09305
1.09999
1.10604
1.11092
1.1145
1.11684
1.11815
1.1187
1.11878
1.11859
1.11827
1.11789
1.11748
1.11706
1.11663
1.11619
1.11575
1.11531
1.11487
1.11444
1.11401
1.11358
1.11316
1.11274
1.11233
1.11192
1.11152
1.11112
1.11074
1.11037
1.11001
1.10967
1.10934
1.10904
1.10874
1.10847
1.10821
1.10797
1.10775
1.10754
1.10735
1.10717
1.10701
1.10686
1.10672
1.10659
1.10647
1.10637
1.10627
1.10619
1.10612
1.10605
1.106
1.10596
1.10594
1.10592
1.10591
1.10591
1.10592
1.10594
1.10598
1.10602
1.10607
1.10613
1.10619
1.10627
1.10635
1.10644
1.10654
1.10664
1.10675
1.10686
1.10698
1.1071
1.10722
1.10735
1.10747
1.1076
1.10772
1.10785
1.10797
1.10809
1.1082
1.10832
1.10842
1.10852
1.10862
1.1087
1.10878
1.10885
1.1089
1.10895
1.10898
1.109
1.109
1.109
1.10898
1.10895
1.1089
1.10885
1.10878
1.1087
1.10862
1.10852
1.10842
1.10832
1.1082
1.10809
1.10797
1.10785
1.10772
1.1076
1.10747
1.10735
1.10722
1.1071
1.10698
1.10686
1.10675
1.10664
1.10654
1.10644
1.10635
1.10627
1.10619
1.10613
1.10607
1.10602
1.10598
1.10594
1.10592
1.10591
1.10591
1.10592
1.10594
1.10596
1.106
1.10605
1.10612
1.10619
1.10627
1.10637
1.10647
1.10659
1.10672
1.10686
1.10701
1.10717
1.10735
1.10754
1.10775
1.10797
1.10821
1.10847
1.10874
1.10904
1.10934
1.10967
1.11001
1.11037
1.11074
1.11112
1.11152
1.11192
1.11233
1.11274
1.11316
1.11358
1.11401
1.11444
1.11487
1.11531
1.11575
1.11619
1.11663
1.11706
1.11748
1.11789
1.11827
1.11859
1.11878
1.11871
1.11816
1.11686
1.11455
1.11102
1.10623
1.10035
1.09371
1.08664
1.07928
1.07148
1.06297
1.05356
1.04348
1.0334
1.02417
1.0165
1.01066
1.00655
1.00385
1.00217
1.00118
1.00061
1.00031
1.00015
1.00007
1.00003
1.00001
1.00001
1
1
1
1
1
1
1
1
1
1
1
1
1
1
1
1
1
1
1
1
1
1
1
1
1
1
1
1
1
1
1
1
1
1
1
1
1
1
1
1
1
1
1
1
1
1
1
1
1
1
1
1
1
1
1
1
1
1
1
1
1
1
1
1
1
1
1
1
1
1
1
1
1
1
1
1
1
1
1
1
1
1
1
1
1
1
1
1
1
1
1
1
1
1
1
1
1
1
1
1
1
1
1
1
1
1
1
1
1
1
1
1
1
1
1
1
1
1
1
1
1
1
1
1
1
1
1
1
1
1
1
1
1
1
1
1
1
1
1
1
1
1
1
1
1
1
1
1
1
1
1
1
1
1
1
1
1
1
1
1
1
1
1
1
1
1
1
1
1
1
1
1
1
1
1
1
1
1
1
1
1
1
1
1
1.03689
1.04813
1.05816
1.06688
1.07468
1.08204
1.08923
1.0962
1.10263
1.1081
1.11234
1.11529
1.11709
1.11799
1.11829
1.11822
1.11797
1.11762
1.11724
1.11684
1.11643
1.11602
1.11561
1.11519
1.11477
1.11435
1.11393
1.11352
1.11312
1.11271
1.11231
1.11192
1.11152
1.11114
1.11076
1.1104
1.11004
1.1097
1.10937
1.10906
1.10877
1.10849
1.10823
1.10798
1.10776
1.10754
1.10735
1.10717
1.107
1.10685
1.10671
1.10658
1.10647
1.10636
1.10627
1.10618
1.10611
1.10605
1.106
1.10596
1.10592
1.1059
1.1059
1.1059
1.10591
1.10593
1.10596
1.106
1.10605
1.10611
1.10618
1.10625
1.10634
1.10643
1.10652
1.10663
1.10673
1.10685
1.10697
1.10709
1.10721
1.10733
1.10746
1.10759
1.10771
1.10784
1.10796
1.10808
1.1082
1.10831
1.10842
1.10852
1.10861
1.1087
1.10877
1.10884
1.10889
1.10893
1.10897
1.10898
1.10899
1.10898
1.10897
1.10893
1.10889
1.10884
1.10877
1.1087
1.10861
1.10852
1.10842
1.10831
1.1082
1.10808
1.10796
1.10784
1.10771
1.10759
1.10746
1.10733
1.10721
1.10709
1.10697
1.10685
1.10673
1.10663
1.10652
1.10643
1.10634
1.10625
1.10618
1.10611
1.10605
1.106
1.10596
1.10593
1.10591
1.1059
1.1059
1.1059
1.10592
1.10596
1.106
1.10605
1.10611
1.10618
1.10627
1.10636
1.10647
1.10658
1.10671
1.10685
1.107
1.10717
1.10735
1.10754
1.10776
1.10798
1.10823
1.10849
1.10877
1.10906
1.10937
1.1097
1.11004
1.1104
1.11076
1.11114
1.11152
1.11192
1.11231
1.11271
1.11312
1.11352
1.11393
1.11435
1.11477
1.11519
1.11561
1.11602
1.11643
1.11684
1.11724
1.11762
1.11797
1.11823
1.11829
1.118
1.1171
1.11532
1.1124
1.10823
1.10288
1.09667
1.09007
1.08348
1.07705
1.07056
1.06354
1.05554
1.04649
1.03685
1.0275
1.01929
1.01277
1.00801
1.00479
1.00274
1.00151
1.0008
1.00041
1.0002
1.0001
1.00004
1.00002
1.00001
1
1
1
1
1
1
1
1
1
1
1
1
1
1
1
1
1
1
1
1
1
1
1
1
1
1
1
1
1
1
1
1
1
1
1
1
1
1
1
1
1
1
1
1
1
1
1
1
1
1
1
1
1
1
1
1
1
1
1
1
1
1
1
1
1
1
1
1
1
1
1
1
1
1
1
1
1
1
1
1
1
1
1
1
1
1
1
1
1
1
1
1
1
1
1
1
1
1
1
1
1
1
1
1
1
1
1
1
1
1
1
1
1
1
1
1
1
1
1
1
1
1
1
1
1
1
1
1
1
1
1
1
1
1
1
1
1
1
1
1
1
1
1
1
1
1
1
1
1
1
1
1
1
1
1
1
1
1
1
1
1
1
1
1
1
1
1
1
1
1
1
1
1
1
1
1
1
1
1
1
1
1
1
1
1.03887
1.04895
1.05768
1.06518
1.07195
1.07856
1.08533
1.09223
1.09891
1.10489
1.10978
1.11339
1.11576
1.11709
1.11768
1.11779
1.11763
1.11734
1.11699
1.11662
1.11624
1.11585
1.11546
1.11506
1.11466
1.11426
1.11386
1.11347
1.11307
1.11268
1.1123
1.11191
1.11153
1.11116
1.11079
1.11043
1.11008
1.10974
1.10941
1.1091
1.1088
1.10852
1.10825
1.108
1.10777
1.10756
1.10736
1.10717
1.10701
1.10685
1.10671
1.10658
1.10646
1.10636
1.10626
1.10618
1.10611
1.10604
1.10599
1.10595
1.10592
1.10589
1.10588
1.10588
1.10589
1.10591
1.10594
1.10598
1.10603
1.10609
1.10616
1.10624
1.10632
1.10641
1.10651
1.10661
1.10672
1.10684
1.10696
1.10708
1.1072
1.10733
1.10745
1.10758
1.10771
1.10784
1.10796
1.10809
1.10821
1.10833
1.10844
1.10855
1.10865
1.10874
1.10882
1.10889
1.10895
1.109
1.10904
1.10906
1.10907
1.10906
1.10904
1.109
1.10895
1.10889
1.10882
1.10874
1.10865
1.10855
1.10844
1.10833
1.10821
1.10809
1.10796
1.10784
1.10771
1.10758
1.10745
1.10733
1.1072
1.10708
1.10696
1.10684
1.10672
1.10661
1.10651
1.10641
1.10632
1.10624
1.10616
1.10609
1.10603
1.10598
1.10594
1.10591
1.10589
1.10588
1.10588
1.10589
1.10592
1.10595
1.10599
1.10604
1.10611
1.10618
1.10626
1.10636
1.10646
1.10658
1.10671
1.10685
1.10701
1.10717
1.10736
1.10756
1.10777
1.108
1.10825
1.10852
1.1088
1.1091
1.10941
1.10974
1.11008
1.11043
1.11079
1.11116
1.11153
1.11191
1.1123
1.11268
1.11307
1.11347
1.11386
1.11426
1.11466
1.11506
1.11546
1.11585
1.11624
1.11662
1.11699
1.11734
1.11763
1.11779
1.11768
1.1171
1.11577
1.11343
1.10987
1.10506
1.09923
1.09282
1.08639
1.08034
1.07481
1.06952
1.06389
1.05726
1.04932
1.04029
1.03098
1.02234
1.01515
1.00971
1.00591
1.00344
1.00192
1.00103
1.00053
1.00027
1.00013
1.00006
1.00003
1.00001
1
1
1
1
1
1
1
1
1
1
1
1
1
1
1
1
1
1
1
1
1
1
1
1
1
1
1
1
1
1
1
1
1
1
1
1
1
1
1
1
1
1
1
1
1
1
1
1
1
1
1
1
1
1
1
1
1
1
1
1
1
1
1
1
1
1
1
1
1
1
1
1
1
1
1
1
1
1
1
1
1
1
1
1
1
1
1
1
1
1
1
1
1
1
1
1
1
1
1
1
1
1
1
1
1
1
1
1
1
1
1
1
1
1
1
1
1
1
1
1
1
1
1
1
1
1
1
1
1
1
1
1
1
1
1
1
1
1
1
1
1
1
1
1
1
1
1
1
1
1
1
1
1
1
1
1
1
1
1
1
1
1
1
1
1
1
1
1
1
1
1
1
1
1
1
1
1
1
1
1
1
1
1
1
1.04064
1.0495
1.05698
1.06338
1.06925
1.07517
1.08147
1.08816
1.09493
1.10131
1.10679
1.11108
1.11408
1.11594
1.11691
1.11726
1.11725
1.11704
1.11674
1.1164
1.11605
1.11569
1.11532
1.11494
1.11456
1.11417
1.11379
1.11341
1.11303
1.11265
1.11228
1.11191
1.11154
1.11118
1.11082
1.11047
1.11012
1.10978
1.10946
1.10914
1.10884
1.10856
1.10829
1.10803
1.1078
1.10758
1.10737
1.10719
1.10702
1.10686
1.10672
1.10659
1.10647
1.10636
1.10626
1.10618
1.1061
1.10604
1.10599
1.10594
1.10591
1.10589
1.10587
1.10587
1.10588
1.1059
1.10593
1.10597
1.10602
1.10608
1.10615
1.10622
1.10631
1.1064
1.1065
1.1066
1.10671
1.10683
1.10695
1.10707
1.1072
1.10732
1.10745
1.10758
1.10771
1.10784
1.10797
1.1081
1.10822
1.10834
1.10845
1.10856
1.10866
1.10875
1.10884
1.10891
1.10897
1.10902
1.10905
1.10907
1.10908
1.10907
1.10905
1.10902
1.10897
1.10891
1.10884
1.10875
1.10866
1.10856
1.10845
1.10834
1.10822
1.1081
1.10797
1.10784
1.10771
1.10758
1.10745
1.10732
1.1072
1.10707
1.10695
1.10683
1.10671
1.1066
1.1065
1.1064
1.10631
1.10622
1.10615
1.10608
1.10602
1.10597
1.10593
1.1059
1.10588
1.10587
1.10587
1.10589
1.10591
1.10594
1.10599
1.10604
1.1061
1.10618
1.10626
1.10636
1.10647
1.10659
1.10672
1.10686
1.10702
1.10719
1.10737
1.10758
1.1078
1.10803
1.10829
1.10856
1.10884
1.10914
1.10946
1.10978
1.11012
1.11047
1.11082
1.11118
1.11154
1.11191
1.11228
1.11265
1.11303
1.11341
1.11379
1.11417
1.11456
1.11494
1.11532
1.11569
1.11605
1.1164
1.11674
1.11704
1.11725
1.11727
1.11691
1.11595
1.11411
1.11113
1.1069
1.10152
1.09534
1.08891
1.08277
1.07733
1.07266
1.06844
1.06404
1.05871
1.0519
1.04363
1.03452
1.02559
1.01779
1.01165
1.00723
1.00428
1.00242
1.00132
1.00069
1.00035
1.00017
1.00008
1.00004
1.00002
1.00001
1
1
1
1
1
1
1
1
1
1
1
1
1
1
1
1
1
1
1
1
1
1
1
1
1
1
1
1
1
1
1
1
1
1
1
1
1
1
1
1
1
1
1
1
1
1
1
1
1
1
1
1
1
1
1
1
1
1
1
1
1
1
1
1
1
1
1
1
1
1
1
1
1
1
1
1
1
1
1
1
1
1
1
1
1
1
1
1
1
1
1
1
1
1
1
1
1
1
1
1
1
1
1
1
1
1
1
1
1
1
1
1
1
1
1
1
1
1
1
1
1
1
1
1
1
1
1
1
1
1
1
1
1
1
1
1
1
1
1
1
1
1
1
1
1
1
1
1
1
1
1
1
1
1
1
1
1
1
1
1
1
1
1
1
1
1
1
1
1
1
1
1
1
1
1
1
1
1
1
1
1
1
1
1.04217
1.04979
1.05612
1.06156
1.06666
1.07194
1.07774
1.0841
1.0908
1.0974
1.10337
1.10831
1.112
1.11447
1.11591
1.1166
1.11679
1.11671
1.11648
1.11618
1.11586
1.11552
1.11518
1.11482
1.11446
1.11409
1.11371
1.11334
1.11298
1.11261
1.11225
1.1119
1.11154
1.11119
1.11084
1.1105
1.11016
1.10983
1.10951
1.1092
1.10889
1.10861
1.10833
1.10807
1.10783
1.10761
1.1074
1.10721
1.10703
1.10687
1.10673
1.1066
1.10648
1.10637
1.10627
1.10618
1.10611
1.10604
1.10598
1.10594
1.1059
1.10588
1.10587
1.10586
1.10587
1.10589
1.10592
1.10596
1.10601
1.10606
1.10613
1.10621
1.1063
1.10639
1.10649
1.1066
1.10671
1.10682
1.10695
1.10707
1.1072
1.10733
1.10746
1.10759
1.10772
1.10785
1.10799
1.10812
1.10825
1.10837
1.1085
1.10862
1.10873
1.10883
1.10893
1.10901
1.10909
1.10914
1.10919
1.10921
1.10922
1.10921
1.10919
1.10914
1.10909
1.10901
1.10893
1.10883
1.10873
1.10862
1.1085
1.10837
1.10825
1.10812
1.10799
1.10785
1.10772
1.10759
1.10746
1.10733
1.1072
1.10707
1.10695
1.10682
1.10671
1.1066
1.10649
1.10639
1.1063
1.10621
1.10613
1.10606
1.10601
1.10596
1.10592
1.10589
1.10587
1.10586
1.10587
1.10588
1.1059
1.10594
1.10598
1.10604
1.10611
1.10618
1.10627
1.10637
1.10648
1.1066
1.10673
1.10687
1.10703
1.10721
1.1074
1.10761
1.10783
1.10807
1.10833
1.10861
1.10889
1.1092
1.10951
1.10983
1.11016
1.1105
1.11084
1.11119
1.11154
1.1119
1.11225
1.11261
1.11298
1.11334
1.11371
1.11409
1.11446
1.11482
1.11518
1.11552
1.11586
1.11618
1.11648
1.11671
1.1168
1.1166
1.11591
1.11448
1.11203
1.10838
1.10351
1.09767
1.09132
1.08503
1.07933
1.07454
1.07067
1.06739
1.06405
1.05988
1.05419
1.04676
1.03803
1.02897
1.02066
1.01383
1.00875
1.00526
1.00302
1.00167
1.00088
1.00045
1.00022
1.00011
1.00005
1.00002
1.00001
1
1
1
1
1
1
1
1
1
1
1
1
1
1
1
1
1
1
1
1
1
1
1
1
1
1
1
1
1
1
1
1
1
1
1
1
1
1
1
1
1
1
1
1
1
1
1
1
1
1
1
1
1
1
1
1
1
1
1
1
1
1
1
1
1
1
1
1
1
1
1
1
1
1
1
1
1
1
1
1
1
1
1
1
1
1
1
1
1
1
1
1
1
1
1
1
1
1
1
1
1
1
1
1
1
1
1
1
1
1
1
1
1
1
1
1
1
1
1
1
1
1
1
1
1
1
1
1
1
1
1
1
1
1
1
1
1
1
1
1
1
1
1
1
1
1
1
1
1
1
1
1
1
1
1
1
1
1
1
1
1
1
1
1
1
1
1
1
1
1
1
1
1
1
1
1
1
1
1
1
1
1
1
1.04346
1.04986
1.05515
1.05977
1.06423
1.06894
1.07421
1.08014
1.08661
1.09324
1.09955
1.10506
1.10945
1.1126
1.11461
1.11573
1.11622
1.11632
1.11619
1.11596
1.11568
1.11537
1.11504
1.11471
1.11436
1.114
1.11364
1.11328
1.11292
1.11257
1.11222
1.11188
1.11154
1.1112
1.11087
1.11053
1.11021
1.10988
1.10957
1.10925
1.10895
1.10866
1.10839
1.10813
1.10788
1.10765
1.10744
1.10724
1.10706
1.1069
1.10675
1.10661
1.10649
1.10638
1.10628
1.10619
1.10611
1.10605
1.10599
1.10594
1.1059
1.10588
1.10586
1.10586
1.10586
1.10588
1.10591
1.10595
1.106
1.10605
1.10612
1.1062
1.10629
1.10638
1.10648
1.10659
1.1067
1.10682
1.10694
1.10707
1.1072
1.10733
1.10746
1.1076
1.10773
1.10787
1.10801
1.10815
1.10828
1.10841
1.10854
1.10867
1.10879
1.1089
1.109
1.10909
1.10916
1.10922
1.10927
1.1093
1.10931
1.1093
1.10927
1.10922
1.10916
1.10909
1.109
1.1089
1.10879
1.10867
1.10854
1.10841
1.10828
1.10815
1.10801
1.10787
1.10773
1.1076
1.10746
1.10733
1.1072
1.10707
1.10694
1.10682
1.1067
1.10659
1.10648
1.10638
1.10629
1.1062
1.10612
1.10605
1.106
1.10595
1.10591
1.10588
1.10586
1.10586
1.10586
1.10588
1.1059
1.10594
1.10599
1.10605
1.10611
1.10619
1.10628
1.10638
1.10649
1.10661
1.10675
1.1069
1.10706
1.10724
1.10744
1.10765
1.10788
1.10813
1.10839
1.10866
1.10895
1.10925
1.10957
1.10988
1.11021
1.11053
1.11087
1.1112
1.11154
1.11188
1.11222
1.11257
1.11292
1.11328
1.11364
1.114
1.11436
1.11471
1.11504
1.11537
1.11568
1.11596
1.11619
1.11632
1.11623
1.11574
1.11462
1.11261
1.10949
1.10515
1.09973
1.09359
1.08725
1.08128
1.07613
1.07202
1.06889
1.0664
1.06396
1.06079
1.05615
1.04963
1.04143
1.03241
1.0237
1.01623
1.01047
1.0064
1.00373
1.00209
1.00112
1.00058
1.00029
1.00014
1.00006
1.00003
1.00001
1.00001
1
1
1
1
1
1
1
1
1
1
1
1
1
1
1
1
1
1
1
1
1
1
1
1
1
1
1
1
1
1
1
1
1
1
1
1
1
1
1
1
1
1
1
1
1
1
1
1
1
1
1
1
1
1
1
1
1
1
1
1
1
1
1
1
1
1
1
1
1
1
1
1
1
1
1
1
1
1
1
1
1
1
1
1
1
1
1
1
1
1
1
1
1
1
1
1
1
1
1
1
1
1
1
1
1
1
1
1
1
1
1
1
1
1
1
1
1
1
1
1
1
1
1
1
1
1
1
1
1
1
1
1
1
1
1
1
1
1
1
1
1
1
1
1
1
1
1
1
1
1
1
1
1
1
1
1
1
1
1
1
1
1
1
1
1
1
1
1
1
1
1
1
1
1
1
1
1
1
1
1
1
1
1.04448
1.04975
1.05412
1.05806
1.06198
1.06619
1.07095
1.07639
1.08246
1.08894
1.0954
1.10136
1.10639
1.11026
1.11294
1.1146
1.11548
1.11583
1.11586
1.11572
1.11549
1.11521
1.11491
1.1146
1.11427
1.11392
1.11357
1.11322
1.11287
1.11252
1.11219
1.11185
1.11153
1.1112
1.11088
1.11056
1.11025
1.10993
1.10962
1.10932
1.10902
1.10873
1.10845
1.10819
1.10794
1.1077
1.10749
1.10728
1.1071
1.10693
1.10678
1.10664
1.10651
1.1064
1.1063
1.1062
1.10612
1.10605
1.10599
1.10595
1.10591
1.10588
1.10586
1.10585
1.10586
1.10587
1.1059
1.10594
1.10599
1.10605
1.10612
1.1062
1.10628
1.10638
1.10648
1.10659
1.1067
1.10682
1.10695
1.10707
1.10721
1.10734
1.10748
1.10762
1.10776
1.1079
1.10805
1.1082
1.10835
1.1085
1.10865
1.10879
1.10893
1.10907
1.10919
1.1093
1.10939
1.10947
1.10953
1.10956
1.10957
1.10956
1.10953
1.10947
1.10939
1.1093
1.10919
1.10907
1.10893
1.10879
1.10865
1.1085
1.10835
1.1082
1.10805
1.1079
1.10776
1.10762
1.10748
1.10734
1.10721
1.10707
1.10695
1.10682
1.1067
1.10659
1.10648
1.10638
1.10628
1.1062
1.10612
1.10605
1.10599
1.10594
1.1059
1.10587
1.10586
1.10585
1.10586
1.10588
1.10591
1.10595
1.10599
1.10605
1.10612
1.1062
1.1063
1.1064
1.10651
1.10664
1.10678
1.10693
1.1071
1.10728
1.10749
1.1077
1.10794
1.10819
1.10845
1.10873
1.10902
1.10932
1.10962
1.10993
1.11025
1.11056
1.11088
1.1112
1.11153
1.11185
1.11219
1.11252
1.11287
1.11322
1.11357
1.11392
1.11427
1.1146
1.11491
1.11521
1.11549
1.11572
1.11586
1.11583
1.11548
1.11461
1.11295
1.11028
1.10645
1.10147
1.09563
1.08938
1.08326
1.07777
1.07325
1.06981
1.06733
1.06551
1.0638
1.06148
1.0578
1.05219
1.04465
1.03584
1.02686
1.01883
1.01239
1.00771
1.00457
1.00259
1.00141
1.00074
1.00037
1.00018
1.00009
1.00004
1.00002
1.00001
1
1
1
1
1
1
1
1
1
1
1
1
1
1
1
1
1
1
1
1
1
1
1
1
1
1
1
1
1
1
1
1
1
1
1
1
1
1
1
1
1
1
1
1
1
1
1
1
1
1
1
1
1
1
1
1
1
1
1
1
1
1
1
1
1
1
1
1
1
1
1
1
1
1
1
1
1
1
1
1
1
1
1
1
1
1
1
1
1
1
1
1
1
1
1
1
1
1
1
1
1
1
1
1
1
1
1
1
1
1
1
1
1
1
1
1
1
1
1
1
1
1
1
1
1
1
1
1
1
1
1
1
1
1
1
1
1
1
1
1
1
1
1
1
1
1
1
1
1
1
1
1
1
1
1
1
1
1
1
1
1
1
1
1
1
1
1
1
1
1
1
1
1
1
1
1
1
1
1
1
1
1
1.04528
1.04952
1.05308
1.05645
1.05993
1.06372
1.068
1.0729
1.07849
1.08463
1.09104
1.09726
1.10283
1.1074
1.11081
1.11312
1.1145
1.1152
1.11545
1.11545
1.11529
1.11506
1.11479
1.11449
1.11418
1.11385
1.11351
1.11316
1.11282
1.11248
1.11215
1.11182
1.11151
1.1112
1.11089
1.11058
1.11028
1.10998
1.10968
1.10938
1.10908
1.1088
1.10852
1.10826
1.108
1.10777
1.10754
1.10734
1.10715
1.10697
1.10682
1.10667
1.10654
1.10642
1.10632
1.10622
1.10614
1.10607
1.10601
1.10596
1.10591
1.10588
1.10586
1.10586
1.10586
1.10587
1.1059
1.10594
1.10599
1.10604
1.10611
1.10619
1.10628
1.10637
1.10648
1.10659
1.1067
1.10682
1.10695
1.10708
1.10721
1.10735
1.1075
1.10764
1.1078
1.10795
1.10811
1.10827
1.10844
1.10861
1.10878
1.10894
1.1091
1.10926
1.1094
1.10953
1.10964
1.10973
1.1098
1.10984
1.10986
1.10984
1.1098
1.10973
1.10964
1.10953
1.1094
1.10926
1.1091
1.10894
1.10878
1.10861
1.10844
1.10827
1.10811
1.10795
1.1078
1.10764
1.1075
1.10735
1.10721
1.10708
1.10695
1.10682
1.1067
1.10659
1.10648
1.10637
1.10628
1.10619
1.10611
1.10604
1.10599
1.10594
1.1059
1.10587
1.10586
1.10586
1.10586
1.10588
1.10591
1.10596
1.10601
1.10607
1.10614
1.10622
1.10632
1.10642
1.10654
1.10667
1.10682
1.10697
1.10715
1.10734
1.10754
1.10777
1.108
1.10826
1.10852
1.1088
1.10908
1.10938
1.10968
1.10998
1.11028
1.11058
1.11089
1.1112
1.11151
1.11182
1.11215
1.11248
1.11282
1.11316
1.11351
1.11385
1.11418
1.11449
1.11479
1.11506
1.11529
1.11545
1.11545
1.1152
1.1145
1.11312
1.11083
1.10743
1.1029
1.0974
1.09132
1.08517
1.07945
1.07456
1.07071
1.06791
1.06601
1.06473
1.06359
1.06197
1.05913
1.05442
1.04762
1.03917
1.0301
1.02159
1.01451
1.00919
1.00553
1.00317
1.00175
1.00092
1.00047
1.00023
1.00011
1.00005
1.00002
1.00001
1
1
1
1
1
1
1
1
1
1
1
1
1
1
1
1
1
1
1
1
1
1
1
1
1
1
1
1
1
1
1
1
1
1
1
1
1
1
1
1
1
1
1
1
1
1
1
1
1
1
1
1
1
1
1
1
1
1
1
1
1
1
1
1
1
1
1
1
1
1
1
1
1
1
1
1
1
1
1
1
1
1
1
1
1
1
1
1
1
1
1
1
1
1
1
1
1
1
1
1
1
1
1
1
1
1
1
1
1
1
1
1
1
1
1
1
1
1
1
1
1
1
1
1
1
1
1
1
1
1
1
1
1
1
1
1
1
1
1
1
1
1
1
1
1
1
1
1
1
1
1
1
1
1
1
1
1
1
1
1
1
1
1
1
1
1
1
1
1
1
1
1
1
1
1
1
1
1
1
1
1
1
1.04586
1.04919
1.05206
1.05495
1.05807
1.06151
1.06536
1.06974
1.07476
1.08044
1.08658
1.09286
1.09881
1.104
1.10816
1.11119
1.11318
1.11434
1.11491
1.1151
1.11506
1.1149
1.11466
1.11439
1.11409
1.11377
1.11344
1.1131
1.11277
1.11243
1.11211
1.11179
1.11148
1.11119
1.11089
1.1106
1.11031
1.11002
1.10973
1.10944
1.10915
1.10887
1.10859
1.10833
1.10808
1.10783
1.10761
1.1074
1.1072
1.10702
1.10686
1.10671
1.10658
1.10646
1.10635
1.10625
1.10616
1.10609
1.10602
1.10597
1.10593
1.1059
1.10587
1.10586
1.10587
1.10588
1.1059
1.10594
1.10599
1.10605
1.10611
1.10619
1.10628
1.10638
1.10648
1.10659
1.10671
1.10683
1.10696
1.1071
1.10724
1.10738
1.10753
1.10769
1.10786
1.10803
1.10821
1.1084
1.10859
1.1088
1.109
1.10921
1.10942
1.10962
1.1098
1.10998
1.11013
1.11025
1.11034
1.11039
1.11041
1.11039
1.11034
1.11025
1.11013
1.10998
1.1098
1.10962
1.10942
1.10921
1.109
1.1088
1.10859
1.1084
1.10821
1.10803
1.10786
1.10769
1.10753
1.10738
1.10724
1.1071
1.10696
1.10683
1.10671
1.10659
1.10648
1.10638
1.10628
1.10619
1.10611
1.10605
1.10599
1.10594
1.1059
1.10588
1.10587
1.10586
1.10587
1.1059
1.10593
1.10597
1.10602
1.10609
1.10616
1.10625
1.10635
1.10646
1.10658
1.10671
1.10686
1.10702
1.1072
1.1074
1.10761
1.10783
1.10808
1.10833
1.10859
1.10887
1.10915
1.10944
1.10973
1.11002
1.11031
1.1106
1.11089
1.11119
1.11148
1.11179
1.11211
1.11243
1.11277
1.1131
1.11344
1.11377
1.11409
1.11439
1.11466
1.1149
1.11506
1.1151
1.11491
1.11434
1.11318
1.11119
1.10818
1.10405
1.0989
1.09304
1.08694
1.08109
1.07593
1.07171
1.06853
1.06632
1.06492
1.06406
1.06337
1.06231
1.06019
1.05632
1.05031
1.04236
1.03335
1.02449
1.0168
1.01084
1.00662
1.00386
1.00215
1.00115
1.00059
1.00029
1.00014
1.00007
1.00003
1.00001
1.00001
1
1
1
1
1
1
1
1
1
1
1
1
1
1
1
1
1
1
1
1
1
1
1
1
1
1
1
1
1
1
1
1
1
1
1
1
1
1
1
1
1
1
1
1
1
1
1
1
1
1
1
1
1
1
1
1
1
1
1
1
1
1
1
1
1
1
1
1
1
1
1
1
1
1
1
1
1
1
1
1
1
1
1
1
1
1
1
1
1
1
1
1
1
1
1
1
1
1
1
1
1
1
1
1
1
1
1
1
1
1
1
1
1
1
1
1
1
1
1
1
1
1
1
1
1
1
1
1
1
1
1
1
1
1
1
1
1
1
1
1
1
1
1
1
1
1
1
1
1
1
1
1
1
1
1
1
1
1
1
1
1
1
1
1
1
1
1
1
1
1
1
1
1
1
1
1
1
1
1
1
1
1.04626
1.0488
1.05109
1.05358
1.0564
1.05955
1.06302
1.06691
1.07137
1.07647
1.08219
1.0883
1.09441
1.10009
1.10494
1.10873
1.11143
1.11318
1.11417
1.11464
1.11477
1.1147
1.11453
1.11428
1.114
1.1137
1.11338
1.11305
1.11272
1.11239
1.11207
1.11176
1.11146
1.11117
1.11089
1.11061
1.11033
1.11005
1.10977
1.10949
1.10921
1.10894
1.10867
1.1084
1.10815
1.10791
1.10768
1.10747
1.10727
1.10708
1.10691
1.10676
1.10662
1.1065
1.10638
1.10628
1.10619
1.10612
1.10605
1.10599
1.10595
1.10591
1.10589
1.10588
1.10588
1.10589
1.10591
1.10595
1.10599
1.10605
1.10612
1.1062
1.10628
1.10638
1.10649
1.1066
1.10672
1.10684
1.10697
1.10711
1.10726
1.10742
1.10758
1.10776
1.10794
1.10814
1.10835
1.10858
1.10882
1.10906
1.10932
1.10958
1.10984
1.11009
1.11033
1.11055
1.11074
1.1109
1.11101
1.11108
1.11111