# vtk DataFile Version 2.0
LBE two cylinders
ASCII
DATASET STRUCTURED_POINTS
DIMENSIONS 400 100 1
ASPECT_RATIO 1 1 1
ORIGIN 0 0 0
POINT_DATA 40000
SCALARS rho double 1
LOOKUP_TABLE default
1.09515
1.09514
1.09513
1.09512
1.09511
1.09509
1.09507
1.09504
1.09501
1.09497
1.09493
1.09489
1.09485
1.0948
1.09474
1.09469
1.09463
1.09456
1.0945
1.09443
1.09435
1.09428
1.0942
1.09411
1.09403
1.09394
1.09385
1.09375
1.09365
1.09355
1.09345
1.09334
1.09323
1.09312
1.09301
1.0929
1.09278
1.09267
1.09255
1.09244
1.09233
1.09222
1.09211
1.092
1.0919
1.0918
1.09171
1.09163
1.09155
1.09148
1.09141
1.09136
1.09131
1.09127
1.09125
1.09123
1.09122
1.09123
1.09125
1.09128
1.09133
1.09138
1.09146
1.09154
1.09164
1.09176
1.09189
1.09204
1.0922
1.09238
1.09257
1.09279
1.09301
1.09326
1.09352
1.09379
1.09409
1.09439
1.09471
1.09505
1.09539
1.09574
1.09611
1.09648
1.09685
1.09723
1.0976
1.09798
1.09834
1.0987
1.09905
1.09938
1.0997
1.09999
1.10027
1.10052
1.10075
1.10095
1.10112
1.10127
1.1014
1.1015
1.10158
1.10164
1.10168
1.1017
1.10171
1.10171
1.1017
1.10168
1.10166
1.10163
1.1016
1.10156
1.10153
1.1015
1.10148
1.10145
1.10143
1.10141
1.10139
1.10138
1.10137
1.10136
1.10135
1.10135
1.10134
1.10134
1.10134
1.10134
1.10134
1.10134
1.10134
1.10133
1.10133
1.10133
1.10132
1.10132
1.10131
1.1013
1.10129
1.10129
1.10128
1.10126
1.10125
1.10124
1.10123
1.10122
1.1012
1.10119
1.10118
1.10116
1.10115
1.10114
1.10112
1.10111
1.1011
1.10109
1.10108
1.10106
1.10105
1.10105
1.10104
1.10103
1.10103
1.10102
1.10102
1.10102
1.10102
1.10103
1.10103
1.10104
1.10106
1.10107
1.10109
1.10111
1.10114
1.10117
1.1012
1.10123
1.10127
1.1013
1.10135
1.10139
1.10143
1.10148
1.10153
1.10158
1.10163
1.10168
1.10174
1.10179
1.10185
1.1019
1.10196
1.10201
1.10207
1.10212
1.10217
1.10222
1.10227
1.10232
1.10236
1.1024
1.10244
1.10247
1.1025
1.10253
1.10255
1.10257
1.10258
1.10259
1.10259
1.10259
1.10259
1.10257
1.10256
1.10253
1.1025
1.10247
1.10242
1.10236
1.1023
1.10222
1.10212
1.102
1.10185
1.10168
1.10148
1.10124
1.10096
1.10062
1.10024
1.0998
1.0993
1.09874
1.09811
1.09742
1.09667
1.09585
1.09498
1.09406
1.09309
1.09208
1.09104
1.08998
1.0889
1.08783
1.08676
1.08572
1.0847
1.08373
1.0828
1.08193
1.08112
1.08038
1.07971
1.07911
1.07858
1.07811
1.0777
1.07733
1.07701
1.07672
1.07645
1.07619
1.07593
1.07567
1.0754
1.07512
1.07481
1.07449
1.07414
1.07377
1.07337
1.07295
1.07251
1.07204
1.07155
1.07103
1.0705
1.06994
1.06936
1.06877
1.06816
1.06754
1.06691
1.06627
1.06563
1.065
1.06436
1.06374
1.06313
1.06254
1.06197
1.06142
1.0609
1.06042
1.05996
1.05954
1.05915
1.05879
1.05846
1.05817
1.0579
1.05767
1.05746
1.05727
1.0571
1.05696
1.05683
1.05672
1.05662
1.05654
1.05647
1.05642
1.05638
1.05635
1.05633
1.05633
1.05633
1.05635
1.05638
1.05642
1.05647
1.05653
1.0566
1.05668
1.05676
1.05685
1.05695
1.05705
1.05716
1.05727
1.05739
1.0575
1.05762
1.05774
1.05786
1.05798
1.05809
1.05821
1.05832
1.05843
1.05854
1.05864
1.05874
1.05884
1.05893
1.05901
1.05909
1.05917
1.05924
1.05931
1.05938
1.05945
1.05952
1.0596
1.05968
1.05978
1.05989
1.06002
1.06017
1.06035
1.06055
1.06079
1.06106
1.06136
1.0617
1.06208
1.06249
1.06293
1.06341
1.06392
1.06445
1.06501
1.06559
1.06618
1.06679
1.0674
1.06803
1.06865
1.06927
1.06989
1.07051
1.07111
1.07171
1.0723
1.07287
1.07344
1.07398
1.07452
1.07504
1.07554
1.07603
1.07651
1.07697
1.07743
1.07787
1.07829
1.09506
1.09506
1.09505
1.09504
1.09502
1.09501
1.09498
1.09496
1.09493
1.09489
1.09486
1.09481
1.09477
1.09472
1.09467
1.09461
1.09455
1.09449
1.09443
1.09436
1.09429
1.09421
1.09413
1.09405
1.09397
1.09388
1.09379
1.0937
1.0936
1.0935
1.0934
1.0933
1.09319
1.09309
1.09298
1.09287
1.09276
1.09264
1.09253
1.09242
1.09231
1.0922
1.0921
1.092
1.0919
1.0918
1.09171
1.09163
1.09155
1.09148
1.09142
1.09136
1.09132
1.09128
1.09126
1.09124
1.09124
1.09124
1.09126
1.09129
1.09134
1.09139
1.09147
1.09155
1.09165
1.09177
1.0919
1.09204
1.0922
1.09238
1.09257
1.09278
1.09301
1.09325
1.09351
1.09378
1.09407
1.09437
1.09468
1.09501
1.09535
1.0957
1.09606
1.09642
1.09679
1.09716
1.09752
1.09789
1.09825
1.0986
1.09894
1.09927
1.09958
1.09987
1.10015
1.10039
1.10062
1.10082
1.101
1.10115
1.10128
1.10138
1.10146
1.10153
1.10157
1.1016
1.10161
1.10162
1.10161
1.1016
1.10158
1.10155
1.10153
1.1015
1.10147
1.10144
1.10142
1.10139
1.10137
1.10135
1.10134
1.10133
1.10131
1.10131
1.1013
1.1013
1.10129
1.10129
1.10129
1.10129
1.10129
1.10129
1.10129
1.10129
1.10129
1.10129
1.10128
1.10128
1.10127
1.10127
1.10126
1.10125
1.10124
1.10123
1.10122
1.10121
1.1012
1.10119
1.10118
1.10116
1.10115
1.10114
1.10112
1.10111
1.1011
1.10109
1.10107
1.10106
1.10105
1.10104
1.10103
1.10102
1.10101
1.101
1.101
1.10099
1.10099
1.10099
1.10099
1.101
1.101
1.10101
1.10102
1.10104
1.10106
1.10108
1.1011
1.10113
1.10116
1.10119
1.10122
1.10126
1.1013
1.10134
1.10138
1.10143
1.10148
1.10152
1.10157
1.10162
1.10168
1.10173
1.10178
1.10183
1.10189
1.10194
1.10199
1.10204
1.10209
1.10214
1.10219
1.10223
1.10227
1.10231
1.10234
1.10237
1.1024
1.10243
1.10245
1.10246
1.10247
1.10248
1.10248
1.10247
1.10247
1.10245
1.10243
1.10241
1.10237
1.10233
1.10228
1.10222
1.10215
1.10207
1.10196
1.10184
1.10169
1.10151
1.1013
1.10105
1.10076
1.10042
1.10003
1.09958
1.09908
1.09851
1.09788
1.09718
1.09642
1.0956
1.09473
1.09381
1.09284
1.09183
1.09079
1.08974
1.08867
1.08761
1.08655
1.08552
1.08452
1.08355
1.08264
1.08179
1.08099
1.08026
1.07961
1.07902
1.07849
1.07803
1.07763
1.07727
1.07696
1.07667
1.0764
1.07615
1.0759
1.07564
1.07538
1.0751
1.0748
1.07449
1.07415
1.07379
1.0734
1.07299
1.07256
1.0721
1.07162
1.07111
1.07058
1.07004
1.06947
1.06889
1.06829
1.06767
1.06705
1.06642
1.06579
1.06516
1.06453
1.06391
1.06331
1.06272
1.06215
1.06161
1.06109
1.06061
1.06015
1.05972
1.05933
1.05897
1.05864
1.05834
1.05807
1.05783
1.05761
1.05742
1.05724
1.05709
1.05695
1.05684
1.05674
1.05665
1.05658
1.05652
1.05647
1.05644
1.05641
1.0564
1.05641
1.05642
1.05645
1.05648
1.05653
1.05659
1.05665
1.05672
1.05681
1.05689
1.05699
1.05709
1.05719
1.0573
1.05742
1.05753
1.05765
1.05776
1.05788
1.058
1.05811
1.05823
1.05834
1.05845
1.05855
1.05865
1.05875
1.05884
1.05893
1.05902
1.0591
1.05917
1.05924
1.05931
1.05938
1.05945
1.05953
1.0596
1.05969
1.05979
1.0599
1.06004
1.06019
1.06037
1.06057
1.06081
1.06108
1.06138
1.06172
1.06209
1.0625
1.06295
1.06342
1.06393
1.06446
1.06501
1.06559
1.06618
1.06678
1.06739
1.06801
1.06863
1.06925
1.06987
1.07049
1.07109
1.07169
1.07228
1.07285
1.07341
1.07396
1.0745
1.07502
1.07552
1.07602
1.0765
1.07696
1.07741
1.07786
1.07828
1.09489
1.09489
1.09488
1.09487
1.09486
1.09484
1.09482
1.0948
1.09477
1.09474
1.0947
1.09466
1.09462
1.09457
1.09452
1.09447
1.09441
1.09435
1.09429
1.09422
1.09415
1.09408
1.094
1.09393
1.09385
1.09376
1.09368
1.09359
1.0935
1.0934
1.09331
1.09321
1.09311
1.09301
1.0929
1.0928
1.09269
1.09258
1.09248
1.09237
1.09226
1.09216
1.09206
1.09196
1.09186
1.09177
1.09169
1.09161
1.09153
1.09146
1.0914
1.09135
1.09131
1.09127
1.09124
1.09123
1.09123
1.09123
1.09125
1.09128
1.09133
1.09138
1.09145
1.09154
1.09164
1.09175
1.09188
1.09202
1.09218
1.09235
1.09255
1.09275
1.09298
1.09321
1.09347
1.09374
1.09402
1.09432
1.09463
1.09495
1.09529
1.09563
1.09598
1.09634
1.0967
1.09707
1.09743
1.09779
1.09815
1.0985
1.09883
1.09916
1.09946
1.09975
1.10002
1.10027
1.1005
1.1007
1.10087
1.10103
1.10115
1.10126
1.10135
1.10141
1.10146
1.10149
1.10151
1.10152
1.10151
1.1015
1.10149
1.10146
1.10144
1.10141
1.10139
1.10136
1.10134
1.10132
1.1013
1.10128
1.10126
1.10125
1.10124
1.10123
1.10123
1.10122
1.10122
1.10122
1.10122
1.10122
1.10122
1.10122
1.10122
1.10122
1.10122
1.10122
1.10121
1.10121
1.10121
1.1012
1.10119
1.10118
1.10118
1.10117
1.10116
1.10115
1.10114
1.10112
1.10111
1.1011
1.10109
1.10108
1.10106
1.10105
1.10104
1.10102
1.10101
1.101
1.10099
1.10098
1.10097
1.10096
1.10095
1.10094
1.10093
1.10093
1.10092
1.10092
1.10092
1.10093
1.10093
1.10094
1.10095
1.10096
1.10098
1.101
1.10102
1.10104
1.10107
1.1011
1.10113
1.10116
1.1012
1.10124
1.10128
1.10132
1.10136
1.10141
1.10145
1.1015
1.10155
1.1016
1.10165
1.1017
1.10175
1.10179
1.10184
1.10189
1.10193
1.10198
1.10202
1.10206
1.10209
1.10213
1.10216
1.10218
1.10221
1.10223
1.10224
1.10225
1.10226
1.10226
1.10225
1.10225
1.10223
1.10221
1.10219
1.10216
1.10212
1.10208
1.10202
1.10196
1.10188
1.10179
1.10168
1.10155
1.10139
1.1012
1.10099
1.10073
1.10043
1.10008
1.09968
1.09922
1.09871
1.09813
1.09749
1.09679
1.09602
1.0952
1.09432
1.09339
1.09242
1.09142
1.09039
1.08934
1.08828
1.08722
1.08618
1.08515
1.08416
1.08322
1.08232
1.08148
1.08071
1.08
1.07936
1.07879
1.07828
1.07784
1.07745
1.07711
1.07681
1.07654
1.07629
1.07605
1.07581
1.07557
1.07532
1.07506
1.07478
1.07448
1.07416
1.07382
1.07346
1.07306
1.07265
1.07221
1.07175
1.07126
1.07075
1.07022
1.06967
1.06911
1.06852
1.06792
1.06732
1.0667
1.06608
1.06546
1.06484
1.06423
1.06363
1.06305
1.06249
1.06195
1.06143
1.06094
1.06048
1.06006
1.05966
1.05929
1.05895
1.05864
1.05836
1.05811
1.05788
1.05768
1.05749
1.05733
1.05718
1.05705
1.05694
1.05684
1.05676
1.05669
1.05663
1.05659
1.05656
1.05654
1.05654
1.05654
1.05656
1.05659
1.05663
1.05668
1.05674
1.05681
1.05689
1.05697
1.05706
1.05715
1.05725
1.05736
1.05747
1.05758
1.05769
1.0578
1.05792
1.05803
1.05814
1.05825
1.05836
1.05847
1.05857
1.05867
1.05877
1.05886
1.05895
1.05903
1.0591
1.05918
1.05925
1.05932
1.05939
1.05946
1.05953
1.05961
1.0597
1.0598
1.05992
1.06005
1.0602
1.06038
1.06059
1.06083
1.0611
1.0614
1.06174
1.06212
1.06252
1.06297
1.06344
1.06394
1.06447
1.06502
1.06559
1.06618
1.06678
1.06739
1.06801
1.06863
1.06924
1.06986
1.07047
1.07108
1.07168
1.07226
1.07284
1.0734
1.07395
1.07449
1.07501
1.07552
1.07601
1.07649
1.07696
1.07742
1.07786
1.07829
1.09464
1.09464
1.09463
1.09463
1.09462
1.0946
1.09458
1.09456
1.09453
1.0945
1.09447
1.09443
1.09439
1.09434
1.0943
1.09425
1.09419
1.09413
1.09408
1.09401
1.09395
1.09388
1.09381
1.09374
1.09366
1.09358
1.0935
1.09342
1.09334
1.09325
1.09316
1.09307
1.09297
1.09288
1.09278
1.09268
1.09258
1.09248
1.09238
1.09228
1.09218
1.09208
1.09199
1.09189
1.0918
1.09172
1.09164
1.09156
1.09149
1.09142
1.09136
1.09131
1.09127
1.09124
1.09121
1.0912
1.09119
1.0912
1.09122
1.09125
1.09129
1.09135
1.09142
1.0915
1.09159
1.09171
1.09183
1.09197
1.09213
1.0923
1.09249
1.09269
1.09291
1.09315
1.0934
1.09366
1.09394
1.09424
1.09454
1.09486
1.09519
1.09553
1.09588
1.09623
1.09659
1.09695
1.09731
1.09767
1.09802
1.09837
1.0987
1.09903
1.09933
1.09962
1.09989
1.10014
1.10036
1.10056
1.10074
1.1009
1.10103
1.10113
1.10122
1.10129
1.10134
1.10137
1.10139
1.1014
1.1014
1.10139
1.10138
1.10136
1.10134
1.10131
1.10129
1.10126
1.10124
1.10122
1.1012
1.10118
1.10117
1.10116
1.10115
1.10114
1.10113
1.10113
1.10113
1.10112
1.10112
1.10112
1.10112
1.10112
1.10112
1.10112
1.10112
1.10112
1.10111
1.10111
1.1011
1.1011
1.10109
1.10108
1.10108
1.10107
1.10106
1.10105
1.10104
1.10102
1.10101
1.101
1.10099
1.10098
1.10096
1.10095
1.10094
1.10092
1.10091
1.1009
1.10089
1.10087
1.10086
1.10085
1.10084
1.10083
1.10082
1.10082
1.10081
1.10081
1.10081
1.10081
1.10081
1.10082
1.10083
1.10084
1.10085
1.10087
1.10088
1.1009
1.10093
1.10095
1.10098
1.10101
1.10104
1.10108
1.10111
1.10115
1.10119
1.10123
1.10127
1.10132
1.10136
1.1014
1.10145
1.10149
1.10153
1.10157
1.10162
1.10166
1.1017
1.10173
1.10177
1.1018
1.10183
1.10186
1.10188
1.1019
1.10192
1.10193
1.10194
1.10194
1.10194
1.10193
1.10192
1.10191
1.10189
1.10186
1.10183
1.1018
1.10175
1.1017
1.10164
1.10157
1.10148
1.10138
1.10126
1.10112
1.10096
1.10077
1.10054
1.10027
1.09996
1.0996
1.09919
1.09873
1.0982
1.09761
1.09696
1.09625
1.09548
1.09465
1.09377
1.09284
1.09187
1.09086
1.08983
1.08879
1.08773
1.08669
1.08565
1.08465
1.08367
1.08274
1.08187
1.08105
1.08029
1.07961
1.07899
1.07844
1.07796
1.07754
1.07718
1.07686
1.07658
1.07633
1.0761
1.07588
1.07567
1.07545
1.07523
1.07499
1.07474
1.07447
1.07418
1.07386
1.07352
1.07316
1.07278
1.07236
1.07193
1.07147
1.07099
1.07048
1.06996
1.06941
1.06885
1.06828
1.06769
1.06709
1.06649
1.06588
1.06528
1.06468
1.06409
1.06352
1.06296
1.06242
1.06191
1.06142
1.06096
1.06053
1.06012
1.05974
1.0594
1.05908
1.05878
1.05852
1.05827
1.05805
1.05785
1.05767
1.05751
1.05736
1.05724
1.05712
1.05703
1.05694
1.05687
1.05682
1.05677
1.05675
1.05673
1.05672
1.05673
1.05675
1.05678
1.05682
1.05687
1.05693
1.057
1.05708
1.05716
1.05725
1.05734
1.05744
1.05754
1.05765
1.05775
1.05786
1.05797
1.05808
1.05819
1.0583
1.0584
1.0585
1.0586
1.0587
1.05879
1.05888
1.05896
1.05904
1.05912
1.05919
1.05926
1.05933
1.05939
1.05946
1.05954
1.05962
1.05971
1.05981
1.05993
1.06006
1.06022
1.0604
1.06061
1.06085
1.06113
1.06143
1.06177
1.06214
1.06255
1.06299
1.06346
1.06396
1.06449
1.06504
1.06561
1.06619
1.06679
1.0674
1.06801
1.06863
1.06925
1.06986
1.07047
1.07108
1.07167
1.07226
1.07284
1.0734
1.07395
1.07449
1.07501
1.07552
1.07602
1.0765
1.07697
1.07743
1.07788
1.07832
1.09429
1.0943
1.0943
1.09429
1.09429
1.09427
1.09426
1.09424
1.09422
1.09419
1.09416
1.09412
1.09408
1.09404
1.094
1.09395
1.0939
1.09385
1.09379
1.09374
1.09368
1.09361
1.09355
1.09348
1.09341
1.09334
1.09327
1.09319
1.09312
1.09304
1.09295
1.09287
1.09279
1.0927
1.09261
1.09252
1.09243
1.09234
1.09225
1.09215
1.09206
1.09197
1.09188
1.0918
1.09171
1.09163
1.09155
1.09148
1.09142
1.09135
1.0913
1.09125
1.09121
1.09118
1.09115
1.09114
1.09114
1.09114
1.09116
1.09119
1.09123
1.09129
1.09135
1.09143
1.09153
1.09164
1.09176
1.0919
1.09205
1.09222
1.0924
1.0926
1.09282
1.09305
1.0933
1.09356
1.09383
1.09412
1.09443
1.09474
1.09507
1.0954
1.09575
1.0961
1.09645
1.09681
1.09717
1.09752
1.09787
1.09822
1.09855
1.09887
1.09918
1.09947
1.09974
1.09999
1.10022
1.10042
1.1006
1.10075
1.10089
1.101
1.10108
1.10115
1.1012
1.10124
1.10126
1.10127
1.10127
1.10126
1.10125
1.10123
1.10121
1.10119
1.10117
1.10114
1.10112
1.1011
1.10108
1.10106
1.10105
1.10104
1.10103
1.10102
1.10101
1.10101
1.101
1.101
1.101
1.101
1.10099
1.10099
1.10099
1.10099
1.10099
1.10098
1.10098
1.10098
1.10097
1.10096
1.10096
1.10095
1.10094
1.10093
1.10092
1.10091
1.1009
1.10089
1.10087
1.10086
1.10085
1.10084
1.10082
1.10081
1.10079
1.10078
1.10077
1.10075
1.10074
1.10073
1.10072
1.1007
1.10069
1.10068
1.10067
1.10067
1.10066
1.10065
1.10065
1.10065
1.10065
1.10065
1.10066
1.10066
1.10067
1.10069
1.1007
1.10072
1.10074
1.10076
1.10078
1.1008
1.10083
1.10086
1.10089
1.10092
1.10096
1.10099
1.10103
1.10106
1.1011
1.10114
1.10117
1.10121
1.10125
1.10128
1.10131
1.10135
1.10138
1.10141
1.10143
1.10146
1.10148
1.1015
1.10151
1.10152
1.10153
1.10154
1.10154
1.10153
1.10152
1.10151
1.10149
1.10147
1.10144
1.10141
1.10137
1.10132
1.10127
1.10121
1.10114
1.10106
1.10097
1.10086
1.10073
1.10058
1.10041
1.10021
1.09997
1.09969
1.09937
1.099
1.09858
1.09811
1.09757
1.09697
1.09632
1.0956
1.09482
1.09398
1.0931
1.09216
1.09119
1.09019
1.08916
1.08812
1.08707
1.08604
1.08502
1.08402
1.08307
1.08216
1.0813
1.08051
1.07978
1.07912
1.07853
1.07801
1.07756
1.07717
1.07683
1.07654
1.07628
1.07606
1.07586
1.07567
1.07548
1.0753
1.0751
1.0749
1.07468
1.07444
1.07418
1.0739
1.0736
1.07327
1.07292
1.07254
1.07214
1.07171
1.07126
1.07079
1.0703
1.06978
1.06925
1.0687
1.06814
1.06757
1.06699
1.0664
1.06582
1.06524
1.06466
1.0641
1.06355
1.06302
1.06251
1.06202
1.06156
1.06112
1.06071
1.06032
1.05996
1.05963
1.05932
1.05903
1.05877
1.05853
1.05831
1.05812
1.05793
1.05777
1.05762
1.05749
1.05738
1.05728
1.05719
1.05712
1.05706
1.05702
1.05698
1.05697
1.05696
1.05697
1.05698
1.05701
1.05705
1.0571
1.05716
1.05722
1.0573
1.05738
1.05746
1.05755
1.05764
1.05774
1.05784
1.05794
1.05804
1.05815
1.05825
1.05835
1.05845
1.05855
1.05864
1.05873
1.05882
1.0589
1.05898
1.05906
1.05913
1.0592
1.05927
1.05933
1.0594
1.05947
1.05954
1.05963
1.05972
1.05982
1.05994
1.06008
1.06024
1.06043
1.06064
1.06088
1.06116
1.06147
1.06181
1.06218
1.06259
1.06303
1.0635
1.064
1.06452
1.06507
1.06563
1.06621
1.06681
1.06741
1.06802
1.06864
1.06925
1.06987
1.07048
1.07108
1.07168
1.07227
1.07284
1.07341
1.07396
1.0745
1.07502
1.07553
1.07603
1.07652
1.07699
1.07746
1.07791
1.07836
1.09386
1.09387
1.09388
1.09388
1.09387
1.09387
1.09385
1.09384
1.09382
1.09379
1.09377
1.09374
1.0937
1.09367
1.09363
1.09358
1.09354
1.09349
1.09344
1.09339
1.09334
1.09328
1.09322
1.09316
1.0931
1.09304
1.09297
1.09291
1.09284
1.09277
1.0927
1.09262
1.09255
1.09247
1.09239
1.09231
1.09223
1.09215
1.09207
1.09199
1.0919
1.09182
1.09174
1.09166
1.09159
1.09151
1.09144
1.09137
1.09131
1.09126
1.0912
1.09116
1.09112
1.09109
1.09107
1.09106
1.09105
1.09106
1.09108
1.09111
1.09115
1.0912
1.09126
1.09134
1.09143
1.09154
1.09166
1.09179
1.09194
1.09211
1.09229
1.09248
1.0927
1.09292
1.09316
1.09342
1.09369
1.09398
1.09427
1.09458
1.0949
1.09524
1.09557
1.09592
1.09627
1.09663
1.09698
1.09734
1.09769
1.09803
1.09837
1.09869
1.099
1.09929
1.09957
1.09982
1.10005
1.10025
1.10043
1.10059
1.10073
1.10084
1.10093
1.101
1.10105
1.10109
1.10111
1.10112
1.10112
1.10111
1.1011
1.10108
1.10106
1.10104
1.10102
1.101
1.10098
1.10096
1.10094
1.10092
1.10091
1.10089
1.10088
1.10087
1.10086
1.10086
1.10085
1.10085
1.10084
1.10084
1.10084
1.10083
1.10083
1.10083
1.10082
1.10082
1.10081
1.10081
1.1008
1.10079
1.10078
1.10077
1.10076
1.10075
1.10074
1.10073
1.10072
1.10071
1.10069
1.10068
1.10067
1.10065
1.10064
1.10062
1.10061
1.10059
1.10058
1.10057
1.10055
1.10054
1.10052
1.10051
1.1005
1.10049
1.10047
1.10046
1.10046
1.10045
1.10044
1.10044
1.10044
1.10044
1.10044
1.10044
1.10044
1.10045
1.10046
1.10047
1.10049
1.1005
1.10052
1.10054
1.10056
1.10058
1.10061
1.10063
1.10066
1.10069
1.10072
1.10074
1.10077
1.1008
1.10083
1.10086
1.10089
1.10091
1.10094
1.10096
1.10098
1.101
1.10102
1.10103
1.10104
1.10105
1.10106
1.10106
1.10106
1.10105
1.10104
1.10103
1.10101
1.10099
1.10096
1.10093
1.10089
1.10085
1.1008
1.10075
1.10068
1.10062
1.10054
1.10045
1.10035
1.10023
1.10009
1.09994
1.09975
1.09954
1.09929
1.09901
1.09868
1.0983
1.09787
1.09738
1.09684
1.09623
1.09557
1.09484
1.09405
1.09321
1.09232
1.09139
1.09042
1.08941
1.08839
1.08736
1.08632
1.0853
1.08429
1.08332
1.08239
1.0815
1.08067
1.0799
1.0792
1.07857
1.07801
1.07752
1.0771
1.07674
1.07643
1.07617
1.07595
1.07575
1.07558
1.07542
1.07527
1.07511
1.07495
1.07478
1.07459
1.07439
1.07417
1.07393
1.07366
1.07337
1.07306
1.07272
1.07236
1.07197
1.07156
1.07113
1.07067
1.07019
1.06969
1.06917
1.06864
1.0681
1.06755
1.06699
1.06643
1.06587
1.06532
1.06477
1.06423
1.06371
1.06321
1.06272
1.06226
1.06182
1.0614
1.061
1.06063
1.06028
1.05996
1.05966
1.05938
1.05912
1.05888
1.05866
1.05846
1.05827
1.0581
1.05795
1.05782
1.0577
1.05759
1.0575
1.05742
1.05736
1.05731
1.05727
1.05725
1.05724
1.05724
1.05726
1.05728
1.05732
1.05736
1.05741
1.05747
1.05754
1.05761
1.05769
1.05777
1.05786
1.05795
1.05804
1.05814
1.05823
1.05833
1.05842
1.05851
1.0586
1.05869
1.05878
1.05886
1.05893
1.05901
1.05908
1.05915
1.05921
1.05927
1.05934
1.0594
1.05947
1.05955
1.05963
1.05973
1.05983
1.05996
1.0601
1.06027
1.06046
1.06067
1.06092
1.0612
1.06151
1.06185
1.06222
1.06263
1.06307
1.06354
1.06404
1.06456
1.0651
1.06566
1.06624
1.06684
1.06744
1.06805
1.06866
1.06927
1.06989
1.0705
1.0711
1.0717
1.07228
1.07286
1.07343
1.07398
1.07452
1.07505
1.07556
1.07606
1.07655
1.07703
1.07749
1.07795
1.0784
1.09334
1.09336
1.09337
1.09337
1.09337
1.09337
1.09337
1.09335
1.09334
1.09332
1.0933
1.09327
1.09324
1.09321
1.09318
1.09314
1.0931
1.09306
1.09302
1.09298
1.09293
1.09288
1.09283
1.09278
1.09273
1.09268
1.09262
1.09257
1.09251
1.09245
1.09239
1.09233
1.09226
1.09219
1.09213
1.09206
1.09199
1.09192
1.09185
1.09177
1.0917
1.09163
1.09156
1.09149
1.09142
1.09135
1.09129
1.09123
1.09117
1.09112
1.09108
1.09104
1.091
1.09097
1.09096
1.09094
1.09094
1.09095
1.09097
1.09099
1.09103
1.09108
1.09114
1.09122
1.09131
1.09141
1.09153
1.09166
1.09181
1.09197
1.09214
1.09234
1.09254
1.09276
1.093
1.09325
1.09352
1.0938
1.09409
1.09439
1.09471
1.09504
1.09537
1.09571
1.09606
1.09641
1.09677
1.09712
1.09747
1.09782
1.09815
1.09848
1.09879
1.09909
1.09936
1.09962
1.09985
1.10006
1.10025
1.10041
1.10055
1.10066
1.10075
1.10082
1.10087
1.10091
1.10093
1.10095
1.10095
1.10094
1.10093
1.10091
1.10089
1.10087
1.10085
1.10083
1.10081
1.10079
1.10077
1.10075
1.10074
1.10072
1.10071
1.1007
1.10069
1.10068
1.10067
1.10066
1.10066
1.10065
1.10065
1.10064
1.10063
1.10063
1.10062
1.10061
1.10061
1.1006
1.10059
1.10058
1.10057
1.10056
1.10055
1.10054
1.10052
1.10051
1.1005
1.10048
1.10047
1.10045
1.10044
1.10042
1.10041
1.10039
1.10038
1.10036
1.10035
1.10033
1.10031
1.1003
1.10028
1.10027
1.10025
1.10024
1.10023
1.10021
1.1002
1.10019
1.10018
1.10018
1.10017
1.10016
1.10016
1.10016
1.10016
1.10016
1.10017
1.10017
1.10018
1.10019
1.1002
1.10021
1.10023
1.10024
1.10026
1.10028
1.1003
1.10032
1.10034
1.10036
1.10038
1.1004
1.10042
1.10043
1.10045
1.10047
1.10048
1.1005
1.10051
1.10052
1.10052
1.10053
1.10053
1.10052
1.10052
1.10051
1.1005
1.10048
1.10046
1.10044
1.10041
1.10038
1.10034
1.1003
1.10025
1.1002
1.10014
1.10008
1.10001
1.09993
1.09984
1.09974
1.09963
1.09951
1.09936
1.0992
1.09901
1.09879
1.09853
1.09824
1.0979
1.09751
1.09708
1.09658
1.09603
1.09542
1.09474
1.09401
1.09322
1.09238
1.09148
1.09055
1.08958
1.08858
1.08756
1.08654
1.08552
1.08451
1.08352
1.08257
1.08165
1.08079
1.07999
1.07925
1.07858
1.07799
1.07746
1.077
1.07661
1.07628
1.076
1.07577
1.07558
1.07542
1.07528
1.07515
1.07503
1.0749
1.07478
1.07464
1.07449
1.07432
1.07414
1.07394
1.07371
1.07346
1.07319
1.07289
1.07257
1.07222
1.07185
1.07146
1.07104
1.0706
1.07014
1.06966
1.06917
1.06866
1.06814
1.06762
1.06709
1.06655
1.06602
1.0655
1.06498
1.06447
1.06398
1.0635
1.06304
1.0626
1.06218
1.06178
1.0614
1.06104
1.0607
1.06038
1.06008
1.0598
1.05954
1.0593
1.05907
1.05887
1.05868
1.0585
1.05834
1.0582
1.05807
1.05796
1.05786
1.05778
1.05771
1.05765
1.05761
1.05758
1.05756
1.05756
1.05756
1.05758
1.05761
1.05765
1.05769
1.05774
1.0578
1.05787
1.05794
1.05801
1.05809
1.05817
1.05826
1.05834
1.05842
1.05851
1.05859
1.05867
1.05875
1.05883
1.0589
1.05897
1.05904
1.0591
1.05917
1.05923
1.05929
1.05935
1.05941
1.05948
1.05956
1.05964
1.05974
1.05985
1.05997
1.06012
1.06029
1.06049
1.06071
1.06096
1.06124
1.06155
1.0619
1.06228
1.06268
1.06312
1.06359
1.06409
1.06461
1.06515
1.06571
1.06628
1.06687
1.06747
1.06808
1.06869
1.0693
1.06991
1.07052
1.07113
1.07172
1.07231
1.07289
1.07345
1.07401
1.07455
1.07508
1.07559
1.0761
1.07659
1.07707
1.07754
1.078
1.07845
1.09274
1.09276
1.09278
1.09279
1.0928
1.0928
1.0928
1.09279
1.09278
1.09277
1.09276
1.09274
1.09272
1.09269
1.09266
1.09263
1.0926
1.09257
1.09254
1.0925
1.09246
1.09243
1.09239
1.09235
1.0923
1.09226
1.09222
1.09217
1.09213
1.09208
1.09203
1.09198
1.09192
1.09187
1.09181
1.09176
1.0917
1.09164
1.09158
1.09152
1.09146
1.09139
1.09133
1.09127
1.09121
1.09116
1.0911
1.09105
1.091
1.09095
1.09091
1.09088
1.09085
1.09082
1.09081
1.0908
1.0908
1.0908
1.09082
1.09085
1.09089
1.09094
1.091
1.09107
1.09116
1.09126
1.09137
1.0915
1.09164
1.0918
1.09197
1.09216
1.09236
1.09257
1.0928
1.09305
1.09331
1.09358
1.09387
1.09417
1.09448
1.0948
1.09513
1.09547
1.09581
1.09616
1.09651
1.09687
1.09722
1.09757
1.0979
1.09823
1.09855
1.09885
1.09913
1.09939
1.09963
1.09985
1.10004
1.1002
1.10034
1.10046
1.10055
1.10062
1.10068
1.10071
1.10074
1.10075
1.10075
1.10075
1.10073
1.10072
1.1007
1.10068
1.10066
1.10064
1.10061
1.10059
1.10057
1.10056
1.10054
1.10052
1.10051
1.1005
1.10048
1.10047
1.10046
1.10045
1.10044
1.10043
1.10042
1.10042
1.10041
1.1004
1.10039
1.10038
1.10037
1.10035
1.10034
1.10033
1.10032
1.1003
1.10029
1.10028
1.10026
1.10025
1.10023
1.10022
1.1002
1.10018
1.10017
1.10015
1.10013
1.10012
1.1001
1.10008
1.10006
1.10005
1.10003
1.10001
1.09999
1.09998
1.09996
1.09994
1.09993
1.09991
1.0999
1.09988
1.09987
1.09986
1.09985
1.09984
1.09983
1.09983
1.09982
1.09982
1.09982
1.09982
1.09982
1.09982
1.09982
1.09983
1.09984
1.09984
1.09985
1.09986
1.09987
1.09988
1.09989
1.0999
1.09991
1.09992
1.09993
1.09994
1.09995
1.09995
1.09996
1.09996
1.09996
1.09996
1.09995
1.09994
1.09993
1.09992
1.0999
1.09988
1.09986
1.09983
1.0998
1.09977
1.09973
1.09968
1.09964
1.09959
1.09953
1.09947
1.0994
1.09933
1.09925
1.09917
1.09907
1.09897
1.09885
1.09872
1.09857
1.09839
1.0982
1.09797
1.09771
1.09741
1.09706
1.09667
1.09623
1.09573
1.09517
1.09455
1.09387
1.09313
1.09234
1.09149
1.0906
1.08967
1.0887
1.08771
1.0867
1.08569
1.08468
1.08369
1.08272
1.08179
1.0809
1.08007
1.0793
1.07859
1.07795
1.07739
1.0769
1.07647
1.07611
1.07582
1.07557
1.07537
1.07521
1.07508
1.07496
1.07486
1.07477
1.07468
1.07458
1.07448
1.07437
1.07424
1.07409
1.07392
1.07374
1.07353
1.07329
1.07304
1.07276
1.07246
1.07213
1.07177
1.0714
1.071
1.07058
1.07015
1.06969
1.06922
1.06874
1.06825
1.06776
1.06725
1.06675
1.06625
1.06576
1.06527
1.0648
1.06433
1.06388
1.06344
1.06302
1.06262
1.06223
1.06186
1.06151
1.06118
1.06086
1.06057
1.06029
1.06003
1.05978
1.05955
1.05934
1.05914
1.05896
1.05879
1.05864
1.0585
1.05838
1.05827
1.05818
1.0581
1.05804
1.05799
1.05795
1.05792
1.05791
1.05791
1.05791
1.05793
1.05796
1.05799
1.05804
1.05808
1.05814
1.0582
1.05826
1.05833
1.0584
1.05847
1.05854
1.05862
1.05869
1.05876
1.05883
1.0589
1.05896
1.05902
1.05908
1.05914
1.05919
1.05925
1.0593
1.05936
1.05942
1.05949
1.05956
1.05965
1.05975
1.05986
1.05999
1.06015
1.06032
1.06052
1.06075
1.061
1.06129
1.06161
1.06195
1.06233
1.06274
1.06318
1.06365
1.06414
1.06466
1.0652
1.06576
1.06633
1.06692
1.06751
1.06812
1.06873
1.06934
1.06995
1.07056
1.07116
1.07176
1.07234
1.07292
1.07349
1.07404
1.07459
1.07512
1.07563
1.07614
1.07663
1.07712
1.07759
1.07805
1.07851
1.09206
1.09209
1.09211
1.09213
1.09214
1.09215
1.09216
1.09216
1.09216
1.09215
1.09214
1.09213
1.09212
1.0921
1.09208
1.09206
1.09204
1.09202
1.09199
1.09197
1.09194
1.09191
1.09189
1.09186
1.09183
1.09179
1.09176
1.09173
1.09169
1.09166
1.09162
1.09158
1.09154
1.0915
1.09146
1.09141
1.09136
1.09132
1.09127
1.09122
1.09117
1.09112
1.09107
1.09102
1.09097
1.09092
1.09087
1.09083
1.09078
1.09075
1.09071
1.09068
1.09066
1.09064
1.09062
1.09062
1.09062
1.09063
1.09065
1.09068
1.09071
1.09076
1.09082
1.0909
1.09098
1.09108
1.09119
1.09131
1.09145
1.0916
1.09177
1.09195
1.09215
1.09236
1.09258
1.09282
1.09308
1.09334
1.09362
1.09392
1.09422
1.09453
1.09486
1.09519
1.09553
1.09588
1.09623
1.09658
1.09693
1.09728
1.09762
1.09795
1.09828
1.09858
1.09887
1.09914
1.09938
1.0996
1.0998
1.09997
1.10011
1.10023
1.10033
1.1004
1.10046
1.1005
1.10052
1.10053
1.10053
1.10053
1.10052
1.1005
1.10048
1.10046
1.10044
1.10042
1.1004
1.10038
1.10036
1.10034
1.10032
1.1003
1.10029
1.10027
1.10025
1.10024
1.10023
1.10021
1.1002
1.10018
1.10017
1.10016
1.10014
1.10013
1.10012
1.1001
1.10009
1.10007
1.10006
1.10004
1.10002
1.10001
1.09999
1.09997
1.09996
1.09994
1.09992
1.0999
1.09989
1.09987
1.09985
1.09983
1.09981
1.09979
1.09977
1.09975
1.09973
1.09971
1.09969
1.09967
1.09965
1.09963
1.09961
1.0996
1.09958
1.09956
1.09954
1.09952
1.09951
1.09949
1.09948
1.09946
1.09945
1.09944
1.09943
1.09942
1.09941
1.0994
1.0994
1.09939
1.09939
1.09938
1.09938
1.09938
1.09938
1.09938
1.09938
1.09938
1.09938
1.09938
1.09938
1.09938
1.09938
1.09938
1.09937
1.09937
1.09936
1.09935
1.09934
1.09933
1.09931
1.09929
1.09927
1.09924
1.09922
1.09919
1.09915
1.09911
1.09907
1.09903
1.09898
1.09893
1.09887
1.09881
1.09875
1.09868
1.0986
1.09853
1.09844
1.09835
1.09825
1.09813
1.09801
1.09787
1.09772
1.09754
1.09734
1.09711
1.09684
1.09654
1.09619
1.09579
1.09534
1.09484
1.09428
1.09366
1.09298
1.09224
1.09145
1.0906
1.08971
1.08878
1.08782
1.08684
1.08584
1.08484
1.08385
1.08287
1.08193
1.08102
1.08016
1.07936
1.07862
1.07794
1.07734
1.07681
1.07635
1.07596
1.07563
1.07536
1.07515
1.07498
1.07484
1.07474
1.07465
1.07458
1.07451
1.07445
1.07438
1.07431
1.07423
1.07413
1.07401
1.07388
1.07373
1.07356
1.07337
1.07315
1.07291
1.07265
1.07236
1.07205
1.07172
1.07136
1.07099
1.0706
1.07018
1.06976
1.06932
1.06887
1.06841
1.06795
1.06748
1.06701
1.06655
1.06608
1.06563
1.06518
1.06474
1.06431
1.0639
1.0635
1.06311
1.06274
1.06238
1.06204
1.06171
1.0614
1.06111
1.06083
1.06056
1.06031
1.06008
1.05986
1.05965
1.05946
1.05929
1.05913
1.05898
1.05885
1.05874
1.05863
1.05854
1.05847
1.05841
1.05836
1.05832
1.0583
1.05828
1.05828
1.05828
1.0583
1.05832
1.05835
1.05839
1.05843
1.05847
1.05852
1.05858
1.05864
1.05869
1.05875
1.05881
1.05887
1.05892
1.05898
1.05903
1.05908
1.05913
1.05918
1.05923
1.05928
1.05933
1.05938
1.05944
1.0595
1.05958
1.05966
1.05977
1.05988
1.06002
1.06017
1.06035
1.06056
1.06079
1.06105
1.06134
1.06166
1.06201
1.06239
1.06281
1.06325
1.06371
1.0642
1.06472
1.06526
1.06581
1.06638
1.06697
1.06756
1.06816
1.06877
1.06938
1.06999
1.0706
1.0712
1.0718
1.07238
1.07296
1.07353
1.07409
1.07463
1.07517
1.07569
1.07619
1.07669
1.07717
1.07765
1.07812
1.07857
1.09131
1.09135
1.09138
1.0914
1.09142
1.09144
1.09146
1.09147
1.09147
1.09148
1.09148
1.09147
1.09147
1.09146
1.09145
1.09144
1.09143
1.09142
1.0914
1.09139
1.09137
1.09136
1.09134
1.09132
1.0913
1.09128
1.09126
1.09124
1.09122
1.0912
1.09117
1.09115
1.09112
1.09109
1.09106
1.09102
1.09099
1.09095
1.09091
1.09088
1.09084
1.0908
1.09076
1.09072
1.09068
1.09064
1.0906
1.09056
1.09053
1.0905
1.09047
1.09045
1.09043
1.09041
1.0904
1.0904
1.09041
1.09042
1.09044
1.09047
1.09051
1.09056
1.09062
1.09069
1.09077
1.09087
1.09098
1.0911
1.09123
1.09138
1.09155
1.09172
1.09191
1.09212
1.09234
1.09257
1.09282
1.09308
1.09335
1.09364
1.09393
1.09424
1.09456
1.09488
1.09522
1.09556
1.09591
1.09626
1.09661
1.09696
1.09731
1.09764
1.09797
1.09828
1.09858
1.09885
1.0991
1.09933
1.09954
1.09971
1.09986
1.09998
1.10008
1.10016
1.10022
1.10026
1.10028
1.10029
1.1003
1.10029
1.10028
1.10026
1.10024
1.10022
1.1002
1.10018
1.10016
1.10014
1.10012
1.10009
1.10007
1.10005
1.10004
1.10002
1.1
1.09998
1.09996
1.09994
1.09992
1.09991
1.09989
1.09987
1.09985
1.09983
1.09981
1.09979
1.09977
1.09975
1.09973
1.09971
1.09969
1.09967
1.09965
1.09963
1.09961
1.09959
1.09957
1.09955
1.09953
1.09951
1.09949
1.09946
1.09944
1.09942
1.0994
1.09938
1.09936
1.09933
1.09931
1.09929
1.09927
1.09924
1.09922
1.0992
1.09918
1.09916
1.09913
1.09911
1.09909
1.09907
1.09905
1.09903
1.09901
1.099
1.09898
1.09896
1.09895
1.09893
1.09892
1.09891