# vtk DataFile Version 2.0
LBE two cylinders
ASCII
DATASET STRUCTURED_POINTS
DIMENSIONS 400 100 1
ASPECT_RATIO 1 1 1
ORIGIN 0 0 0
POINT_DATA 40000
SCALARS rho double 1
LOOKUP_TABLE default
1.0685
1.0682
1.06787
1.06754
1.06721
1.0669
1.06658
1.06628
1.06598
1.06569
1.06541
1.06513
1.06487
1.06463
1.06442
1.06425
1.06414
1.06412
1.06422
1.06448
1.06496
1.06571
1.06678
1.06818
1.06987
1.0718
1.07385
1.07588
1.07778
1.07945
1.08082
1.08187
1.08262
1.08312
1.0834
1.08353
1.08355
1.08351
1.08343
1.08332
1.08321
1.0831
1.08299
1.08289
1.0828
1.08271
1.08264
1.08258
1.08253
1.0825
1.08248
1.08249
1.08252
1.08259
1.08269
1.08285
1.08305
1.08332
1.08366
1.08408
1.08456
1.08513
1.08576
1.08647
1.08722
1.08802
1.08884
1.08967
1.09049
1.0913
1.09206
1.09278
1.09345
1.09406
1.09461
1.0951
1.09554
1.09594
1.09628
1.0966
1.09688
1.09715
1.09739
1.09762
1.09785
1.09806
1.09826
1.09846
1.09866
1.09884
1.09902
1.09919
1.09934
1.09949
1.09961
1.09973
1.09982
1.09989
1.09995
1.09998
1.09999
1.09998
1.09995
1.09989
1.09982
1.09972
1.09961
1.09948
1.09934
1.09918
1.09902
1.09884
1.09865
1.09846
1.09826
1.09805
1.09784
1.09762
1.09738
1.09714
1.09687
1.09659
1.09627
1.09592
1.09553
1.09509
1.0946
1.09405
1.09344
1.09277
1.09205
1.09128
1.09048
1.08966
1.08883
1.08801
1.08721
1.08646
1.08576
1.08512
1.08456
1.08407
1.08366
1.08332
1.08305
1.08284
1.08269
1.08258
1.08252
1.08248
1.08248
1.08249
1.08253
1.08258
1.08264
1.08271
1.0828
1.08289
1.08299
1.08311
1.08323
1.08336
1.0835
1.08365
1.0838
1.08396
1.08414
1.08431
1.0845
1.08469
1.08489
1.0851
1.08532
1.08554
1.08576
1.086
1.08624
1.08649
1.08674
1.087
1.08727
1.08755
1.08784
1.08813
1.08843
1.08873
1.08905
1.08937
1.0897
1.09004
1.0904
1.09076
1.09113
1.09152
1.09192
1.09233
1.09276
1.09319
1.09364
1.0941
1.09457
1.09504
1.09553
1.09601
1.09651
1.09701
1.09753
1.09806
1.0986
1.09917
1.09976
1.10038
1.10102
1.10168
1.10236
1.10304
1.10373
1.10439
1.10503
1.10561
1.1061
1.10641
1.10636
1.1057
1.104
1.10077
1.0955
1.08787
1.0779
1.06611
1.05346
1.04109
1.03004
1.02094
1.01397
1.00896
1.00555
1.00332
1.00193
1.00109
1.0006
1.00032
1.00017
1.00008
1.00004
1.00002
1.00001
1
1
1
1
1
1
1
1
1
1
1
1
1
1
1
1
1
1
1
1
1
1
1
1
1
1
1
1
1
1
1
1
1
1
1
1
1
1
1
1
1
1
1
1
1
1
1
1
1
1
1
1
1
1
1
1
1
1
1
1
1
1
1
1
1
1
1
1
1
1
1
1
1
1
1
1
1
1
1
1
1
1
1
1
1
1
1
1
1
1
1
1
1
1
1
1
1
1
1
1
1
1
1
1
1
1
1
1
1
1
1
1
1
1
1
1
1
1
1
1
1
1
1
1
1
1
1
1
1
1
1
1
1
1
1
1
1
1
1
1
1
1
1
1
1
1
1
1
1
1
1
1
1
1.06852
1.06819
1.06786
1.06754
1.06722
1.0669
1.06659
1.06629
1.06599
1.06571
1.06543
1.06516
1.06491
1.06468
1.06447
1.06431
1.06422
1.06422
1.06434
1.06463
1.06513
1.06587
1.06691
1.06824
1.06985
1.07168
1.07364
1.07562
1.07748
1.07915
1.08054
1.08164
1.08244
1.08298
1.0833
1.08347
1.08351
1.08349
1.08341
1.08332
1.08321
1.0831
1.08299
1.08289
1.0828
1.08272
1.08265
1.08259
1.08254
1.08251
1.0825
1.08251
1.08256
1.08263
1.08275
1.08292
1.08314
1.08342
1.08377
1.08419
1.08468
1.08524
1.08587
1.08654
1.08727
1.08803
1.08881
1.0896
1.09038
1.09115
1.09188
1.09257
1.09322
1.09382
1.09436
1.09486
1.09531
1.09572
1.09609
1.09643
1.09673
1.09702
1.09728
1.09753
1.09777
1.09799
1.09821
1.09842
1.09862
1.09881
1.09899
1.09916
1.09931
1.09946
1.09959
1.0997
1.09979
1.09986
1.09992
1.09995
1.09996
1.09995
1.09992
1.09986
1.09979
1.0997
1.09958
1.09945
1.09931
1.09915
1.09898
1.0988
1.09861
1.09841
1.0982
1.09798
1.09776
1.09752
1.09727
1.09701
1.09672
1.09641
1.09608
1.09571
1.0953
1.09485
1.09435
1.0938
1.0932
1.09256
1.09186
1.09113
1.09037
1.08959
1.0888
1.08802
1.08726
1.08653
1.08585
1.08523
1.08467
1.08418
1.08377
1.08342
1.08313
1.08291
1.08275
1.08263
1.08255
1.08251
1.0825
1.08251
1.08254
1.08258
1.08264
1.08272
1.0828
1.08289
1.083
1.08311
1.08323
1.08336
1.0835
1.08365
1.0838
1.08396
1.08413
1.08431
1.0845
1.08469
1.08489
1.0851
1.08531
1.08553
1.08576
1.08599
1.08623
1.08648
1.08673
1.08699
1.08726
1.08754
1.08782
1.08811
1.08841
1.08872
1.08903
1.08935
1.08968
1.09002
1.09038
1.09074
1.09111
1.09149
1.09189
1.0923
1.09272
1.09316
1.0936
1.09406
1.09452
1.09499
1.09547
1.09596
1.09645
1.09695
1.09746
1.09799
1.09853
1.09909
1.09967
1.10027
1.1009
1.10154
1.10219
1.10285
1.1035
1.10413
1.10473
1.10526
1.10566
1.10581
1.10552
1.10454
1.10251
1.09908
1.0939
1.08674
1.07758
1.06674
1.05491
1.04305
1.03212
1.02284
1.01552
1.01012
1.00636
1.00386
1.00227
1.0013
1.00072
1.00039
1.0002
1.0001
1.00005
1.00003
1.00001
1.00001
1
1
1
1
1
1
1
1
1
1
1
1
1
1
1
1
1
1
1
1
1
1
1
1
1
1
1
1
1
1
1
1
1
1
1
1
1
1
1
1
1
1
1
1
1
1
1
1
1
1
1
1
1
1
1
1
1
1
1
1
1
1
1
1
1
1
1
1
1
1
1
1
1
1
1
1
1
1
1
1
1
1
1
1
1
1
1
1
1
1
1
1
1
1
1
1
1
1
1
1
1
1
1
1
1
1
1
1
1
1
1
1
1
1
1
1
1
1
1
1
1
1
1
1
1
1
1
1
1
1
1
1
1
1
1
1
1
1
1
1
1
1
1
1
1
1
1
1
1
1
1
1
1.06855
1.0682
1.06787
1.06755
1.06723
1.06692
1.06661
1.06631
1.06602
1.06574
1.06547
1.06521
1.06496
1.06474
1.06454
1.06439
1.06431
1.06432
1.06446
1.06477
1.06527
1.066
1.06699
1.06826
1.06979
1.07154
1.07343
1.07535
1.0772
1.07887
1.0803
1.08144
1.08228
1.08286
1.08322
1.08341
1.08348
1.08347
1.0834
1.08331
1.08321
1.0831
1.083
1.0829
1.08281
1.08273
1.08266
1.0826
1.08256
1.08253
1.08253
1.08256
1.08261
1.0827
1.08284
1.08302
1.08326
1.08356
1.08393
1.08435
1.08484
1.08539
1.08598
1.08663
1.08731
1.08801
1.08874
1.08946
1.09018
1.09088
1.09156
1.09222
1.09283
1.09342
1.09396
1.09447
1.09494
1.09538
1.09578
1.09615
1.0965
1.09682
1.09712
1.0974
1.09766
1.09791
1.09815
1.09838
1.09859
1.0988
1.09899
1.09916
1.09933
1.09948
1.09961
1.09972
1.09982
1.09989
1.09995
1.09998
1.09999
1.09998
1.09995
1.09989
1.09982
1.09972
1.0996
1.09947
1.09932
1.09916
1.09898
1.09879
1.09858
1.09837
1.09814
1.0979
1.09765
1.09738
1.0971
1.0968
1.09648
1.09613
1.09576
1.09536
1.09492
1.09445
1.09394
1.0934
1.09281
1.09219
1.09154
1.09086
1.09016
1.08944
1.08872
1.088
1.08729
1.08661
1.08597
1.08537
1.08483
1.08434
1.08391
1.08355
1.08325
1.08302
1.08283
1.0827
1.0826
1.08255
1.08253
1.08253
1.08255
1.0826
1.08265
1.08272
1.08281
1.0829
1.083
1.08311
1.08323
1.08336
1.0835
1.08365
1.0838
1.08396
1.08413
1.08431
1.0845
1.08469
1.08489
1.08509
1.0853
1.08552
1.08575
1.08598
1.08622
1.08647
1.08672
1.08698
1.08725
1.08753
1.08781
1.0881
1.0884
1.0887
1.08901
1.08934
1.08967
1.09001
1.09036
1.09072
1.09109
1.09147
1.09186
1.09227
1.09269
1.09312
1.09356
1.09401
1.09447
1.09494
1.09541
1.09589
1.09638
1.09688
1.09739
1.09791
1.09845
1.099
1.09956
1.10015
1.10075
1.10137
1.10199
1.10261
1.10323
1.10382
1.10436
1.10482
1.10512
1.10512
1.10464
1.10343
1.10121
1.0977
1.09266
1.08589
1.07737
1.06729
1.05615
1.04476
1.03398
1.02458
1.01698
1.01124
1.00715
1.0044
1.00262
1.00151
1.00085
1.00046
1.00024
1.00013
1.00006
1.00003
1.00001
1.00001
1
1
1
1
1
1
1
1
1
1
1
1
1
1
1
1
1
1
1
1
1
1
1
1
1
1
1
1
1
1
1
1
1
1
1
1
1
1
1
1
1
1
1
1
1
1
1
1
1
1
1
1
1
1
1
1
1
1
1
1
1
1
1
1
1
1
1
1
1
1
1
1
1
1
1
1
1
1
1
1
1
1
1
1
1
1
1
1
1
1
1
1
1
1
1
1
1
1
1
1
1
1
1
1
1
1
1
1
1
1
1
1
1
1
1
1
1
1
1
1
1
1
1
1
1
1
1
1
1
1
1
1
1
1
1
1
1
1
1
1
1
1
1
1
1
1
1
1
1
1
1
1
1.06857
1.06823
1.0679
1.06757
1.06726
1.06695
1.06664
1.06635
1.06606
1.06579
1.06552
1.06526
1.06502
1.0648
1.06461
1.06446
1.06439
1.06441
1.06457
1.0649
1.06541
1.06614
1.0671
1.06831
1.06976
1.07143
1.07324
1.0751
1.07692
1.07859
1.08004
1.08122
1.08211
1.08274
1.08314
1.08336
1.08345
1.08345
1.0834
1.08331
1.08321
1.08311
1.083
1.0829
1.08282
1.08274
1.08267
1.08262
1.08258
1.08257
1.08257
1.08261
1.08268
1.0828
1.08295
1.08316
1.08342
1.08374
1.08411
1.08454
1.08502
1.08555
1.08611
1.08671
1.08733
1.08796
1.08861
1.08925
1.08989
1.09052
1.09114
1.09174
1.09233
1.09289
1.09343
1.09395
1.09444
1.09491
1.09535
1.09577
1.09616
1.09653
1.09687
1.0972
1.09751
1.0978
1.09807
1.09833
1.09857
1.09879
1.099
1.0992
1.09938
1.09954
1.09968
1.09981
1.09991
1.09999
1.10005
1.10008
1.10009
1.10008
1.10005
1.09999
1.09991
1.0998
1.09968
1.09953
1.09937
1.09919
1.09899
1.09878
1.09855
1.09831
1.09805
1.09778
1.09749
1.09718
1.09685
1.0965
1.09613
1.09574
1.09532
1.09488
1.09441
1.09392
1.0934
1.09286
1.0923
1.09171
1.09111
1.09049
1.08986
1.08922
1.08858
1.08793
1.0873
1.08668
1.08609
1.08552
1.085
1.08452
1.0841
1.08372
1.08341
1.08315
1.08294
1.08278
1.08267
1.0826
1.08257
1.08256
1.08257
1.08261
1.08266
1.08273
1.08281
1.0829
1.08301
1.08312
1.08324
1.08337
1.0835
1.08365
1.0838
1.08397
1.08414
1.08431
1.0845
1.08469
1.08489
1.08509
1.0853
1.08552
1.08575
1.08598
1.08622
1.08646
1.08672
1.08697
1.08724
1.08752
1.0878
1.08809
1.08838
1.08869
1.089
1.08932
1.08965
1.08999
1.09034
1.0907
1.09107
1.09145
1.09184
1.09224
1.09265
1.09308
1.09352
1.09396
1.09442
1.09488
1.09535
1.09583
1.09632
1.09682
1.09732
1.09784
1.09837
1.09891
1.09946
1.10003
1.10062
1.10121
1.1018
1.10239
1.10297
1.10353
1.10402
1.10442
1.10462
1.1045
1.10385
1.10244
1.10002
1.09636
1.09129
1.08474
1.07671
1.06734
1.05698
1.04621
1.03577
1.02639
1.01857
1.01251
1.00808
1.00504
1.00303
1.00177
1.001
1.00055
1.0003
1.00015
1.00008
1.00004
1.00002
1.00001
1
1
1
1
1
1
1
1
1
1
1
1
1
1
1
1
1
1
1
1
1
1
1
1
1
1
1
1
1
1
1
1
1
1
1
1
1
1
1
1
1
1
1
1
1
1
1
1
1
1
1
1
1
1
1
1
1
1
1
1
1
1
1
1
1
1
1
1
1
1
1
1
1
1
1
1
1
1
1
1
1
1
1
1
1
1
1
1
1
1
1
1
1
1
1
1
1
1
1
1
1
1
1
1
1
1
1
1
1
1
1
1
1
1
1
1
1
1
1
1
1
1
1
1
1
1
1
1
1
1
1
1
1
1
1
1
1
1
1
1
1
1
1
1
1
1
1
1
1
1
1
1
1.06859
1.06826
1.06793
1.06761
1.06729
1.06699
1.06669
1.0664
1.06611
1.06584
1.06557
1.06532
1.06508
1.06486
1.06468
1.06454
1.06448
1.06452
1.06471
1.06506
1.0656
1.06632
1.06726
1.0684
1.06977
1.07133
1.07305
1.07484
1.07662
1.07829
1.07976
1.08097
1.08191
1.08259
1.08303
1.08329
1.08341
1.08343
1.08339
1.08331
1.08321
1.08311
1.08301
1.08291
1.08283
1.08275
1.08269
1.08264
1.08261
1.08261
1.08263
1.08268
1.08278
1.08291
1.08309
1.08333
1.08361
1.08394
1.08433
1.08475
1.08522
1.08572
1.08624
1.08678
1.08733
1.08788
1.08844
1.089
1.08955
1.09011
1.09066
1.0912
1.09174
1.09228
1.0928
1.09332
1.09383
1.09432
1.0948
1.09526
1.0957
1.09612
1.09652
1.0969
1.09725
1.09759
1.0979
1.0982
1.09848
1.09873
1.09897
1.09919
1.09939
1.09957
1.09972
1.09986
1.09997
1.10006
1.10012
1.10016
1.10017
1.10015
1.10012
1.10005
1.09996
1.09985
1.09972
1.09956
1.09938
1.09918
1.09896
1.09872
1.09846
1.09818
1.09788
1.09756
1.09723
1.09687
1.09649
1.09609
1.09567
1.09522
1.09476
1.09428
1.09379
1.09328
1.09276
1.09223
1.0917
1.09116
1.09061
1.09006
1.08951
1.08896
1.0884
1.08784
1.08729
1.08674
1.0862
1.08568
1.08519
1.08472
1.0843
1.08392
1.08358
1.0833
1.08307
1.08289
1.08276
1.08267
1.08262
1.0826
1.0826
1.08263
1.08268
1.08274
1.08282
1.08291
1.08301
1.08312
1.08324
1.08337
1.08351
1.08366
1.08381
1.08397
1.08414
1.08432
1.0845
1.08469
1.08489
1.08509
1.0853
1.08552
1.08574
1.08598
1.08621
1.08646
1.08671
1.08697
1.08724
1.08751
1.08779
1.08808
1.08837
1.08868
1.08899
1.08931
1.08964
1.08998
1.09032
1.09068
1.09105
1.09143
1.09182
1.09222
1.09263
1.09305
1.09348
1.09392
1.09438
1.09484
1.09531
1.09578
1.09627
1.09676
1.09727
1.09778
1.0983
1.09884
1.09938
1.09994
1.1005
1.10107
1.10164
1.1022
1.10274
1.10326
1.10372
1.10405
1.10415
1.10387
1.103
1.10132
1.09862
1.09476
1.08966
1.08332
1.0758
1.06718
1.05764
1.04758
1.03757
1.02828
1.0203
1.01391
1.00914
1.00577
1.00352
1.00208
1.00119
1.00066
1.00036
1.00019
1.0001
1.00005
1.00002
1.00001
1
1
1
1
1
1
1
1
1
1
1
1
1
1
1
1
1
1
1
1
1
1
1
1
1
1
1
1
1
1
1
1
1
1
1
1
1
1
1
1
1
1
1
1
1
1
1
1
1
1
1
1
1
1
1
1
1
1
1
1
1
1
1
1
1
1
1
1
1
1
1
1
1
1
1
1
1
1
1
1
1
1
1
1
1
1
1
1
1
1
1
1
1
1
1
1
1
1
1
1
1
1
1
1
1
1
1
1
1
1
1
1
1
1
1
1
1
1
1
1
1
1
1
1
1
1
1
1
1
1
1
1
1
1
1
1
1
1
1
1
1
1
1
1
1
1
1
1
1
1
1
1
1.06862
1.0683
1.06798
1.06766
1.06735
1.06704
1.06674
1.06645
1.06617
1.0659
1.06564
1.06539
1.06516
1.06494
1.06476
1.06463
1.06458
1.06466
1.06487
1.06526
1.06582
1.06654
1.06745
1.06853
1.0698
1.07125
1.07286
1.07458
1.07631
1.07796
1.07944
1.0807
1.08169
1.08242
1.08292
1.08322
1.08336
1.0834
1.08338
1.08331
1.08322
1.08312
1.08302
1.08293
1.08284
1.08277
1.08271
1.08267
1.08265
1.08266
1.0827
1.08277
1.08289
1.08305
1.08325
1.08351
1.08381
1.08416
1.08455
1.08497
1.08542
1.08588
1.08635
1.08683
1.08731
1.08778
1.08826
1.08873
1.0892
1.08967
1.09015
1.09063
1.09113
1.09162
1.09213
1.09264
1.09315
1.09366
1.09416
1.09465
1.09513
1.09559
1.09604
1.09647
1.09687
1.09726
1.09762
1.09797
1.09829
1.09859
1.09886
1.09911
1.09934
1.09955
1.09973
1.09988
1.10001
1.10011
1.10018
1.10022
1.10023
1.10022
1.10017
1.1001
1.1
1.09987
1.09972
1.09953
1.09933
1.0991
1.09884
1.09856
1.09826
1.09794
1.09759
1.09722
1.09684
1.09643
1.096
1.09555
1.09508
1.0946
1.0941
1.0936
1.09309
1.09258
1.09207
1.09156
1.09106
1.09057
1.09009
1.08961
1.08914
1.08866
1.08819
1.08772
1.08725
1.08677
1.0863
1.08583
1.08537
1.08492
1.08451
1.08412
1.08378
1.08347
1.08322
1.08302
1.08286
1.08275
1.08268
1.08264
1.08264
1.08266
1.0827
1.08276
1.08284
1.08292
1.08302
1.08313
1.08325
1.08338
1.08352
1.08366
1.08382
1.08398
1.08415
1.08432
1.0845
1.08469
1.08489
1.08509
1.0853
1.08552
1.08575
1.08598
1.08621
1.08646
1.08671
1.08697
1.08723
1.08751
1.08779
1.08807
1.08837
1.08867
1.08898
1.0893
1.08963
1.08997
1.09032
1.09067
1.09104
1.09142
1.0918
1.0922
1.09261
1.09303
1.09345
1.09389
1.09434
1.0948
1.09527
1.09574
1.09623
1.09672
1.09722
1.09773
1.09825
1.09878
1.09931
1.09985
1.10039
1.10094
1.10148
1.10201
1.10252
1.10299
1.10339
1.10363
1.10361
1.10315
1.10205
1.1001
1.09712
1.09304
1.08788
1.08173
1.07468
1.06678
1.0581
1.0488
1.03932
1.03023
1.02214
1.01545
1.01032
1.00661
1.00408
1.00244
1.00141
1.00079
1.00043
1.00023
1.00012
1.00006
1.00003
1.00001
1.00001
1
1
1
1
1
1
1
1
1
1
1
1
1
1
1
1
1
1
1
1
1
1
1
1
1
1
1
1
1
1
1
1
1
1
1
1
1
1
1
1
1
1
1
1
1
1
1
1
1
1
1
1
1
1
1
1
1
1
1
1
1
1
1
1
1
1
1
1
1
1
1
1
1
1
1
1
1
1
1
1
1
1
1
1
1
1
1
1
1
1
1
1
1
1
1
1
1
1
1
1
1
1
1
1
1
1
1
1
1
1
1
1
1
1
1
1
1
1
1
1
1
1
1
1
1
1
1
1
1
1
1
1
1
1
1
1
1
1
1
1
1
1
1
1
1
1
1
1
1
1
1
1.06867
1.06835
1.06803
1.06772
1.06741
1.06711
1.06681
1.06652
1.06625
1.06598
1.06572
1.06547
1.06524
1.06503
1.06486
1.06474
1.06471
1.06481
1.06507
1.06549
1.06607
1.0668
1.06767
1.06868
1.06985
1.07119
1.07269
1.07431
1.07598
1.07761
1.0791
1.0804
1.08145
1.08224
1.08278
1.08313
1.08331
1.08338
1.08337
1.08331
1.08323
1.08313
1.08304
1.08295
1.08286
1.0828
1.08274
1.08271
1.0827
1.08273
1.08278
1.08288
1.08302
1.0832
1.08343
1.08371
1.08403
1.08439
1.08478
1.08519
1.08561
1.08603
1.08645
1.08687
1.08728
1.08768
1.08807
1.08846
1.08886
1.08926
1.08967
1.09009
1.09053
1.09098
1.09146
1.09194
1.09244
1.09294
1.09345
1.09396
1.09446
1.09496
1.09544
1.09591
1.09636
1.09678
1.09719
1.09758
1.09794
1.09828
1.09859
1.09887
1.09913
1.09936
1.09956
1.09973
1.09987
1.09999
1.10006
1.10011
1.10013
1.10011
1.10006
1.09998
1.09986
1.09972
1.09954
1.09934
1.09911
1.09885
1.09856
1.09824
1.0979
1.09754
1.09715
1.09674
1.0963
1.09585
1.09538
1.09489
1.0944
1.09389
1.09338
1.09287
1.09236
1.09186
1.09137
1.0909
1.09044
1.09
1.08958
1.08917
1.08877
1.08837
1.08798
1.08759
1.08719
1.08679
1.08637
1.08595
1.08553
1.08512
1.08471
1.08433
1.08398
1.08366
1.08338
1.08316
1.08298
1.08284
1.08275
1.0827
1.08268
1.08269
1.08272
1.08278
1.08285
1.08294
1.08304
1.08314
1.08326
1.08339
1.08353
1.08367
1.08383
1.08399
1.08415
1.08433
1.08451
1.0847
1.0849
1.0851
1.08531
1.08553
1.08575
1.08598
1.08622
1.08646
1.08671
1.08697
1.08723
1.08751
1.08779
1.08807
1.08837
1.08867
1.08898
1.0893
1.08963
1.08997
1.09031
1.09067
1.09103
1.09141
1.09179
1.09219
1.09259
1.09301
1.09343
1.09387
1.09431
1.09477
1.09524
1.09571
1.09619
1.09669
1.09719
1.09769
1.09821
1.09873
1.09925
1.09977
1.10029
1.1008
1.10131
1.10181
1.10228
1.10271
1.10304
1.10319
1.10302
1.10237
1.10101
1.09876
1.09549
1.09119
1.08597
1.08
1.07341
1.06622
1.05838
1.0499
1.04101
1.0322
1.02406
1.01712
1.01162
1.00755
1.00472
1.00285
1.00167
1.00094
1.00052
1.00028
1.00014
1.00007
1.00004
1.00002
1.00001
1
1
1
1
1
1
1
1
1
1
1
1
1
1
1
1
1
1
1
1
1
1
1
1
1
1
1
1
1
1
1
1
1
1
1
1
1
1
1
1
1
1
1
1
1
1
1
1
1
1
1
1
1
1
1
1
1
1
1
1
1
1
1
1
1
1
1
1
1
1
1
1
1
1
1
1
1
1
1
1
1
1
1
1
1
1
1
1
1
1
1
1
1
1
1
1
1
1
1
1
1
1
1
1
1
1
1
1
1
1
1
1
1
1
1
1
1
1
1
1
1
1
1
1
1
1
1
1
1
1
1
1
1
1
1
1
1
1
1
1
1
1
1
1
1
1
1
1
1
1
1
1.06875
1.06843
1.06811
1.0678
1.06749
1.06719
1.06689
1.06661
1.06633
1.06607
1.06581
1.06557
1.06534
1.06513
1.06497
1.06487
1.06486
1.06499
1.06529
1.06574
1.06635
1.06708
1.06792
1.06886
1.06993
1.07114
1.07252
1.07404
1.07564
1.07723
1.07874
1.08007
1.08117
1.08202
1.08263
1.08302
1.08325
1.08334
1.08335
1.08331
1.08324
1.08315
1.08306
1.08297
1.08289
1.08283
1.08278
1.08276
1.08277
1.08281
1.08288
1.083
1.08317
1.08338
1.08363
1.08393
1.08426
1.08462
1.08501
1.0854
1.08579
1.08617
1.08654
1.0869
1.08725
1.08758
1.08791
1.08823
1.08856
1.08889
1.08924
1.08961
1.09
1.09041
1.09084
1.09129
1.09177
1.09225
1.09275
1.09325
1.09376
1.09426
1.09476
1.09525
1.09572
1.09618
1.09662
1.09704
1.09744
1.09781
1.09816
1.09848
1.09877
1.09903
1.09926
1.09945
1.09962
1.09974
1.09983
1.09989
1.0999
1.09988
1.09982
1.09973
1.0996
1.09944
1.09924
1.099
1.09874
1.09845
1.09812
1.09777
1.09739
1.09699
1.09656
1.09612
1.09565
1.09517
1.09468
1.09418
1.09367
1.09316
1.09265
1.09215
1.09166
1.09118
1.09073
1.09029
1.08988
1.08949
1.08912
1.08877
1.08844
1.08811
1.08779
1.08746
1.08713
1.08679
1.08643
1.08606
1.08568
1.0853
1.08491
1.08453
1.08418
1.08385
1.08356
1.08331
1.0831
1.08294
1.08283
1.08276
1.08273
1.08272
1.08275
1.0828
1.08287
1.08295
1.08305
1.08316
1.08328
1.0834
1.08354
1.08369
1.08384
1.084
1.08417
1.08434
1.08452
1.08471
1.08491
1.08511
1.08532
1.08553
1.08576
1.08599
1.08622
1.08647
1.08672
1.08697
1.08724
1.08751
1.08779
1.08808
1.08837
1.08868
1.08899
1.08931
1.08963
1.08997
1.09032
1.09067
1.09103
1.09141
1.09179
1.09218
1.09259
1.093
1.09342
1.09385
1.09429
1.09475
1.09521
1.09568
1.09617
1.09666
1.09715
1.09766
1.09816
1.09867
1.09918
1.09968
1.10018
1.10067
1.10115
1.10161
1.10204
1.10241
1.10266
1.1027
1.10238
1.10151
1.09987
1.0973
1.09372
1.08921
1.08393
1.07815
1.07201
1.06551
1.0585
1.05086
1.04262
1.03416
1.02606
1.01889
1.01304
1.0086
1.00545
1.00332
1.00196
1.00112
1.00062
1.00034
1.00018
1.00009
1.00004
1.00002
1.00001
1
1
1
1
1
1
1
1
1
1
1
1
1
1
1
1
1
1
1
1
1
1
1
1
1
1
1
1
1
1
1
1
1
1
1
1
1
1
1
1
1
1
1
1
1
1
1
1
1
1
1
1
1
1
1
1
1
1
1
1
1
1
1
1
1
1
1
1
1
1
1
1
1
1
1
1
1
1
1
1
1
1
1
1
1
1
1
1
1
1
1
1
1
1
1
1
1
1
1
1
1
1
1
1
1
1
1
1
1
1
1
1
1
1
1
1
1
1
1
1
1
1
1
1
1
1
1
1
1
1
1
1
1
1
1
1
1
1
1
1
1
1
1
1
1
1
1
1
1
1
1
1.06884
1.06852
1.0682
1.06789
1.06759
1.06728
1.06699
1.06671
1.06643
1.06617
1.06591
1.06567
1.06545
1.06525
1.06509
1.06501
1.06503
1.0652
1.06554
1.06603
1.06666
1.06738
1.06818
1.06906
1.07002
1.07111
1.07236
1.07377
1.07529
1.07685
1.07836
1.07972
1.08088
1.08179
1.08246
1.08291
1.08318
1.08331
1.08334
1.08331
1.08325
1.08317
1.08308
1.083
1.08293
1.08287
1.08284
1.08283
1.08285
1.08291
1.083
1.08315
1.08334
1.08357
1.08385
1.08416
1.0845
1.08486
1.08523
1.0856
1.08596
1.08631
1.08664
1.08695
1.08724
1.08752
1.0878
1.08807
1.08834
1.08862
1.08892
1.08924
1.08958
1.08995
1.09034
1.09075
1.09119
1.09164
1.09211
1.09259
1.09308
1.09357
1.09406
1.09455
1.09502
1.09549
1.09594
1.09638
1.09679
1.09718
1.09755
1.09788
1.09819
1.09847
1.09871
1.09892
1.09909
1.09923
1.09932
1.09938
1.0994
1.09938
1.09931
1.09921
1.09907
1.0989
1.09868
1.09843
1.09815
1.09784
1.09749
1.09712
1.09672
1.0963
1.09586
1.09541
1.09493
1.09445
1.09395
1.09346
1.09296
1.09246
1.09198
1.0915
1.09104
1.09061
1.09019
1.08979
1.08943
1.08908
1.08876
1.08846
1.08818
1.0879
1.08763
1.08736
1.08708
1.08679
1.08649
1.08616
1.08582
1.08547
1.0851
1.08474
1.08438
1.08405
1.08374
1.08347
1.08324
1.08306
1.08293
1.08283
1.08278
1.08277
1.08278
1.08283
1.08289
1.08297
1.08306
1.08317
1.08329
1.08342
1.08355
1.0837
1.08385
1.08401
1.08418
1.08435
1.08453
1.08472
1.08492
1.08512
1.08533
1.08555
1.08577
1.086
1.08623
1.08648
1.08673
1.08698
1.08725
1.08752
1.0878
1.08808
1.08838
1.08868
1.08899
1.08931
1.08964
1.08997
1.09032
1.09067
1.09104
1.09141
1.09179
1.09218
1.09258
1.09299
1.09341
1.09384
1.09428
1.09473
1.09519
1.09566
1.09614
1.09663
1.09712
1.09762
1.09812
1.09862
1.09911
1.0996
1.10007
1.10053
1.10098
1.1014
1.10179
1.1021
1.10227
1.10218
1.10167
1.10055
1.0986
1.0957
1.09182
1.0871
1.08181
1.07622
1.07053
1.06469
1.0585
1.05168
1.04414
1.03609
1.02808
1.02074
1.01456
1.00975
1.00625
1.00386
1.0023
1.00133
1.00074
1.0004
1.00021
1.00011
1.00005
1.00003
1.00001
1.00001
1
1
1
1
1
1
1
1
1
1
1
1
1
1
1
1
1
1
1
1
1
1
1
1
1
1
1
1
1
1
1
1
1
1
1
1
1
1
1
1
1
1
1
1
1
1
1
1
1
1
1
1
1
1
1
1
1
1
1
1
1
1
1
1
1
1
1
1
1
1
1
1
1
1
1
1
1
1
1
1
1
1
1
1
1
1
1
1
1
1
1
1
1
1
1
1
1
1
1
1
1
1
1
1
1
1
1
1
1
1
1
1
1
1
1
1
1
1
1
1
1
1
1
1
1
1
1
1
1
1
1
1
1
1
1
1
1
1
1
1
1
1
1
1
1
1
1
1
1
1
1.06896
1.06863
1.06832
1.068
1.06769
1.06739
1.0671
1.06681
1.06654
1.06627
1.06602
1.06578
1.06556
1.06537
1.06523
1.06517
1.06523
1.06544
1.06581
1.06634
1.06698
1.0677
1.06846
1.06926
1.07012
1.07109
1.07221
1.07351
1.07494
1.07646
1.07796
1.07935
1.08056
1.08154
1.08227
1.08278
1.0831
1.08327
1.08333
1.08332
1.08326
1.08319
1.08311
1.08304
1.08297
1.08293
1.0829
1.08291
1.08295
1.08303
1.08315
1.08332
1.08353
1.08379
1.08409
1.08441
1.08476
1.08512
1.08548
1.08583
1.08616
1.08647
1.08677
1.08704
1.08729
1.08753
1.08777
1.088
1.08824
1.08849
1.08875
1.08903
1.08934
1.08966
1.09001
1.09038
1.09078
1.09119
1.09161
1.09206
1.09251
1.09296
1.09343
1.09389
1.09434
1.09479
1.09524
1.09566
1.09607
1.09647
1.09684
1.09718
1.0975
1.09779
1.09804
1.09826
1.09844
1.09859
1.09869
1.09875
1.09877
1.09874
1.09868
1.09857
1.09842
1.09823
1.098
1.09774
1.09745
1.09712
1.09677
1.09639
1.09599
1.09557
1.09514
1.09469
1.09423
1.09376
1.09329
1.09283
1.09236
1.0919
1.09145
1.09102
1.0906
1.0902
1.08983
1.08947
1.08914
1.08883
1.08855
1.08828
1.08803
1.08779
1.08756
1.08733
1.08709
1.08683
1.08656
1.08628
1.08597
1.08564
1.0853
1.08495
1.0846
1.08426
1.08394
1.08365
1.0834
1.0832
1.08304
1.08292
1.08285
1.08282
1.08283
1.08286
1.08291
1.08299
1.08308
1.08319
1.08331
1.08343
1.08357
1.08371
1.08387
1.08403
1.08419
1.08437
1.08455
1.08474
1.08493
1.08513
1.08534
1.08556
1.08578
1.08601
1.08625
1.08649
1.08674
1.087
1.08726
1.08753
1.08781
1.08809
1.08839
1.08869
1.089
1.08932
1.08965
1.08998
1.09033
1.09068
1.09104
1.09141
1.09179
1.09218
1.09258
1.09299
1.0934
1.09383
1.09427
1.09472
1.09517
1.09564
1.09612
1.09661
1.0971
1.09759
1.09808
1.09857
1.09905
1.09951
1.09996
1.1004
1.10081
1.10119
1.10153
1.10177
1.10184
1.1016
1.10087
1.09947
1.0972
1.09396
1.08979
1.0849
1.07961
1.07425
1.06901
1.06381
1.05839
1.05238
1.04554
1.03797
1.03013
1.02266
1.01618
1.01099
1.00714
1.00445
1.00268
1.00156
1.00088
1.00048
1.00026
1.00013
1.00007
1.00003
1.00002
1.00001
1
1
1
1
1
1
1
1
1
1
1
1
1
1
1
1
1
1
1
1
1
1
1
1
1
1
1
1
1
1
1
1
1
1
1
1
1
1
1
1
1
1
1
1
1
1
1
1
1
1
1
1
1
1
1
1
1
1
1
1
1
1
1
1
1
1
1
1
1
1
1
1
1
1
1
1
1
1
1
1
1
1
1
1
1
1
1
1
1
1
1
1
1
1
1
1
1
1
1
1
1
1
1
1
1
1
1
1
1
1
1
1
1
1
1
1
1
1
1
1
1
1
1
1
1
1
1
1
1
1
1
1
1
1
1
1
1
1
1
1
1
1
1
1
1
1
1
1
1
1
1.06909
1.06877
1.06844
1.06813
1.06782
1.06751
1.06722
1.06693
1.06666
1.06639
1.06614
1.06591
1.06569
1.06551
1.06538
1.06535
1.06544
1.06569
1.06611
1.06666
1.06732
1.06803
1.06875
1.06947
1.07023
1.07107
1.07207
1.07325
1.07459
1.07606
1.07755
1.07896
1.08022
1.08127
1.08207
1.08264
1.08301
1.08322
1.08331
1.08332
1.08329
1.08322
1.08315
1.08309
1.08303
1.083
1.08299
1.08302
1.08308
1.08318
1.08333
1.08353
1.08377
1.08405
1.08436
1.0847
1.08505
1.08541
1.08576
1.08609
1.0864
1.08669
1.08696
1.08721
1.08745
1.08767
1.08788
1.0881
1.08832
1.08855
1.08879
1.08905
1.08932
1.08961
1.08993
1.09026
1.0906
1.09097
1.09134
1.09173
1.09213
1.09254
1.09295
1.09336
1.09377
1.09418
1.09458
1.09497
1.09535
1.09572
1.09606
1.09639
1.09669
1.09697
1.09721
1.09742
1.0976
1.09774
1.09784
1.0979
1.09792
1.09789
1.09782
1.09772
1.09757
1.09738
1.09716
1.09691
1.09662
1.09631
1.09598
1.09562
1.09525
1.09486
1.09446
1.09405
1.09363
1.09321
1.09279
1.09237
1.09196
1.09155
1.09116
1.09077
1.0904
1.09004
1.08971
1.08939
1.08909
1.08881
1.08854
1.0883
1.08806
1.08784
1.08763
1.08741
1.08719
1.08696
1.08671
1.08644
1.08616
1.08585
1.08552
1.08518
1.08484
1.0845
1.08417
1.08386
1.08359
1.08336
1.08317
1.08304
1.08294
1.08289
1.08288
1.0829
1.08295
1.08302
1.0831
1.08321
1.08332
1.08345
1.08359
1.08373
1.08388
1.08404
1.08421
1.08438
1.08456
1.08475
1.08495
1.08515
1.08536
1.08557
1.0858
1.08603
1.08626
1.0865
1.08675
1.08701
1.08727
1.08754
1.08782
1.08811
1.0884
1.0887
1.08901
1.08933
1.08966
1.08999
1.09034
1.09069
1.09105
1.09142
1.0918
1.09219
1.09258
1.09299
1.0934
1.09383
1.09426
1.09471
1.09516
1.09563
1.0961
1.09659
1.09707
1.09756
1.09804
1.09851
1.09898
1.09942
1.09985
1.10026
1.10064
1.10098
1.10126
1.10142
1.10136
1.10094
1.09998
1.09826
1.09564
1.09206
1.08762
1.0826
1.07737
1.07228
1.06748
1.0629
1.05821
1.05297
1.04683
1.03977
1.03215
1.02463
1.01788
1.01232
1.00811
1.00511
1.00311
1.00182
1.00104
1.00057
1.00031
1.00016
1.00008
1.00004
1.00002
1.00001
1
1
1
1
1
1
1
1
1
1
1
1
1
1
1
1
1
1
1
1
1
1
1
1
1
1
1
1
1
1
1
1
1
1
1
1
1
1
1
1
1
1
1
1
1
1
1
1
1
1
1
1
1
1
1
1
1
1
1
1
1
1
1
1
1
1
1
1
1
1
1
1
1
1
1
1
1
1
1
1
1
1
1
1
1
1
1
1
1
1
1
1
1
1
1
1
1
1
1
1
1
1
1
1
1
1
1
1
1
1
1
1
1
1
1
1
1
1
1
1
1
1
1
1
1
1
1
1
1
1
1
1
1
1
1
1
1
1
1
1
1
1
1
1
1
1
1
1
1
1
1.06925
1.06892
1.06859
1.06827
1.06796
1.06765
1.06735
1.06706
1.06679
1.06652
1.06627
1.06604
1.06583
1.06566
1.06555
1.06555
1.06568
1.06597
1.06642
1.06701
1.06767
1.06836
1.06903
1.06968
1.07033
1.07106
1.07194
1.073
1.07425
1.07566
1.07713
1.07857
1.07988
1.08099
1.08186
1.0825
1.08292
1.08318
1.0833
1.08334
1.08332
1.08327
1.08321
1.08316
1.08312
1.0831
1.08311
1.08316
1.08324
1.08338
1.08356
1.08379
1.08406
1.08437
1.0847
1.08506
1.08542
1.08577
1.08612
1.08644
1.08675
1.08704
1.0873
1.08754
1.08778
1.088
1.08821
1.08843
1.08865
1.08888
1.08911
1.08936
1.08962
1.08989
1.09017
1.09046
1.09077
1.09108
1.0914
1.09172
1.09205
1.09239
1.09273
1.09307
1.09342
1.09376
1.0941
1.09443
1.09476
1.09507
1.09538
1.09567
1.09595
1.0962
1.09642
1.09662
1.09679
1.09692
1.09701
1.09707
1.09709
1.09706
1.09699
1.09689
1.09675
1.09657
1.09636
1.09613
1.09587
1.09558
1.09528
1.09497
1.09464
1.0943
1.09396
1.09361
1.09326
1.09291
1.09256
1.09221
1.09186
1.09152
1.09119
1.09086
1.09054
1.09023
1.08993
1.08964
1.08936
1.08909
1.08884
1.08859
1.08836
1.08814
1.08792
1.0877
1.08747
1.08724
1.08699
1.08673
1.08645
1.08615
1.08583
1.08549
1.08514
1.08479
1.08445
1.08412
1.08382
1.08357
1.08335
1.08318
1.08306
1.08299
1.08296
1.08296
1.08299
1.08305
1.08314
1.08323
1.08335
1.08347
1.0836
1.08375
1.0839
1.08406
1.08423
1.0844
1.08458
1.08477
1.08496
1.08517
1.08538
1.08559
1.08581
1.08604
1.08628
1.08652
1.08677
1.08703
1.08729
1.08756
1.08784
1.08812
1.08842
1.08872
1.08903
1.08934
1.08967
1.09001
1.09035
1.0907
1.09106
1.09143
1.09181
1.0922
1.09259
1.093
1.09341
1.09383
1.09426
1.09471
1.09516
1.09562
1.09609
1.09657
1.09705
1.09753
1.098
1.09846
1.09891
1.09933
1.09974
1.10012
1.10046
1.10076
1.10097
1.10104
1.10083
1.1002
1.09896
1.09691
1.09392
1.09
1.08532
1.08023
1.07512
1.07033
1.06598
1.06198
1.05797
1.05345
1.048
1.04147
1.03414
1.02662
1.01964
1.01374
1.00916
1.00584
1.00358
1.00212
1.00122
1.00068
1.00036
1.00019
1.0001
1.00005
1.00002
1.00001
1
1
1
1
1
1
1
1
1
1
1
1
1
1
1
1
1
1
1
1
1
1
1
1
1
1
1
1
1
1
1
1
1
1
1
1
1
1
1
1
1
1
1
1
1
1
1
1
1
1
1
1
1
1
1
1
1
1
1
1
1
1
1
1
1
1
1
1
1
1
1
1
1
1
1
1
1
1
1
1
1
1
1
1
1
1
1
1
1
1
1
1
1
1
1
1
1
1
1
1
1
1
1
1
1
1
1
1
1
1
1
1
1
1
1
1
1
1
1
1
1
1
1
1
1
1
1
1
1
1
1
1
1
1
1
1
1
1
1
1
1
1
1
1
1
1
1
1
1
1
1.06942
1.06908
1.06875
1.06843
1.06811
1.0678
1.0675
1.06721
1.06693
1.06666
1.06641
1.06618
1.06598
1.06582
1.06574
1.06577
1.06594
1.06627
1.06676
1.06736
1.06802
1.06868
1.0693
1.06988
1.07044
1.07106
1.07181
1.07276
1.07392
1.07527
1.07672
1.07817
1.07952
1.08069
1.08164
1.08234
1.08283
1.08313
1.08329
1.08336
1.08336
1.08333
1.08329
1.08326
1.08323
1.08324
1.08328
1.08335
1.08347
1.08364
1.08386
1.08413
1.08444
1.08478
1.08514
1.08552
1.0859
1.08627
1.08663
1.08697
1.08729
1.08758
1.08787
1.08813
1.08838
1.08863
1.08887
1.08911
1.08934
1.08959
1.08983
1.09008
1.09033
1.09058
1.09083
1.09109
1.09134
1.0916
1.09185
1.0921
1.09236
1.09261
1.09286
1.09311
1.09336
1.09361
1.09386
1.09411
1.09436
1.0946
1.09484
1.09506
1.09528
1.09548
1.09567
1.09583
1.09597
1.09608
1.09616
1.09621
1.09622
1.0962
1.09614
1.09605
1.09593
1.09578
1.0956
1.0954
1.09519
1.09496
1.09472
1.09448
1.09423
1.09397
1.09371
1.09345
1.09319
1.09293
1.09267
1.09241
1.09215
1.09189
1.09163
1.09137
1.09111
1.09084
1.09058
1.09032
1.09005
1.08979
1.08954
1.08928
1.08903
1.08879
1.08854
1.0883
1.08805
1.08779
1.08752
1.08724
1.08694
1.08662
1.08629
1.08593
1.08557
1.0852
1.08483
1.08447
1.08414
1.08385
1.0836
1.08339
1.08323
1.08313
1.08307
1.08305
1.08307
1.08311
1.08318
1.08327
1.08338
1.0835
1.08363
1.08377
1.08392
1.08408
1.08424
1.08442
1.0846
1.08479
1.08498
1.08518
1.08539
1.08561
1.08583
1.08606
1.0863
1.08654
1.08679
1.08705
1.08731
1.08758
1.08786
1.08814
1.08843
1.08873
1.08904
1.08936
1.08969
1.09002
1.09037
1.09072
1.09108
1.09145
1.09183
1.09221
1.09261
1.09301
1.09342
1.09384
1.09427
1.09471
1.09516
1.09562
1.09608
1.09655
1.09703
1.0975
1.09796
1.0984
1.09883
1.09924
1.09962
1.09997
1.10028
1.10053
1.10066
1.10061
1.10023
1.09936
1.0978
1.09538
1.09201
1.08778
1.08293
1.07783
1.07289
1.06843
1.06454
1.06108
1.05769
1.05384
1.04904
1.04306
1.03606
1.02861
1.02145
1.01523
1.01028
1.00663
1.00411
1.00245
1.00142
1.00079
1.00043
1.00023
1.00012
1.00006
1.00003
1.00001
1.00001
1
1
1
1
1
1
1
1
1
1
1
1
1
1
1
1
1
1
1
1
1
1
1
1
1
1
1
1
1
1
1
1
1
1
1
1
1
1
1
1
1
1
1
1
1
1
1
1
1
1
1
1
1
1
1
1
1
1
1
1
1
1
1
1
1
1
1
1
1
1
1
1
1
1
1
1
1
1
1
1
1
1
1
1
1
1
1
1
1
1
1
1
1
1
1
1
1
1
1
1
1
1
1
1
1
1
1
1
1
1
1
1
1
1
1
1
1
1
1
1
1
1
1
1
1
1
1
1
1
1
1
1
1
1
1
1
1
1
1
1
1
1
1
1
1
1
1
1
1
1.06961
1.06927
1.06893
1.0686
1.06828
1.06796
1.06766
1.06736
1.06708
1.06681
1.06656
1.06633
1.06614
1.06599
1.06594
1.066
1.06621
1.06659
1.0671
1.06772
1.06837
1.069
1.06956
1.07007
1.07054
1.07105
1.07169
1.07253
1.07361
1.07489
1.07631
1.07777
1.07916
1.0804
1.08141
1.08219
1.08274
1.0831
1.0833
1.0834
1.08343
1.08343
1.08341
1.0834
1.08341
1.08344