# vtk DataFile Version 2.0
LBE two cylinders
ASCII
DATASET STRUCTURED_POINTS
DIMENSIONS 400 100 1
ASPECT_RATIO 1 1 1
ORIGIN 0 0 0
POINT_DATA 40000
SCALARS rho double 1
LOOKUP_TABLE default
1.07026
1.07029
1.07033
1.07039
1.07046
1.07055
1.07064
1.07075
1.07086
1.07099
1.07112
1.07126
1.07141
1.07157
1.07173
1.0719
1.07207
1.07225
1.07243
1.07262
1.07281
1.073
1.0732
1.0734
1.0736
1.07381
1.07403
1.07424
1.07446
1.07469
1.07492
1.07515
1.07539
1.07563
1.07588
1.07613
1.07638
1.07664
1.0769
1.07716
1.07742
1.07768
1.07794
1.0782
1.07845
1.07871
1.07897
1.07922
1.07947
1.07972
1.07997
1.08021
1.08045
1.0807
1.08094
1.08118
1.08142
1.08166
1.0819
1.08214
1.08239
1.08264
1.08289
1.08315
1.08341
1.08368
1.08395
1.08424
1.08453
1.08483
1.08514
1.08546
1.08579
1.08613
1.08648
1.08685
1.08723
1.08763
1.08803
1.08845
1.08888
1.08932
1.08977
1.09022
1.09068
1.09114
1.09159
1.09205
1.09249
1.09292
1.09334
1.09374
1.09411
1.09446
1.09479
1.09508
1.09534
1.09557
1.09577
1.09593
1.09605
1.09614
1.0962
1.09623
1.09623
1.0962
1.09614
1.09606
1.09596
1.09584
1.09571
1.09555
1.09539
1.09521
1.09502
1.09483
1.09462
1.09441
1.09419
1.09397
1.09374
1.09351
1.09327
1.09302
1.09278
1.09253
1.09227
1.09201
1.09175
1.09149
1.09123
1.09096
1.0907
1.09043
1.09017
1.08991
1.08965
1.08939
1.08914
1.08889
1.08864
1.0884
1.08816
1.08792
1.08769
1.08746
1.08723
1.08701
1.08679
1.08657
1.08635
1.08614
1.08592
1.08571
1.0855
1.0853
1.08509
1.08489
1.0847
1.08451
1.08432
1.08415
1.08398
1.08382
1.08368
1.08354
1.08342
1.08332
1.08323
1.08315
1.08309
1.08305
1.08302
1.08301
1.08301
1.08303
1.08306
1.0831
1.08315
1.08321
1.08328
1.08335
1.08343
1.08351
1.0836
1.08369
1.08378
1.08388
1.08399
1.0841
1.08421
1.08433
1.08447
1.08461
1.08476
1.08492
1.08508
1.08526
1.08545
1.08564
1.08584
1.08605
1.08626
1.08648
1.0867
1.08694
1.08718
1.08744
1.08771
1.08799
1.0883
1.08863
1.08899
1.08938
1.0898
1.09025
1.09073
1.09124
1.09178
1.09235
1.09294
1.09355
1.09417
1.0948
1.09543
1.09605
1.09666
1.09726
1.09783
1.09838
1.09889
1.09937
1.09981
1.10022
1.10058
1.10091
1.10119
1.10144
1.10166
1.10184
1.10199
1.10211
1.10221
1.10229
1.10234
1.10238
1.10241
1.10243
1.10243
1.10243
1.10242
1.10241
1.1024
1.10239
1.10237
1.10236
1.10236
1.10236
1.10237
1.10238
1.10241
1.10244
1.10249
1.10255
1.10263
1.10271
1.10281
1.10293
1.10306
1.10321
1.10337
1.10354
1.10372
1.10392
1.10412
1.10434
1.10456
1.1048
1.10504
1.10529
1.10554
1.1058
1.10607
1.10634
1.10662
1.10691
1.1072
1.1075
1.10781
1.10812
1.10845
1.10879
1.10914
1.1095
1.10988
1.11026
1.11067
1.11108
1.11151
1.11196
1.11242
1.11289
1.11338
1.11387
1.11437
1.11487
1.11538
1.11589
1.11639
1.11688
1.11735
1.11781
1.11824
1.11863
1.11899
1.11929
1.11954
1.11973
1.11983
1.11985
1.11977
1.11958
1.11926
1.11881
1.11821
1.11746
1.11654
1.11546
1.11421
1.11281
1.11126
1.10958
1.1078
1.10594
1.10404
1.10212
1.10023
1.09839
1.09664
1.09501
1.0935
1.09215
1.09097
1.08995
1.0891
1.08842
1.08791
1.08754
1.08731
1.0872
1.08721
1.08732
1.08752
1.08779
1.08812
1.0885
1.08892
1.08936
1.08983
1.09029
1.09075
1.09119
1.0916
1.09197
1.09227
1.09248
1.0926
1.09259
1.09245
1.09215
1.09168
1.09106
1.0903
1.08943
1.08849
1.08754
1.08663
1.08581
1.08512
1.08459
1.08422
1.084
1.0839
1.08388
1.0839
1.08392
1.08393
1.0839
1.08383
1.08373
1.0836
1.08347
1.08335
1.08326
1.0832
1.08318
1.08319
1.08322
1.08323
1.0832
1.07027
1.0703
1.07035
1.07041
1.07049
1.07057
1.07067
1.07077
1.07089
1.07101
1.07115
1.07129
1.07144
1.07159
1.07175
1.07192
1.0721
1.07227
1.07245
1.07264
1.07283
1.07302
1.07322
1.07342
1.07363
1.07384
1.07405
1.07427
1.07449
1.07471
1.07494
1.07518
1.07542
1.07566
1.0759
1.07615
1.07641
1.07666
1.07692
1.07718
1.07744
1.0777
1.07796
1.07821
1.07847
1.07873
1.07899
1.07924
1.07949
1.07974
1.07999
1.08023
1.08048
1.08072
1.08096
1.0812
1.08144
1.08168
1.08192
1.08217
1.08241
1.08266
1.08292
1.08317
1.08344
1.08371
1.08398
1.08427
1.08456
1.08486
1.08517
1.08549
1.08582
1.08616
1.08651
1.08688
1.08726
1.08765
1.08805
1.08847
1.08889
1.08933
1.08977
1.09022
1.09067
1.09112
1.09157
1.09202
1.09245
1.09288
1.09329
1.09368
1.09405
1.0944
1.09471
1.095
1.09526
1.09549
1.09568
1.09584
1.09597
1.09606
1.09612
1.09615
1.09615
1.09613
1.09607
1.096
1.0959
1.09579
1.09566
1.09551
1.09535
1.09517
1.09499
1.0948
1.0946
1.09439
1.09417
1.09395
1.09372
1.09349
1.09326
1.09301
1.09277
1.09252
1.09227
1.09201
1.09175
1.09149
1.09123
1.09097
1.0907
1.09044
1.09018
1.08992
1.08966
1.0894
1.08915
1.0889
1.08866
1.08842
1.08818
1.08794
1.08771
1.08748
1.08726
1.08704
1.08681
1.0866
1.08638
1.08617
1.08595
1.08574
1.08553
1.08533
1.08513
1.08493
1.08473
1.08454
1.08436
1.08419
1.08402
1.08386
1.08372
1.08359
1.08347
1.08336
1.08327
1.08319
1.08313
1.08309
1.08306
1.08305
1.08305
1.08307
1.08309
1.08313
1.08318
1.08324
1.08331
1.08338
1.08346
1.08354
1.08363
1.08372
1.08381
1.08391
1.08401
1.08412
1.08424
1.08436
1.08449
1.08463
1.08478
1.08493
1.0851
1.08528
1.08546
1.08565
1.08585
1.08605
1.08627
1.08649
1.08671
1.08695
1.08719
1.08745
1.08772
1.08801
1.08832
1.08865
1.08901
1.0894
1.08981
1.09026
1.09074
1.09125
1.09178
1.09235
1.09293
1.09353
1.09415
1.09477
1.0954
1.09601
1.09662
1.09721
1.09778
1.09833
1.09884
1.09932
1.09976
1.10017
1.10053
1.10086
1.10115
1.1014
1.10162
1.1018
1.10196
1.10208
1.10218
1.10226
1.10232
1.10237
1.1024
1.10241
1.10242
1.10242
1.10242
1.10241
1.1024
1.10239
1.10238
1.10237
1.10237
1.10237
1.10238
1.1024
1.10243
1.10246
1.10251
1.10257
1.10265
1.10274
1.10284
1.10295
1.10308
1.10323
1.10339
1.10356
1.10374
1.10393
1.10414
1.10435
1.10458
1.10481
1.10505
1.1053
1.10555
1.10581
1.10608
1.10635
1.10663
1.10692
1.10721
1.10751
1.10782
1.10814
1.10846
1.1088
1.10915
1.10951
1.10988
1.11027
1.11067
1.11109
1.11151
1.11196
1.11241
1.11288
1.11335
1.11384
1.11433
1.11483
1.11533
1.11582
1.11631
1.11679
1.11725
1.11769
1.1181
1.11848
1.11882
1.11911
1.11933
1.11949
1.11957
1.11957
1.11946
1.11924
1.1189
1.11843
1.11781
1.11705
1.11614
1.11507
1.11385
1.11249
1.11099
1.10938
1.10767
1.10589
1.10407
1.10224
1.10042
1.09864
1.09695
1.09535
1.09388
1.09255
1.09136
1.09034
1.08947
1.08877
1.08822
1.08782
1.08756
1.08743
1.0874
1.08748
1.08765
1.08789
1.0882
1.08856
1.08896
1.08939
1.08983
1.09028
1.09073
1.09116
1.09156
1.09191
1.09219
1.09239
1.09249
1.09247
1.0923
1.09198
1.09151
1.09088
1.09012
1.08927
1.08835
1.08743
1.08655
1.08576
1.0851
1.08459
1.08424
1.08401
1.0839
1.08386
1.08385
1.08386
1.08385
1.08381
1.08373
1.08363
1.08351
1.08338
1.08327
1.08319
1.08313
1.08311
1.08312
1.08314
1.08314
1.08312
1.07029
1.07033
1.07038
1.07044
1.07052
1.0706
1.0707
1.0708
1.07092
1.07104
1.07118
1.07132
1.07147
1.07162
1.07179
1.07195
1.07213
1.07231
1.07249
1.07267
1.07286
1.07306
1.07325
1.07346
1.07366
1.07387
1.07408
1.0743
1.07452
1.07475
1.07498
1.07521
1.07545
1.07569
1.07593
1.07618
1.07643
1.07669
1.07695
1.0772
1.07746
1.07772
1.07798
1.07824
1.0785
1.07876
1.07901
1.07926
1.07952
1.07977
1.08001
1.08026
1.0805
1.08074
1.08099
1.08123
1.08147
1.08171
1.08195
1.0822
1.08244
1.0827
1.08295
1.08321
1.08347
1.08374
1.08402
1.08431
1.0846
1.0849
1.08521
1.08553
1.08586
1.08621
1.08656
1.08693
1.08731
1.0877
1.0881
1.08851
1.08893
1.08936
1.0898
1.09025
1.09069
1.09114
1.09158
1.09202
1.09246
1.09287
1.09328
1.09367
1.09403
1.09437
1.09469
1.09498
1.09523
1.09546
1.09565
1.09581
1.09593
1.09603
1.09609
1.09612
1.09612
1.0961
1.09605
1.09598
1.09589
1.09577
1.09564
1.0955
1.09534
1.09517
1.09499
1.0948
1.0946
1.09439
1.09418
1.09396
1.09373
1.0935
1.09327
1.09303
1.09278
1.09253
1.09228
1.09203
1.09177
1.09151
1.09125
1.09099
1.09073
1.09047
1.09021
1.08995
1.08969
1.08943
1.08918
1.08894
1.08869
1.08845
1.08821
1.08798
1.08775
1.08752
1.0873
1.08707
1.08685
1.08664
1.08642
1.08621
1.086
1.08579
1.08558
1.08538
1.08517
1.08498
1.08478
1.0846
1.08441
1.08424
1.08408
1.08392
1.08378
1.08364
1.08352
1.08342
1.08333
1.08325
1.08319
1.08315
1.08312
1.08311
1.08311
1.08312
1.08315
1.08319
1.08324
1.0833
1.08336
1.08343
1.08351
1.08359
1.08368
1.08377
1.08386
1.08396
1.08406
1.08417
1.08428
1.0844
1.08453
1.08467
1.08481
1.08497
1.08513
1.0853
1.08548
1.08567
1.08587
1.08607
1.08628
1.0865
1.08672
1.08696
1.0872
1.08746
1.08773
1.08802
1.08833
1.08867
1.08903
1.08941
1.08983
1.09027
1.09075
1.09126
1.09179
1.09235
1.09293
1.09352
1.09413
1.09475
1.09537
1.09598
1.09658
1.09717
1.09774
1.09828
1.09879
1.09927
1.09971
1.10011
1.10048
1.10081
1.1011
1.10135
1.10157
1.10176
1.10192
1.10205
1.10215
1.10223
1.1023
1.10234
1.10238
1.1024
1.10241
1.10241
1.10241
1.1024
1.1024
1.10239
1.10238
1.10238
1.10238
1.10239
1.1024
1.10242
1.10245
1.10249
1.10254
1.10261
1.10268
1.10277
1.10287
1.10299
1.10312
1.10326
1.10342
1.10359
1.10377
1.10396
1.10417
1.10438
1.1046
1.10483
1.10507
1.10532
1.10557
1.10583
1.1061
1.10637
1.10665
1.10694
1.10724
1.10754
1.10785
1.10816
1.10849
1.10883
1.10918
1.10954
1.10991
1.11029
1.11069
1.1111
1.11152
1.11196
1.1124
1.11286
1.11333
1.1138
1.11428
1.11477
1.11525
1.11573
1.1162
1.11666
1.1171
1.11752
1.1179
1.11825
1.11856
1.11881
1.119
1.11912
1.11916
1.11911
1.11896
1.11869
1.11831
1.11781
1.11717
1.11639
1.11548
1.11443
1.11325
1.11195
1.11053
1.10901
1.10741
1.10575
1.10406
1.10234
1.10064
1.09898
1.09737
1.09585
1.09443
1.09312
1.09195
1.09093
1.09005
1.08931
1.08873
1.08828
1.08797
1.08779
1.08772
1.08775
1.08788
1.08808
1.08835
1.08868
1.08905
1.08945
1.08988
1.09031
1.09074
1.09115
1.09153
1.09187
1.09214
1.09233
1.09241
1.09237
1.09219
1.09186
1.09137
1.09073
1.08997
1.08911
1.0882
1.08729
1.08644
1.08568
1.08504
1.08455
1.0842
1.08398
1.08387
1.08381
1.0838
1.08378
1.08376
1.0837
1.08362
1.08351
1.08339
1.08328
1.08317
1.08309
1.08304
1.08302
1.08302
1.08302
1.08302
1.083
1.07032
1.07036
1.07041
1.07048
1.07055
1.07064
1.07073
1.07084
1.07096
1.07108
1.07122
1.07136
1.07151
1.07166
1.07183
1.07199
1.07217
1.07234
1.07253
1.07271
1.0729
1.0731
1.0733
1.0735
1.0737
1.07391
1.07412
1.07434
1.07456
1.07479
1.07501
1.07525
1.07549
1.07573
1.07597
1.07622
1.07647
1.07672
1.07698
1.07724
1.0775
1.07775
1.07801
1.07827
1.07853
1.07879
1.07904
1.07929
1.07955
1.0798
1.08004
1.08029
1.08053
1.08078
1.08102
1.08126
1.0815
1.08174
1.08199
1.08224
1.08248
1.08274
1.08299
1.08325
1.08352
1.08379
1.08407
1.08436
1.08465
1.08496
1.08527
1.08559
1.08593
1.08627
1.08663
1.08699
1.08737
1.08776
1.08816
1.08857
1.08899
1.08942
1.08986
1.0903
1.09074
1.09118
1.09162
1.09206
1.09248
1.0929
1.0933
1.09368
1.09405
1.09439
1.0947
1.09499
1.09524
1.09546
1.09566
1.09581
1.09594
1.09603
1.0961
1.09613
1.09613
1.09611
1.09606
1.09599
1.0959
1.09579
1.09566
1.09552
1.09536
1.09519
1.09501
1.09482
1.09462
1.09442
1.0942
1.09399
1.09376
1.09353
1.0933
1.09306
1.09281
1.09257
1.09231
1.09206
1.0918
1.09155
1.09129
1.09103
1.09077
1.0905
1.09025
1.08999
1.08973
1.08948
1.08923
1.08898
1.08874
1.0885
1.08826
1.08803
1.0878
1.08757
1.08735
1.08713
1.08691
1.08669
1.08648
1.08626
1.08605
1.08585
1.08564
1.08544
1.08524
1.08504
1.08485
1.08466
1.08448
1.08431
1.08414
1.08399
1.08385
1.08372
1.0836
1.08349
1.0834
1.08333
1.08327
1.08323
1.0832
1.08319
1.08319
1.0832
1.08323
1.08327
1.08331
1.08337
1.08343
1.0835
1.08358
1.08366
1.08374
1.08383
1.08392
1.08402
1.08412
1.08423
1.08434
1.08446
1.08458
1.08471
1.08486
1.08501
1.08517
1.08533
1.08551
1.08569
1.08589
1.08609
1.0863
1.08651
1.08674
1.08697
1.08722
1.08747
1.08775
1.08804
1.08835
1.08869
1.08905
1.08943
1.08985
1.09029
1.09077
1.09127
1.0918
1.09235
1.09293
1.09352
1.09412
1.09473
1.09535
1.09595
1.09655
1.09713
1.09769
1.09823
1.09874
1.09921
1.09965
1.10006
1.10042
1.10075
1.10104
1.1013
1.10152
1.10171
1.10187
1.102
1.10211
1.1022
1.10226
1.10231
1.10235
1.10237
1.10239
1.1024
1.1024
1.1024
1.10239
1.10239
1.10239
1.10239
1.1024
1.10241
1.10243
1.10245
1.10249
1.10253
1.10259
1.10265
1.10273
1.10282
1.10292
1.10304
1.10317
1.10331
1.10347
1.10364
1.10382
1.10401
1.10421
1.10442
1.10464
1.10487
1.10511
1.10536
1.10561
1.10587
1.10614
1.10641
1.10669
1.10698
1.10728
1.10758
1.10789
1.10821
1.10854
1.10887
1.10922
1.10958
1.10995
1.11033
1.11072
1.11112
1.11154
1.11197
1.1124
1.11285
1.1133
1.11376
1.11423
1.11469
1.11516
1.11562
1.11606
1.1165
1.11691
1.11729
1.11764
1.11795
1.11821
1.11842
1.11855
1.11862
1.1186
1.11848
1.11827
1.11795
1.11752
1.11696
1.11629
1.1155
1.11459
1.11356
1.11243
1.1112
1.10988
1.10848
1.10702
1.10551
1.10398
1.10243
1.10088
1.09936
1.09788
1.09645
1.09511
1.09386
1.09272
1.0917
1.0908
1.09004
1.08941
1.08891
1.08855
1.0883
1.08817
1.08814
1.08821
1.08836
1.08858
1.08887
1.0892
1.08957
1.08996
1.09037
1.09077
1.09117
1.09153
1.09185
1.09211
1.09228
1.09234
1.09229
1.09209
1.09174
1.09124
1.09059
1.08982
1.08897
1.08806
1.08717
1.08633
1.08558
1.08497
1.08449
1.08415
1.08393
1.0838
1.08374
1.08371
1.08369
1.08365
1.08358
1.08349
1.08339
1.08327
1.08316
1.08307
1.08299
1.08294
1.08292
1.08291
1.0829
1.08288
1.08283
1.07036
1.0704
1.07046
1.07052
1.0706
1.07068
1.07078
1.07089
1.071
1.07113
1.07126
1.0714
1.07155
1.07171
1.07187
1.07204
1.07221
1.07239
1.07257
1.07276
1.07295
1.07314
1.07334
1.07354
1.07375
1.07396
1.07417
1.07439
1.07461
1.07483
1.07506
1.07529
1.07553
1.07577
1.07601
1.07626
1.07651
1.07676
1.07702
1.07728
1.07753
1.07779
1.07805
1.07831
1.07856
1.07882
1.07907
1.07933
1.07958
1.07983
1.08008
1.08032
1.08057
1.08081
1.08105
1.0813
1.08154
1.08178
1.08203
1.08228
1.08253
1.08278
1.08304
1.0833
1.08357
1.08385
1.08413
1.08442
1.08472
1.08502
1.08534
1.08566
1.086
1.08635
1.0867
1.08707
1.08745
1.08784
1.08824
1.08865
1.08907
1.08949
1.08992
1.09036
1.0908
1.09124
1.09168
1.09211
1.09253
1.09294
1.09334
1.09373
1.09409
1.09443
1.09474
1.09502
1.09528
1.0955
1.0957
1.09585
1.09598
1.09608
1.09614
1.09617
1.09617
1.09615
1.0961
1.09603
1.09594
1.09583
1.0957
1.09556
1.0954
1.09523
1.09505
1.09487
1.09467
1.09446
1.09425
1.09403
1.09381
1.09358
1.09334
1.0931
1.09286
1.09261
1.09236
1.09211
1.09185
1.09159
1.09133
1.09107
1.09081
1.09055
1.0903
1.09004
1.08978
1.08953
1.08928
1.08904
1.08879
1.08855
1.08832
1.08809
1.08786
1.08763
1.08741
1.08719
1.08697
1.08676
1.08654
1.08633
1.08612
1.08591
1.08571
1.08551
1.08531
1.08511
1.08492
1.08474
1.08456
1.08439
1.08423
1.08407
1.08393
1.0838
1.08369
1.08358
1.0835
1.08342
1.08336
1.08332
1.08329
1.08328
1.08328
1.0833
1.08332
1.08336
1.08341
1.08346
1.08352
1.08359
1.08367
1.08375
1.08383
1.08392
1.08401
1.0841
1.0842
1.0843
1.08441
1.08453
1.08465
1.08478
1.08491
1.08506
1.08521
1.08538
1.08555
1.08573
1.08591
1.08611
1.08632
1.08653
1.08675
1.08699
1.08723
1.08749
1.08777
1.08806
1.08837
1.08871
1.08907
1.08946
1.08987
1.09032
1.09079
1.09129
1.09182
1.09237
1.09294
1.09352
1.09412
1.09473
1.09533
1.09593
1.09652
1.0971
1.09766
1.09819
1.09869
1.09916
1.0996
1.1
1.10037
1.10069
1.10099
1.10124
1.10147
1.10166
1.10182
1.10195
1.10206
1.10215
1.10222
1.10228
1.10232
1.10234
1.10236
1.10238
1.10238
1.10239
1.10239
1.10239
1.1024
1.1024
1.10242
1.10243
1.10246
1.10249
1.10253
1.10258
1.10264
1.10271
1.10279
1.10288
1.10299
1.1031
1.10323
1.10338
1.10353
1.1037
1.10388
1.10407
1.10427
1.10448
1.1047
1.10493
1.10516
1.10541
1.10566
1.10592
1.10619
1.10647
1.10675
1.10704
1.10734
1.10764
1.10795
1.10827
1.1086
1.10894
1.10928
1.10964
1.11
1.11038
1.11076
1.11116
1.11157
1.11198
1.11241
1.11284
1.11328
1.11372
1.11417
1.11461
1.11505
1.11548
1.11589
1.11629
1.11666
1.117
1.11731
1.11756
1.11777
1.11791
1.11798
1.11797
1.11788
1.11769
1.1174
1.11701
1.11651
1.11591
1.11521
1.1144
1.11349
1.1125
1.11143
1.11029
1.10908
1.10783
1.10653
1.1052
1.10385
1.10248
1.10112
1.09977
1.09844
1.09714
1.0959
1.09473
1.09363
1.09262
1.09172
1.09093
1.09026
1.0897
1.08927
1.08895
1.08875
1.08865
1.08865
1.08873
1.08889
1.08912
1.0894
1.08973
1.09009
1.09046
1.09084
1.09121
1.09155
1.09185
1.09209
1.09224
1.09229
1.09221
1.092
1.09163
1.09112
1.09046
1.08969
1.08883
1.08793
1.08705
1.08622
1.08549
1.08489
1.08442
1.08409
1.08386
1.08373
1.08365
1.08361
1.08357
1.08351
1.08344
1.08335
1.08325
1.08315
1.08305
1.08296
1.0829
1.08285
1.08281
1.08279
1.08276
1.08271
1.08262
1.07041
1.07045
1.07051
1.07057
1.07065
1.07074
1.07083
1.07094
1.07106
1.07118
1.07131
1.07146
1.0716
1.07176
1.07192
1.07209
1.07226
1.07244
1.07262
1.07281
1.073
1.07319
1.07339
1.07359
1.0738
1.07401
1.07422
1.07444
1.07466
1.07488
1.07511
1.07534
1.07558
1.07582
1.07606
1.07631
1.07656
1.07681
1.07706
1.07732
1.07757
1.07783
1.07809
1.07834
1.0786
1.07886
1.07911
1.07936
1.07961
1.07986
1.08011
1.08036
1.0806
1.08085
1.08109
1.08133
1.08158
1.08182
1.08207
1.08232
1.08257
1.08283
1.08309
1.08336
1.08363
1.08391
1.08419
1.08449
1.08479
1.0851
1.08541
1.08574
1.08608
1.08643
1.08679
1.08716
1.08754
1.08793
1.08832
1.08873
1.08915
1.08957
1.09
1.09043
1.09087
1.0913
1.09174
1.09217
1.09259
1.093
1.0934
1.09378
1.09414
1.09448
1.09479
1.09508
1.09534
1.09556
1.09575
1.09591
1.09604
1.09613
1.0962
1.09623
1.09623
1.09621
1.09616
1.09609
1.096
1.09589
1.09576
1.09562
1.09546
1.09529
1.09511
1.09492
1.09473
1.09452
1.09431
1.09409
1.09387
1.09364
1.0934
1.09316
1.09292
1.09267
1.09242
1.09216
1.09191
1.09165
1.09139
1.09113
1.09087
1.09061
1.09035
1.0901
1.08984
1.08959
1.08934
1.0891
1.08886
1.08862
1.08838
1.08815
1.08792
1.0877
1.08748
1.08726
1.08704
1.08683
1.08662
1.08641
1.0862
1.08599
1.08579
1.08559
1.08539
1.0852
1.08501
1.08482
1.08465
1.08448
1.08432
1.08417
1.08403
1.0839
1.08379
1.08368
1.0836
1.08353
1.08347
1.08343
1.0834
1.08339
1.08339
1.08341
1.08343
1.08347
1.08351
1.08357
1.08363
1.0837
1.08377
1.08385
1.08393
1.08402
1.0841
1.0842
1.08429
1.08439
1.0845
1.08461
1.08473
1.08485
1.08498
1.08512
1.08527
1.08543
1.08559
1.08577
1.08595
1.08614
1.08634
1.08655
1.08677
1.087
1.08725
1.08751
1.08779
1.08808
1.0884
1.08873
1.0891
1.08949
1.0899
1.09035
1.09082
1.09132
1.09184
1.09239
1.09296
1.09354
1.09413
1.09473
1.09533
1.09592
1.0965
1.09707
1.09762
1.09815
1.09864
1.09911
1.09955
1.09994
1.10031
1.10063
1.10093
1.10118
1.10141
1.1016
1.10176
1.1019
1.10201
1.1021
1.10218
1.10223
1.10228
1.10231
1.10233
1.10235
1.10236
1.10237
1.10238
1.10239
1.1024
1.10242
1.10244
1.10246
1.10249
1.10253
1.10258
1.10263
1.1027
1.10277
1.10286
1.10295
1.10306
1.10318
1.10331
1.10345
1.10361
1.10378
1.10395
1.10414
1.10434
1.10455
1.10477
1.105
1.10523
1.10548
1.10573
1.10599
1.10626
1.10654
1.10682
1.10711
1.10741
1.10771
1.10803
1.10835
1.10868
1.10901
1.10936
1.10971
1.11007
1.11044
1.11082
1.11121
1.1116
1.11201
1.11242
1.11283
1.11325
1.11367
1.11409
1.1145
1.11491
1.1153
1.11568
1.11603
1.11636
1.11664
1.11689
1.11708
1.11721
1.11728
1.11727
1.11717
1.11699
1.11672
1.11635
1.11589
1.11533
1.11468
1.11395
1.11313
1.11225
1.1113
1.11031
1.10927
1.10819
1.10709
1.10597
1.10483
1.10368
1.10252
1.10135
1.10019
1.09902
1.09788
1.09676
1.09567
1.09464
1.09366
1.09277
1.09196
1.09124
1.09063
1.09013
1.08974
1.08945
1.08927
1.08919
1.0892
1.08929
1.08945
1.08968
1.08995
1.09026
1.0906
1.09094
1.09128
1.09159
1.09187
1.09208
1.09221
1.09224
1.09215
1.09192
1.09154
1.09101
1.09034
1.08956
1.0887
1.08781
1.08693
1.08612
1.08541
1.08481
1.08435
1.08402
1.08379
1.08365
1.08356
1.08349
1.08344
1.08337
1.08329
1.0832
1.08311
1.08301
1.08293
1.08285
1.08279
1.08274
1.0827
1.08265
1.08259
1.0825
1.08236
1.07047
1.07051
1.07057
1.07064
1.07071
1.0708
1.07089
1.071
1.07112
1.07124
1.07137
1.07151
1.07166
1.07182
1.07198
1.07214
1.07232
1.07249
1.07268
1.07286
1.07305
1.07325
1.07345
1.07365
1.07385
1.07406
1.07428
1.07449
1.07471
1.07494
1.07516
1.07539
1.07563
1.07587
1.07611
1.07635
1.0766
1.07685
1.0771
1.07736
1.07761
1.07787
1.07812
1.07838
1.07864
1.07889
1.07914
1.0794
1.07965
1.0799
1.08014
1.08039
1.08064
1.08088
1.08113
1.08137
1.08162
1.08186
1.08211
1.08236
1.08262
1.08288
1.08314
1.08341
1.08369
1.08397
1.08426
1.08455
1.08486
1.08517
1.08549
1.08582
1.08616
1.08651
1.08688
1.08725
1.08763
1.08802
1.08841
1.08882
1.08923
1.08965
1.09008
1.09051
1.09094
1.09137
1.0918
1.09223
1.09265
1.09306
1.09346
1.09384
1.0942
1.09454
1.09486
1.09514
1.0954
1.09563
1.09582
1.09599
1.09611
1.09621
1.09627
1.0963
1.09631
1.09628
1.09623
1.09616
1.09607
1.09596
1.09583
1.09569
1.09553
1.09536
1.09518
1.09499
1.0948
1.09459
1.09438
1.09416
1.09393
1.0937
1.09347
1.09323
1.09298
1.09273
1.09248
1.09223
1.09197
1.09171
1.09145
1.09119
1.09093
1.09068
1.09042
1.09016
1.08991
1.08966
1.08941
1.08916
1.08892
1.08869
1.08845
1.08822
1.088
1.08777
1.08755
1.08733
1.08712
1.08691
1.08669
1.08649
1.08628
1.08607
1.08587
1.08567
1.08548
1.08528
1.0851
1.08491
1.08474
1.08457
1.08441
1.08427
1.08413
1.08401
1.08389
1.0838
1.08371
1.08364
1.08359
1.08355
1.08352
1.08351
1.08351
1.08353
1.08355
1.08359
1.08363
1.08369
1.08375
1.08382
1.08389
1.08396
1.08404
1.08413
1.08421
1.0843
1.0844
1.08449
1.0846
1.0847
1.08482
1.08493
1.08506
1.08519
1.08534
1.08549
1.08565
1.08581
1.08599
1.08618
1.08637
1.08658
1.0868
1.08703
1.08727
1.08753
1.08781
1.08811
1.08842
1.08876
1.08913
1.08952
1.08994
1.09038
1.09086
1.09135
1.09188
1.09242
1.09298
1.09356
1.09414
1.09473
1.09532
1.09591
1.09649
1.09705
1.09759
1.09811
1.0986
1.09906
1.09949
1.09989
1.10025
1.10057
1.10086
1.10112
1.10134
1.10154
1.1017
1.10184
1.10196
1.10205
1.10213
1.10219
1.10224
1.10227
1.1023
1.10233
1.10235
1.10236
1.10238
1.1024
1.10241
1.10244
1.10246
1.1025
1.10253
1.10258
1.10263
1.1027
1.10277
1.10285
1.10294
1.10304
1.10315
1.10327
1.1034
1.10355
1.1037
1.10387
1.10404
1.10423
1.10443
1.10463
1.10485
1.10508
1.10532
1.10556
1.10581
1.10608
1.10635
1.10662
1.10691
1.1072
1.1075
1.10781
1.10812
1.10844
1.10877
1.1091
1.10944
1.10979
1.11015
1.11051
1.11088
1.11126
1.11164
1.11203
1.11242
1.11282
1.11321
1.1136
1.11399
1.11437
1.11473
1.11508
1.11541
1.11571
1.11597
1.11619
1.11637
1.11648
1.11653
1.11651
1.11641
1.11622
1.11595
1.11559
1.11514
1.11461
1.114
1.11331
1.11256
1.11175
1.1109
1.11002
1.10911
1.10819
1.10726
1.10632
1.10538
1.10443
1.10349
1.10253
1.10157
1.1006
1.09961
1.09863
1.09764
1.09666
1.09571
1.09478
1.09391
1.09309
1.09234
1.09168
1.09112
1.09065
1.09028
1.09001
1.08984
1.08977
1.08978
1.08987
1.09002
1.09024
1.09049
1.09078
1.09108
1.09138
1.09166
1.09191
1.0921
1.09221
1.09221
1.0921
1.09184
1.09145
1.0909
1.09022
1.08943
1.08858
1.08769
1.08682
1.08602
1.08532
1.08474
1.08428
1.08394
1.08371
1.08355
1.08344
1.08336
1.08329
1.08321
1.08313
1.08305
1.08296
1.08288
1.0828
1.08274
1.08268
1.08263
1.08257
1.08249
1.08239
1.08225
1.08206
1.07053
1.07058
1.07064
1.07071
1.07078
1.07087
1.07096
1.07107
1.07118
1.0713
1.07144
1.07158
1.07172
1.07188
1.07204
1.0722
1.07237
1.07255
1.07273
1.07292
1.07311
1.0733
1.0735
1.0737
1.07391
1.07412
1.07433
1.07455
1.07477
1.07499
1.07522
1.07545
1.07568
1.07592
1.07616
1.0764
1.07665
1.0769
1.07715
1.0774
1.07765
1.07791
1.07816
1.07842
1.07867
1.07893
1.07918
1.07943
1.07968
1.07993
1.08018
1.08042
1.08067
1.08091
1.08116
1.0814
1.08165
1.0819
1.08215
1.0824
1.08266
1.08292
1.08319
1.08346
1.08374
1.08402
1.08432
1.08462
1.08492
1.08524
1.08557
1.0859
1.08625
1.0866
1.08696
1.08733
1.08771
1.0881
1.0885
1.0889
1.08931
1.08973
1.09015
1.09058
1.09101
1.09143
1.09186
1.09229
1.0927
1.09311
1.09351
1.09389
1.09426
1.0946
1.09492
1.09521
1.09547
1.0957
1.0959
1.09606
1.09619
1.09628
1.09635
1.09638
1.09638
1.09636
1.09631
1.09623
1.09614
1.09603
1.0959
1.09576
1.0956
1.09543
1.09526
1.09507
1.09487
1.09466
1.09445
1.09423
1.09401
1.09377
1.09354
1.0933
1.09305
1.0928
1.09255
1.09229
1.09204
1.09178
1.09152
1.09126
1.091
1.09074
1.09048
1.09023
1.08997
1.08972
1.08948
1.08923
1.08899
1.08876
1.08853
1.0883
1.08807
1.08785
1.08763
1.08741
1.0872
1.08699
1.08678
1.08657
1.08636
1.08616
1.08596
1.08576
1.08557
1.08538
1.08519
1.08501
1.08484
1.08467
1.08452
1.08437
1.08424
1.08412
1.08401
1.08391
1.08383
1.08376
1.08371
1.08367
1.08365
1.08364
1.08364
1.08366
1.08368
1.08372
1.08376
1.08382
1.08388
1.08394
1.08401
1.08409
1.08417
1.08425
1.08433
1.08442
1.08451
1.08461
1.0847
1.08481
1.08492
1.08503
1.08515
1.08528
1.08541
1.08556
1.08571
1.08587
1.08604
1.08622
1.08641
1.08662
1.08683
1.08706
1.0873
1.08756
1.08784
1.08814
1.08846
1.0888
1.08917
1.08956
1.08998
1.09043
1.0909
1.0914
1.09192
1.09246
1.09301
1.09358
1.09416
1.09475
1.09533
1.09591
1.09648
1.09703
1.09756
1.09808
1.09856
1.09902
1.09944
1.09983
1.10019
1.10051
1.1008
1.10105
1.10128
1.10147
1.10164
1.10178
1.1019
1.10199
1.10207
1.10214
1.10219
1.10224
1.10227
1.1023
1.10233
1.10235
1.10237
1.1024
1.10243
1.10246
1.10249
1.10254
1.10258
1.10264
1.1027
1.10277
1.10285
1.10293
1.10303
1.10313
1.10325
1.10337
1.1035
1.10365
1.1038
1.10397
1.10415
1.10433
1.10453
1.10473
1.10495
1.10518
1.10541
1.10566
1.10591
1.10617
1.10645
1.10672
1.10701
1.1073
1.1076
1.10791
1.10822
1.10855
1.10887
1.1092
1.10954
1.10989
1.11024
1.11059
1.11095
1.11132
1.11168
1.11205
1.11242
1.11279
1.11315
1.11351
1.11386
1.1142
1.11451
1.11481
1.11508
1.11531
1.1155
1.11564
1.11573
1.11576
1.11571
1.11559
1.11539
1.11511
1.11475
1.1143
1.11378
1.11319
1.11253
1.11182
1.11107
1.11029
1.1095
1.10869
1.10789
1.10709
1.10631
1.10553
1.10478
1.10402
1.10328
1.10252
1.10176
1.10098
1.10018
1.09936
1.09852
1.09767
1.0968
1.09595
1.09511
1.0943
1.09354
1.09284
1.09221
1.09167
1.09122
1.09087
1.09061
1.09044
1.09036
1.09037
1.09045
1.09059
1.09078
1.09101
1.09126
1.09152
1.09176
1.09198
1.09213
1.09221
1.09219
1.09206
1.09178
1.09136
1.0908
1.09011
1.08932
1.08846
1.08758
1.08672
1.08593
1.08524
1.08466
1.08421
1.08386
1.08362
1.08344
1.08332
1.08322
1.08313
1.08305
1.08296
1.08288
1.0828
1.08273
1.08267
1.08262
1.08256
1.0825
1.08242
1.08231
1.08216
1.08197
1.0817
1.07061
1.07066
1.07072
1.07078
1.07086
1.07094
1.07104
1.07114
1.07125
1.07138
1.07151
1.07164
1.07179
1.07194
1.0721
1.07226
1.07244
1.07261
1.07279
1.07298
1.07317
1.07336
1.07356
1.07376
1.07397
1.07417
1.07439
1.0746
1.07482
1.07504
1.07527
1.0755
1.07573
1.07597
1.07621
1.07645
1.07669
1.07694
1.07719
1.07744
1.07769
1.07795
1.0782
1.07845
1.0787
1.07896
1.07921
1.07946
1.07971
1.07996
1.0802
1.08045
1.0807
1.08094
1.08119
1.08143
1.08168
1.08193
1.08218
1.08244
1.0827
1.08296
1.08323
1.08351
1.08379
1.08408
1.08437
1.08468
1.08499
1.08531
1.08564
1.08597
1.08632
1.08668
1.08704
1.08741
1.08779
1.08818
1.08857
1.08898
1.08938
1.0898
1.09022
1.09064
1.09106
1.09149
1.09191
1.09233
1.09275
1.09316
1.09356
1.09394
1.0943
1.09465
1.09497
1.09527
1.09553
1.09576
1.09596
1.09613
1.09626
1.09635
1.09642
1.09645
1.09645
1.09643
1.09638
1.0963
1.09621
1.0961
1.09597
1.09583
1.09567
1.09551
1.09533
1.09514
1.09494
1.09474
1.09453
1.09431
1.09408
1.09385
1.09361
1.09337
1.09312
1.09287
1.09262
1.09236
1.0921
1.09184
1.09158
1.09132
1.09106
1.0908
1.09055
1.09029
1.09004
1.08979
1.08954
1.0893
1.08906
1.08883
1.0886
1.08837
1.08815
1.08792
1.08771
1.08749
1.08728
1.08707
1.08686
1.08666
1.08645
1.08625
1.08605
1.08585
1.08566
1.08547
1.08529
1.08511
1.08494
1.08478
1.08462
1.08448
1.08435
1.08423
1.08413
1.08403
1.08395
1.08389
1.08384
1.08381
1.08378
1.08377
1.08378
1.08379
1.08382
1.08386
1.0839
1.08395
1.08401
1.08408
1.08415
1.08422
1.0843
1.08438
1.08446
1.08455
1.08464
1.08473
1.08482
1.08492
1.08502
1.08513
1.08525
1.08537
1.0855
1.08564
1.08578
1.08593
1.0861
1.08627
1.08646
1.08666
1.08687
1.0871
1.08734
1.0876
1.08787
1.08817
1.08849
1.08884
1.08921
1.08961
1.09003
1.09047
1.09095
1.09144
1.09196
1.0925
1.09305
1.09362
1.09419
1.09477
1.09534
1.09591
1.09647
1.09702
1.09754
1.09805
1.09852
1.09897
1.09939
1.09977
1.10013
1.10044
1.10073
1.10098
1.10121
1.1014
1.10157
1.10171
1.10183
1.10193
1.10202
1.10209
1.10215
1.1022
1.10224
1.10228
1.10231
1.10234
1.10237
1.10241
1.10244
1.10248
1.10253
1.10258
1.10264
1.1027
1.10277
1.10285
1.10293
1.10302
1.10313
1.10324
1.10335
1.10348
1.10362
1.10376
1.10392
1.10409
1.10426
1.10445
1.10464
1.10485
1.10507
1.10529
1.10553
1.10577
1.10603
1.10629
1.10656
1.10684
1.10713
1.10742
1.10772
1.10803
1.10834
1.10866
1.10899
1.10932
1.10965
1.10999
1.11033
1.11068
1.11102
1.11137
1.11172
1.11206
1.1124
1.11274
1.11307
1.11339
1.11369
1.11398
1.11424
1.11447
1.11466
1.11482
1.11493
1.11498
1.11497
1.1149
1.11475
1.11453
1.11423
1.11385
1.1134
1.11288
1.11229
1.11166
1.11098
1.11027
1.10954
1.10881
1.10808
1.10737
1.10667
1.10601
1.10538
1.10477
1.10418
1.10362
1.10306
1.1025
1.10193
1.10133
1.10071
1.10006
1.09937
1.09865
1.09789
1.09712
1.09633
1.09556
1.0948
1.09407
1.0934
1.0928
1.09227
1.09183
1.09148
1.09122
1.09105
1.09096
1.09096
1.09102
1.09114
1.09131
1.0915
1.0917
1.0919
1.09207
1.0922
1.09224
1.09219
1.09203
1.09173
1.09129
1.09071
1.09001
1.08921
1.08835
1.08747
1.08662
1.08584
1.08515
1.08458
1.08412
1.08378
1.08352
1.08333
1.08318
1.08306
1.08296
1.08287
1.08278
1.08271
1.08264
1.08258
1.08254
1.08249
1.08243
1.08236
1.08225
1.0821
1.08191
1.08164
1.08131
1.0707
1.07075
1.07081
1.07087
1.07095
1.07103
1.07112
1.07122
1.07133
1.07145
1.07158
1.07172
1.07186
1.07201
1.07216
1.07233
1.0725
1.07267
1.07285
1.07304
1.07323
1.07342
1.07362
1.07382
1.07402
1.07423
1.07444
1.07466
1.07487
1.0751
1.07532
1.07555
1.07578
1.07602
1.07625
1.07649
1.07674
1.07698
1.07723
1.07748
1.07773
1.07798
1.07823
1.07848
1.07874
1.07899
1.07924
1.07949
1.07973
1.07998
1.08023
1.08047
1.08072
1.08096
1.08121
1.08145
1.0817
1.08195
1.08221
1.08246
1.08272
1.08299
1.08326
1.08354
1.08383
1.08412
1.08442
1.08472
1.08504
1.08536
1.08569
1.08604
1.08638
1.08674
1.0871
1.08748
1.08786
1.08824
1.08863
1.08903
1.08944
1.08985
1.09026
1.09068
1.0911
1.09152
1.09194
1.09236
1.09277
1.09318
1.09358
1.09397
1.09433
1.09468
1.09501
1.09531
1.09558
1.09581
1.09602
1.09618
1.09632
1.09641
1.09648
1.09651
1.09651
1.09648
1.09643
1.09636
1.09627
1.09616
1.09603
1.09589
1.09574
1.09557
1.09539
1.09521
1.09501
1.09481
1.0946
1.09438
1.09415
1.09392
1.09368
1.09344
1.09319
1.09294
1.09268
1.09243
1.09217
1.09191
1.09165
1.09139
1.09113
1.09087
1.09061
1.09035
1.0901
1.08985
1.08961
1.08937
1.08913
1.0889
1.08867
1.08844
1.08822
1.088
1.08778
1.08757
1.08736
1.08715
1.08695
1.08674
1.08654
1.08634
1.08614
1.08595
1.08575
1.08557
1.08539
1.08521
1.08504
1.08488
1.08473
1.08459
1.08446
1.08435
1.08425
1.08416
1.08408
1.08402
1.08397
1.08394
1.08392
1.08391
1.08392
1.08393
1.08396
1.084
1.08404