# vtk DataFile Version 2.0
LBE two cylinders
ASCII
DATASET STRUCTURED_POINTS
DIMENSIONS 400 100 1
ASPECT_RATIO 1 1 1
ORIGIN 0 0 0
POINT_DATA 40000
SCALARS rho double 1
LOOKUP_TABLE default
1.73444
1.7344
1.73435
1.7343
1.73425
1.7342
1.73416
1.73411
1.73406
1.73401
1.73397
1.73392
1.73387
1.73383
1.73378
1.73374
1.73369
1.73365
1.73361
1.73357
1.73353
1.73349
1.73345
1.73341
1.73338
1.73334
1.73331
1.73328
1.73325
1.73322
1.7332
1.73317
1.73315
1.73313
1.73311
1.73309
1.73307
1.73306
1.73304
1.73303
1.73302
1.73301
1.733
1.73299
1.73299
1.73298
1.73298
1.73298
1.73298
1.73298
1.73298
1.73298
1.73298
1.73299
1.73299
1.733
1.733
1.73301
1.73301
1.73302
1.73303
1.73303
1.73304
1.73305
1.73306
1.73307
1.73308
1.73308
1.73309
1.7331
1.73311
1.73312
1.73313
1.73314
1.73315
1.73316
1.73317
1.73319
1.7332
1.73321
1.73322
1.73323
1.73324
1.73326
1.73327
1.73328
1.7333
1.73332
1.73333
1.73335
1.73337
1.73339
1.73341
1.73343
1.73345
1.73347
1.7335
1.73353
1.73356
1.73359
1.73362
1.73366
1.7337
1.73374
1.73378
1.73383
1.73388
1.73393
1.73398
1.73404
1.7341
1.73417
1.73423
1.7343
1.73438
1.73445
1.73453
1.73461
1.7347
1.73479
1.73488
1.73498
1.73507
1.73517
1.73528
1.73538
1.73549
1.7356
1.73571
1.73583
1.73594
1.73606
1.73618
1.7363
1.73642
1.73654
1.73666
1.73678
1.7369
1.73702
1.73714
1.73726
1.73738
1.7375
1.73761
1.73773
1.73784
1.73795
1.73805
1.73816
1.73826
1.73836
1.73845
1.73854
1.73863
1.73871
1.73879
1.73887
1.73894
1.73901
1.73907
1.73913
1.73919
1.73924
1.73929
1.73933
1.73937
1.73941
1.73944
1.73947
1.73949
1.73952
1.73954
1.73955
1.73957
1.73958
1.73959
1.7396
1.73961
1.73961
1.73962
1.73962
1.73962
1.73962
1.73962
1.73962
1.73963
1.73963
1.73963
1.73963
1.73964
1.73964
1.73964
1.73965
1.73966
1.73967
1.73968
1.73969
1.73971
1.73972
1.73974
1.73976
1.73978
1.7398
1.73983
1.73986
1.73989
1.73992
1.73995
1.73998
1.74002
1.74006
1.74009
1.74013
1.74017
1.74022
1.74026
1.7403
1.74035
1.74039
1.74043
1.74048
1.74052
1.74057
1.74061
1.74065
1.74069
1.74073
1.74077
1.74081
1.74085
1.74088
1.74092
1.74095
1.74098
1.741
1.74102
1.74105
1.74106
1.74108
1.74109
1.7411
1.74111
1.74111
1.74111
1.74111
1.7411
1.74109
1.74108
1.74106
1.74104
1.74102
1.74099
1.74096
1.74093
1.7409
1.74086
1.74083
1.74079
1.74075
1.7407
1.74066
1.74062
1.74057
1.74052
1.74048
1.74043
1.74038
1.74034
1.74029
1.74025
1.7402
1.74016
1.74012
1.74008
1.74004
1.74
1.73996
1.73993
1.7399
1.73987
1.73984
1.73982
1.7398
1.73978
1.73976
1.73974
1.73973
1.73971
1.7397
1.73969
1.73969
1.73968
1.73968
1.73967
1.73967
1.73967
1.73967
1.73967
1.73967
1.73967
1.73967
1.73967
1.73967
1.73966
1.73966
1.73966
1.73966
1.73965
1.73965
1.73964
1.73963
1.73963
1.73962
1.7396
1.73959
1.73957
1.73956
1.73954
1.73952
1.73949
1.73947
1.73944
1.73941
1.73938
1.73934
1.73931
1.73927
1.73923
1.73918
1.73914
1.73909
1.73904
1.73898
1.73893
1.73887
1.73881
1.73875
1.73868
1.73861
1.73854
1.73847
1.7384
1.73832
1.73825
1.73817
1.73809
1.73801
1.73792
1.73784
1.73776
1.73767
1.73759
1.7375
1.73741
1.73733
1.73724
1.73715
1.73707
1.73698
1.7369
1.73681
1.73673
1.73665
1.73656
1.73648
1.73641
1.73633
1.73625
1.73618
1.7361
1.73603
1.73596
1.73589
1.73583
1.73576
1.7357
1.73563
1.73557
1.73551
1.73545
1.7354
1.73534
1.73528
1.73523
1.73518
1.73513
1.73507
1.73502
1.73497
1.73492
1.73487
1.73483
1.73478
1.73473
1.73468
1.73463
1.73459
1.73454
1.73449
1.73444
1.73439
1.73434
1.73429
1.73425
1.7342
1.73415
1.7341
1.73406
1.73401
1.73396
1.73392
1.73387
1.73382
1.73378
1.73373
1.73369
1.73365
1.73361
1.73356
1.73352
1.73349
1.73345
1.73341
1.73338
1.73334
1.73331
1.73328
1.73325
1.73322
1.73319
1.73317
1.73315
1.73312
1.7331
1.73309
1.73307
1.73305
1.73304
1.73303
1.73302
1.73301
1.733
1.73299
1.73299
1.73298
1.73298
1.73298
1.73298
1.73298
1.73298
1.73298
1.73298
1.73298
1.73299
1.73299
1.733
1.733
1.73301
1.73302
1.73302
1.73303
1.73304
1.73305
1.73306
1.73307
1.73307
1.73308
1.73309
1.7331
1.73311
1.73312
1.73313
1.73314
1.73315
1.73316
1.73317
1.73318
1.7332
1.73321
1.73322
1.73323
1.73324
1.73326
1.73327
1.73328
1.7333
1.73331
1.73333
1.73335
1.73337
1.73339
1.73341
1.73343
1.73345
1.73347
1.7335
1.73353
1.73356
1.73359
1.73362
1.73366
1.7337
1.73374
1.73378
1.73383
1.73388
1.73393
1.73398
1.73404
1.7341
1.73416
1.73423
1.7343
1.73437
1.73445
1.73453
1.73461
1.7347
1.73479
1.73488
1.73497
1.73507
1.73517
1.73527
1.73538
1.73548
1.73559
1.73571
1.73582
1.73593
1.73605
1.73617
1.73629
1.73641
1.73653
1.73665
1.73677
1.73689
1.73701
1.73713
1.73725
1.73737
1.73748
1.7376
1.73771
1.73782
1.73793
1.73804
1.73814
1.73824
1.73834
1.73843
1.73853
1.73861
1.7387
1.73878
1.73885
1.73892
1.73899
1.73905
1.73911
1.73917
1.73922
1.73927
1.73931
1.73935
1.73939
1.73942
1.73945
1.73947
1.7395
1.73952
1.73953
1.73955
1.73956
1.73957
1.73958
1.73959
1.73959
1.7396
1.7396
1.7396
1.7396
1.73961
1.73961
1.73961
1.73961
1.73961
1.73961
1.73962
1.73962
1.73963
1.73963
1.73964
1.73965
1.73966
1.73967
1.73969
1.7397
1.73972
1.73974
1.73976
1.73979
1.73981
1.73984
1.73987
1.7399
1.73993
1.73997
1.74
1.74004
1.74008
1.74012
1.74016
1.7402
1.74024
1.74028
1.74033
1.74037
1.74042
1.74046
1.7405
1.74055
1.74059
1.74063
1.74068
1.74072
1.74075
1.74079
1.74083
1.74086
1.7409
1.74093
1.74095
1.74098
1.741
1.74102
1.74104
1.74106
1.74107
1.74108
1.74108
1.74109
1.74109
1.74108
1.74108
1.74107
1.74105
1.74104
1.74102
1.74099
1.74097
1.74094
1.74091
1.74088
1.74084
1.74081
1.74077
1.74072
1.74068
1.74064
1.74059
1.74055
1.7405
1.74046
1.74041
1.74036
1.74032
1.74027
1.74022
1.74018
1.74014
1.7401
1.74006
1.74002
1.73998
1.73995
1.73991
1.73988
1.73985
1.73982
1.7398
1.73978
1.73976
1.73974
1.73972
1.73971
1.73969
1.73968
1.73967
1.73967
1.73966
1.73966
1.73965
1.73965
1.73965
1.73965
1.73964
1.73964
1.73964
1.73964
1.73964
1.73964
1.73964
1.73964
1.73964
1.73964
1.73963
1.73963
1.73962
1.73961
1.7396
1.73959
1.73958
1.73957
1.73955
1.73953
1.73951
1.73949
1.73947
1.73944
1.73942
1.73939
1.73936
1.73932
1.73928
1.73925
1.7392
1.73916
1.73911
1.73907
1.73902
1.73896
1.73891
1.73885
1.73879
1.73873
1.73866
1.73859
1.73852
1.73845
1.73838
1.73831
1.73823
1.73815
1.73807
1.73799
1.73791
1.73782
1.73774
1.73766
1.73757
1.73748
1.7374
1.73731
1.73723
1.73714
1.73705
1.73697
1.73688
1.7368
1.73672
1.73663
1.73655
1.73647
1.7364
1.73632
1.73624
1.73617
1.73609
1.73602
1.73595
1.73588
1.73582
1.73575
1.73569
1.73563
1.73556
1.7355
1.73545
1.73539
1.73533
1.73528
1.73522
1.73517
1.73512
1.73507
1.73502
1.73497
1.73492
1.73487
1.73482
1.73477
1.73472
1.73468
1.73463
1.73458
1.73453
1.73449
1.73442
1.73438
1.73433
1.73428
1.73423
1.73419
1.73414
1.73409
1.73405
1.734
1.73395
1.73391
1.73386
1.73381
1.73377
1.73372
1.73368
1.73364
1.7336
1.73356
1.73352
1.73348
1.73344
1.7334
1.73337
1.73333
1.7333
1.73327
1.73324
1.73321
1.73319
1.73316
1.73314
1.73312
1.7331
1.73308
1.73306
1.73305
1.73303
1.73302
1.73301
1.733
1.73299
1.73299
1.73298
1.73298
1.73297
1.73297
1.73297
1.73297
1.73297
1.73297
1.73298
1.73298
1.73298
1.73299
1.73299
1.733
1.73301
1.73301
1.73302
1.73303
1.73303
1.73304
1.73305
1.73306
1.73307
1.73308
1.73309
1.7331
1.73311
1.73312
1.73313
1.73314
1.73315
1.73316
1.73317
1.73318
1.73319
1.7332
1.73322
1.73323
1.73324
1.73325
1.73327
1.73328
1.7333
1.73331
1.73333
1.73335
1.73336
1.73338
1.7334
1.73342
1.73345
1.73347
1.7335
1.73353
1.73356
1.73359
1.73362
1.73366
1.73369
1.73373
1.73378
1.73382
1.73387
1.73392
1.73398
1.73403
1.7341
1.73416
1.73422
1.73429
1.73437
1.73444
1.73452
1.7346
1.73469
1.73478
1.73487
1.73496
1.73506
1.73516
1.73526
1.73536
1.73547
1.73558
1.73569
1.7358
1.73592
1.73603
1.73615
1.73627
1.73639
1.73651
1.73663
1.73675
1.73687
1.73699
1.73711
1.73723
1.73734
1.73746
1.73757
1.73769
1.7378
1.73791
1.73801
1.73811
1.73821
1.73831
1.7384
1.73849
1.73858
1.73866
1.73874
1.73882
1.73889
1.73896
1.73902
1.73908
1.73913
1.73919
1.73923
1.73928
1.73932
1.73935
1.73938
1.73941
1.73944
1.73946
1.73948
1.7395
1.73951
1.73953
1.73954
1.73954
1.73955
1.73956
1.73956
1.73956
1.73957
1.73957
1.73957
1.73957
1.73957
1.73957
1.73958
1.73958
1.73958
1.73959
1.73959
1.7396
1.73961
1.73962
1.73963
1.73964
1.73965
1.73967
1.73969
1.73971
1.73973
1.73975
1.73978
1.73981
1.73984
1.73987
1.7399
1.73993
1.73997
1.74
1.74004
1.74008
1.74012
1.74016
1.74021
1.74025
1.74029
1.74034
1.74038
1.74043
1.74047
1.74051
1.74056
1.7406
1.74064
1.74068
1.74072
1.74076
1.74079
1.74083
1.74086
1.74089
1.74092
1.74094
1.74097
1.74099
1.741
1.74102
1.74103
1.74104
1.74105
1.74105
1.74105
1.74104
1.74104
1.74103
1.74101
1.741
1.74098
1.74095
1.74093
1.7409
1.74087
1.74084
1.7408
1.74076
1.74073
1.74068
1.74064
1.7406
1.74055
1.74051
1.74046
1.74041
1.74037
1.74032
1.74028
1.74023
1.74018
1.74014
1.7401
1.74006
1.74002
1.73998
1.73994
1.73991
1.73987
1.73984
1.73981
1.73978
1.73976
1.73974
1.73972
1.7397
1.73968
1.73967
1.73965
1.73964
1.73963
1.73962
1.73962
1.73961
1.73961
1.73961
1.7396
1.7396
1.7396
1.7396
1.7396
1.7396
1.7396
1.7396
1.7396
1.7396
1.7396
1.73959
1.73959
1.73958
1.73958
1.73957
1.73956
1.73955
1.73954
1.73952
1.73951
1.73949
1.73947
1.73945
1.73943
1.7394
1.73938
1.73935
1.73931
1.73928
1.73924
1.7392
1.73916
1.73912
1.73907
1.73903
1.73898
1.73892
1.73887
1.73881
1.73875
1.73869
1.73862
1.73856
1.73849
1.73842
1.73835
1.73827
1.73819
1.73812
1.73804
1.73796
1.73788
1.73779
1.73771
1.73762
1.73754
1.73745
1.73737
1.73728
1.7372
1.73711
1.73703
1.73694
1.73686
1.73677
1.73669
1.73661
1.73653
1.73645
1.73637
1.7363
1.73622
1.73615
1.73607
1.736
1.73593
1.73586
1.7358
1.73573
1.73567
1.73561
1.73555
1.73549
1.73543
1.73537
1.73532
1.73526
1.73521
1.73515
1.7351
1.73505
1.735
1.73495
1.7349
1.73485
1.73481
1.73476
1.73471
1.73466
1.73461
1.73457
1.73452
1.73447
1.73441
1.73436
1.73431
1.73427
1.73422
1.73417
1.73412
1.73408
1.73403
1.73398
1.73394
1.73389
1.73385
1.7338
1.73376
1.73371
1.73367
1.73363
1.73358
1.73354
1.7335
1.73347
1.73343
1.73339
1.73336
1.73332
1.73329
1.73326
1.73323
1.7332
1.73318
1.73315
1.73313
1.73311
1.73309
1.73307
1.73305
1.73304
1.73303
1.73301
1.733
1.73299
1.73299
1.73298
1.73297
1.73297
1.73297
1.73296
1.73296
1.73296
1.73296
1.73297
1.73297
1.73297
1.73298
1.73298
1.73299
1.73299
1.733
1.73301
1.73301
1.73302
1.73303
1.73304
1.73305
1.73306
1.73307
1.73307
1.73308
1.73309
1.7331
1.73311
1.73312
1.73314
1.73315
1.73316
1.73317
1.73318
1.73319
1.7332
1.73321
1.73323
1.73324
1.73325
1.73327
1.73328
1.7333
1.73331
1.73333
1.73334
1.73336
1.73338
1.7334
1.73342
1.73345
1.73347
1.73349
1.73352
1.73355
1.73358
1.73362
1.73365
1.73369
1.73373
1.73377
1.73382
1.73387
1.73392
1.73397
1.73403
1.73409
1.73415
1.73421
1.73428
1.73435
1.73443
1.73451
1.73459
1.73467
1.73476
1.73485
1.73494
1.73504
1.73514
1.73524
1.73534
1.73545
1.73556
1.73567
1.73578
1.73589
1.73601
1.73612
1.73624
1.73636
1.73648
1.7366
1.73672
1.73684
1.73695
1.73707
1.73719
1.73731
1.73742
1.73754
1.73765
1.73776
1.73786
1.73797
1.73807
1.73817
1.73827
1.73836
1.73845
1.73854
1.73862
1.7387
1.73877
1.73884
1.73891
1.73897
1.73903
1.73908
1.73913
1.73918
1.73922
1.73926
1.7393
1.73933
1.73936
1.73939
1.73941
1.73943
1.73944
1.73946
1.73947
1.73948
1.73949
1.7395
1.7395
1.73951
1.73951
1.73951
1.73951
1.73951
1.73952
1.73952
1.73952
1.73952
1.73952
1.73953
1.73953
1.73954
1.73955
1.73955
1.73956
1.73957
1.73959
1.7396
1.73962
1.73964
1.73966
1.73968
1.7397
1.73973
1.73975
1.73978
1.73981
1.73985
1.73988
1.73992
1.73995
1.73999
1.74003
1.74007
1.74011
1.74015
1.7402
1.74024
1.74028
1.74033
1.74037
1.74042
1.74046
1.7405
1.74054
1.74058
1.74062
1.74066
1.7407
1.74074
1.74077
1.7408
1.74083
1.74086
1.74089
1.74091
1.74093
1.74095
1.74096
1.74097
1.74098
1.74099
1.74099
1.74099
1.74098
1.74098
1.74097
1.74095
1.74094
1.74092
1.74089
1.74087
1.74084
1.74081
1.74078
1.74074
1.7407
1.74066
1.74062
1.74058
1.74054
1.74049
1.74045
1.7404
1.74035
1.74031
1.74026
1.74021
1.74017
1.74012
1.74008
1.74004
1.74
1.73995
1.73992
1.73988
1.73984
1.73981
1.73978
1.73975
1.73972
1.7397
1.73967
1.73965
1.73964
1.73962
1.7396
1.73959
1.73958
1.73957
1.73956
1.73956
1.73955
1.73955
1.73954
1.73954
1.73954
1.73954
1.73954
1.73954
1.73954
1.73954
1.73954
1.73954
1.73953
1.73953
1.73953
1.73953
1.73952
1.73951
1.73951
1.7395
1.73949
1.73948
1.73946
1.73945
1.73943
1.73941
1.73939
1.73937
1.73934
1.73932
1.73929
1.73925
1.73922
1.73918
1.73915
1.73911
1.73906
1.73902
1.73897
1.73892
1.73887
1.73881
1.73876
1.7387
1.73863
1.73857
1.7385
1.73844
1.73837
1.73829
1.73822
1.73814
1.73807
1.73799
1.73791
1.73783
1.73775
1.73766
1.73758
1.7375
1.73741
1.73733
1.73724
1.73716
1.73707
1.73699
1.7369
1.73682
1.73674
1.73666
1.73657
1.73649
1.73642
1.73634
1.73626
1.73619
1.73611
1.73604
1.73597
1.7359
1.73584
1.73577
1.7357
1.73564
1.73558
1.73552
1.73546
1.7354
1.73535
1.73529
1.73524
1.73518
1.73513
1.73508
1.73503
1.73498
1.73493
1.73488
1.73483
1.73479
1.73474
1.73469
1.73464
1.7346
1.73455
1.7345
1.73445
1.73438
1.73433
1.73429
1.73424
1.73419
1.73415
1.7341
1.73405
1.73401
1.73396
1.73391
1.73387
1.73382
1.73378
1.73373
1.73369
1.73365
1.73361
1.73356
1.73352
1.73349
1.73345
1.73341
1.73337
1.73334
1.73331
1.73327
1.73324
1.73322
1.73319
1.73316
1.73314
1.73311
1.73309
1.73307
1.73306
1.73304
1.73302
1.73301
1.733
1.73299
1.73298
1.73297
1.73297
1.73296
1.73296
1.73295
1.73295
1.73295
1.73295
1.73295
1.73295
1.73296
1.73296
1.73297
1.73297
1.73298
1.73298
1.73299
1.733
1.733
1.73301
1.73302
1.73303
1.73304
1.73305
1.73306
1.73307
1.73308
1.73309
1.7331
1.73311
1.73312
1.73313
1.73314
1.73315
1.73316
1.73317
1.73318
1.7332
1.73321
1.73322
1.73323
1.73325
1.73326
1.73328
1.73329
1.73331
1.73332
1.73334
1.73336
1.73338
1.73339
1.73342
1.73344
1.73346
1.73349
1.73351
1.73354
1.73357
1.73361
1.73364
1.73368
1.73372
1.73376
1.73381
1.73385
1.7339
1.73396
1.73401
1.73407
1.73413
1.7342
1.73427
1.73434
1.73441
1.73449
1.73457
1.73465
1.73474
1.73483
1.73492
1.73501
1.73511
1.73521
1.73531
1.73542
1.73553
1.73564
1.73575
1.73586
1.73597
1.73609
1.7362
1.73632
1.73644
1.73656
1.73667
1.73679
1.73691
1.73703
1.73714
1.73726
1.73737
1.73749
1.7376
1.73771
1.73781
1.73792
1.73802
1.73812
1.73821
1.7383
1.73839
1.73848
1.73856
1.73864
1.73871
1.73878
1.73884
1.73891
1.73896
1.73902
1.73907
1.73912
1.73916
1.7392
1.73923
1.73926
1.73929
1.73932
1.73934
1.73936
1.73938
1.73939
1.7394
1.73941
1.73942
1.73943
1.73943
1.73944
1.73944
1.73944
1.73944
1.73945
1.73945
1.73945
1.73945
1.73945
1.73945
1.73946
1.73946
1.73947
1.73948
1.73948
1.73949
1.73951
1.73952
1.73953
1.73955
1.73957
1.73959
1.73961
1.73963
1.73966
1.73969
1.73971
1.73975
1.73978
1.73981
1.73985
1.73988
1.73992
1.73996
1.74
1.74004
1.74009
1.74013
1.74017
1.74022
1.74026
1.7403
1.74035
1.74039
1.74043
1.74047
1.74051
1.74055
1.74059
1.74063
1.74067
1.7407
1.74073
1.74076
1.74079
1.74081
1.74084
1.74085
1.74087
1.74089
1.7409
1.74091
1.74091
1.74091
1.74091
1.74091
1.7409
1.74089
1.74088
1.74086
1.74084
1.74082
1.74079
1.74076
1.74073
1.7407
1.74066
1.74063
1.74059
1.74055
1.7405
1.74046
1.74041
1.74037
1.74032
1.74028
1.74023
1.74018
1.74014
1.74009
1.74005
1.74
1.73996
1.73992
1.73988
1.73984
1.7398
1.73976
1.73973
1.7397
1.73967
1.73964
1.73962
1.73959
1.73957
1.73955
1.73954
1.73952
1.73951
1.7395
1.73949
1.73948
1.73947
1.73947
1.73946
1.73946
1.73946
1.73946
1.73946
1.73945
1.73945
1.73945
1.73945
1.73945
1.73945
1.73945
1.73945
1.73945
1.73944
1.73944
1.73943
1.73942
1.73942
1.73941
1.73939
1.73938
1.73937
1.73935
1.73933
1.73931
1.73929
1.73926
1.73924
1.73921
1.73918
1.73914
1.73911
1.73907
1.73903
1.73899
1.73894
1.73889
1.73884
1.73879
1.73874
1.73868
1.73862
1.73856
1.7385
1.73843
1.73837
1.7383
1.73823
1.73815
1.73808
1.738
1.73792
1.73785
1.73777
1.73768
1.7376
1.73752
1.73744
1.73735
1.73727
1.73719
1.7371
1.73702
1.73693
1.73685
1.73677
1.73669
1.73661
1.73653
1.73645
1.73637
1.73629
1.73622
1.73614
1.73607
1.736
1.73593
1.73586
1.7358
1.73573
1.73567
1.7356
1.73554
1.73548
1.73542
1.73537
1.73531
1.73526
1.7352
1.73515
1.7351
1.73505
1.735
1.73495
1.7349
1.73485
1.7348
1.73476
1.73471
1.73466
1.73461
1.73457
1.73452
1.73447
1.73443
1.73435
1.7343
1.73426
1.73421
1.73417
1.73412
1.73407
1.73403
1.73398
1.73394
1.73389
1.73385
1.7338
1.73376
1.73371
1.73367
1.73363
1.73359
1.73354
1.7335
1.73347
1.73343
1.73339
1.73336
1.73332
1.73329
1.73326
1.73323
1.7332
1.73317
1.73315
1.73312
1.7331
1.73308
1.73306
1.73304
1.73303
1.73301
1.733
1.73299
1.73298
1.73297
1.73296
1.73295
1.73295
1.73294
1.73294
1.73294
1.73294
1.73294
1.73294
1.73294
1.73295
1.73295
1.73296
1.73296
1.73297
1.73297
1.73298
1.73299
1.733
1.733
1.73301
1.73302
1.73303
1.73304
1.73305
1.73306
1.73307
1.73308
1.73309
1.7331
1.73311
1.73312
1.73313
1.73315
1.73316
1.73317
1.73318
1.73319
1.73321
1.73322
1.73323
1.73324
1.73326
1.73327
1.73329
1.7333
1.73332
1.73333
1.73335
1.73337
1.73339
1.73341
1.73343
1.73346
1.73348
1.73351
1.73354
1.73357
1.7336
1.73363
1.73367
1.73371
1.73375
1.73379
1.73384
1.73389
1.73394
1.734
1.73405
1.73411
1.73418
1.73424
1.73432
1.73439
1.73446
1.73454
1.73463
1.73471
1.7348
1.73489
1.73498
1.73508
1.73518
1.73528
1.73538
1.73549
1.7356
1.7357
1.73582
1.73593
1.73604
1.73616
1.73627
1.73639
1.73651
1.73662
1.73674
1.73686
1.73697
1.73709
1.7372
1.73731
1.73742
1.73753
1.73764
1.73775
1.73785
1.73795
1.73805
1.73814
1.73823
1.73832
1.7384
1.73848
1.73856
1.73863
1.7387
1.73877
1.73883
1.73889
1.73894
1.73899
1.73903
1.73908
1.73911
1.73915
1.73918
1.73921
1.73923
1.73925
1.73927
1.73929
1.7393
1.73932
1.73933
1.73933
1.73934
1.73935
1.73935
1.73935
1.73935
1.73936
1.73936
1.73936
1.73936
1.73936
1.73936
1.73937
1.73937
1.73938
1.73938
1.73939
1.7394
1.73941
1.73942
1.73943
1.73945
1.73946
1.73948
1.7395
1.73952
1.73955
1.73957
1.7396
1.73963
1.73966
1.73969
1.73972
1.73976
1.7398
1.73983
1.73987
1.73991
1.73996
1.74
1.74004
1.74008
1.74013
1.74017
1.74021
1.74026
1.7403
1.74034
1.74038
1.74042
1.74046
1.7405
1.74054
1.74057
1.74061
1.74064
1.74067
1.74069
1.74072
1.74074
1.74076
1.74078
1.74079
1.7408
1.74081
1.74082
1.74082
1.74082
1.74081
1.7408
1.74079
1.74078
1.74076
1.74074
1.74072
1.74069
1.74066
1.74063
1.7406
1.74057
1.74053
1.74049
1.74045
1.7404
1.74036
1.74032
1.74027
1.74022
1.74018
1.74013
1.74008
1.74004
1.73999
1.73995
1.7399
1.73986
1.73982
1.73978
1.73974
1.7397
1.73966
1.73963
1.7396
1.73957
1.73954
1.73952
1.73949
1.73947
1.73945
1.73943
1.73942
1.73941
1.73939
1.73938
1.73938
1.73937
1.73936
1.73936
1.73936
1.73935
1.73935
1.73935
1.73935
1.73935
1.73935
1.73935
1.73935
1.73935
1.73935
1.73935
1.73934
1.73934
1.73933
1.73933
1.73932
1.73931
1.7393
1.73929
1.73928
1.73926
1.73925
1.73923
1.73921
1.73919
1.73916
1.73914
1.73911
1.73908
1.73905
1.73901
1.73897
1.73893
1.73889
1.73885
1.7388
1.73875
1.7387
1.73865
1.73859
1.73854
1.73848
1.73841
1.73835
1.73828
1.73821
1.73814
1.73807
1.738
1.73792
1.73785
1.73777
1.73769
1.73761
1.73753
1.73745
1.73737
1.73728
1.7372
1.73712
1.73704
1.73695
1.73687
1.73679
1.73671
1.73663
1.73655
1.73647
1.73639
1.73631
1.73624
1.73616
1.73609
1.73602
1.73595
1.73588
1.73581
1.73575
1.73568
1.73562
1.73556
1.7355
1.73544
1.73538
1.73533
1.73527
1.73522
1.73516
1.73511
1.73506
1.73501
1.73496
1.73491
1.73486
1.73482
1.73477
1.73472
1.73467
1.73463
1.73458
1.73454
1.73449
1.73444
1.7344
1.73431
1.73427
1.73422
1.73417
1.73413
1.73408
1.73404
1.73399
1.73395
1.7339
1.73386
1.73381
1.73377
1.73372
1.73368
1.73364
1.7336
1.73356
1.73352
1.73348
1.73344
1.7334
1.73336
1.73333
1.7333
1.73326
1.73323
1.7332
1.73317
1.73315
1.73312
1.7331
1.73308
1.73306
1.73304
1.73302
1.733
1.73299
1.73298
1.73296
1.73295
1.73295
1.73294
1.73293
1.73293
1.73292
1.73292
1.73292
1.73292
1.73292
1.73292
1.73292
1.73293
1.73293
1.73294
1.73294
1.73295
1.73296
1.73296
1.73297
1.73298
1.73299
1.733
1.73301
1.73302
1.73303
1.73304
1.73305
1.73306
1.73307
1.73308
1.73309
1.7331
1.73311
1.73313
1.73314
1.73315
1.73316
1.73317
1.73319
1.7332
1.73321
1.73322
1.73324
1.73325
1.73326
1.73328
1.73329
1.73331
1.73333
1.73334
1.73336
1.73338
1.7334
1.73342
1.73345
1.73347
1.7335
1.73352
1.73355
1.73358
1.73362
1.73365
1.73369
1.73373
1.73378
1.73382
1.73387
1.73392
1.73397
1.73403
1.73409
1.73415
1.73422
1.73429
1.73436
1.73444
1.73451
1.73459
1.73468
1.73476
1.73485
1.73495
1.73504
1.73514
1.73524
1.73534
1.73544
1.73555
1.73566
1.73577
1.73588
1.73599
1.7361
1.73622
1.73633
1.73645
1.73656
1.73668
1.73679
1.73691
1.73702
1.73713
1.73724
1.73735
1.73746
1.73757
1.73767
1.73777
1.73787
1.73797
1.73806
1.73815
1.73823
1.73832
1.7384
1.73847
1.73854
1.73861
1.73868
1.73874
1.73879
1.73885
1.73889
1.73894
1.73898
1.73902
1.73905
1.73908
1.73911
1.73914
1.73916
1.73917
1.73919
1.7392
1.73922
1.73923
1.73923
1.73924
1.73924
1.73925
1.73925
1.73925
1.73925
1.73926
1.73926
1.73926
1.73926
1.73926
1.73926
1.73927
1.73927
1.73928
1.73929
1.73929
1.7393
1.73932
1.73933
1.73934
1.73936
1.73938
1.7394
1.73942
1.73944
1.73947
1.7395
1.73953
1.73956
1.73959
1.73962
1.73966
1.7397
1.73973
1.73977
1.73981
1.73985
1.7399
1.73994
1.73998
1.74002
1.74007
1.74011
1.74015
1.7402
1.74024
1.74028
1.74032
1.74036
1.7404
1.74043
1.74047
1.7405
1.74053
1.74056
1.74059
1.74061
1.74063
1.74065
1.74067
1.74068
1.74069
1.7407
1.74071
1.74071
1.74071
1.7407
1.74069
1.74068
1.74067
1.74065
1.74063
1.74061
1.74058
1.74055
1.74052
1.74049
1.74045
1.74041
1.74037
1.74033
1.74029
1.74025
1.7402
1.74016
1.74011
1.74006
1.74002
1.73997
1.73992
1.73988
1.73983
1.73979
1.73974
1.7397
1.73966
1.73962
1.73958
1.73955
1.73951
1.73948
1.73945
1.73942
1.7394
1.73937
1.73935
1.73933
1.73931
1.7393
1.73929
1.73927
1.73926
1.73925
1.73925
1.73924
1.73924
1.73923
1.73923
1.73923
1.73923
1.73923
1.73923
1.73923
1.73923
1.73923
1.73923
1.73922
1.73922
1.73922
1.73922
1.73921
1.73921
1.7392
1.73919
1.73918
1.73917
1.73916
1.73915
1.73913
1.73911
1.73909
1.73907
1.73905
1.73902
1.73899
1.73896
1.73893
1.7389
1.73886
1.73882
1.73878
1.73874
1.73869
1.73864
1.73859
1.73854
1.73849
1.73843
1.73837
1.73831
1.73825
1.73818
1.73811
1.73805
1.73797
1.7379
1.73783
1.73775
1.73768
1.7376
1.73752
1.73744
1.73736
1.73728
1.7372
1.73712
1.73704
1.73695
1.73687
1.73679
1.73671
1.73663
1.73655
1.73647
1.7364
1.73632
1.73625
1.73617
1.7361
1.73603
1.73596
1.73589
1.73582
1.73575
1.73569
1.73563
1.73556
1.7355
1.73544
1.73539
1.73533
1.73527
1.73522
1.73517
1.73511
1.73506
1.73501
1.73496
1.73491
1.73487
1.73482
1.73477
1.73472
1.73468
1.73463
1.73459
1.73454
1.73449
1.73445
1.7344
1.73436
1.73427
1.73423
1.73418
1.73414
1.73409
1.73405
1.734
1.73396
1.73391
1.73387
1.73382
1.73378
1.73374
1.73369
1.73365
1.73361
1.73357
1.73353
1.73349
1.73345
1.73341
1.73337
1.73334
1.7333
1.73327
1.73324
1.73321
1.73318
1.73315
1.73312
1.7331
1.73308
1.73306
1.73304
1.73302
1.733
1.73298
1.73297
1.73296
1.73295
1.73294
1.73293
1.73292
1.73291
1.73291
1.73291
1.7329
1.7329
1.7329
1.7329
1.73291
1.73291
1.73291
1.73292
1.73292
1.73293
1.73294
1.73294
1.73295
1.73296
1.73297
1.73298
1.73299
1.733
1.73301
1.73302
1.73303
1.73304
1.73305
1.73306
1.73307
1.73308
1.7331
1.73311
1.73312
1.73313
1.73314
1.73316
1.73317
1.73318
1.73319
1.73321
1.73322
1.73323
1.73325
1.73326
1.73328
1.73329
1.73331
1.73332
1.73334
1.73336
1.73338
1.73339
1.73342
1.73344
1.73346
1.73349
1.73351
1.73354
1.73357
1.7336
1.73364
1.73368
1.73372
1.73376
1.7338
1.73385
1.7339
1.73395
1.73401
1.73406
1.73413
1.73419
1.73426
1.73433
1.7344
1.73448
1.73456
1.73464
1.73472
1.73481
1.7349
1.735
1.73509
1.73519
1.73529
1.73539
1.7355
1.7356
1.73571
1.73582
1.73593
1.73604
1.73615
1.73626
1.73638
1.73649
1.7366
1.73672
1.73683
1.73694
1.73705
1.73716
1.73727
1.73738
1.73748
1.73758
1.73768
1.73778
1.73787
1.73796
1.73805
1.73814
1.73822
1.7383
1.73837
1.73844
1.73851
1.73857
1.73863
1.73869
1.73874
1.73879
1.73883
1.73887
1.73891
1.73894
1.73897
1.739
1.73902
1.73904
1.73906
1.73908
1.73909
1.7391
1.73911
1.73912
1.73912
1.73913
1.73913
1.73913
1.73913
1.73914
1.73914
1.73914
1.73914
1.73914
1.73914
1.73915
1.73915
1.73915
1.73916
1.73917
1.73918
1.73918
1.7392
1.73921
1.73922
1.73924
1.73926
1.73928
1.7393
1.73932
1.73935
1.73938
1.73941
1.73944
1.73947
1.7395
1.73954
1.73958
1.73961
1.73965
1.73969
1.73973
1.73977
1.73982
1.73986
1.7399
1.73995
1.73999
1.74003
1.74007
1.74012
1.74016
1.7402
1.74023
1.74027
1.74031
1.74034
1.74038
1.74041
1.74043
1.74046
1.74048
1.74051
1.74053
1.74054
1.74055
1.74056
1.74057
1.74058
1.74058
1.74057
1.74057
1.74056
1.74055
1.74054
1.74052
1.7405
1.74047
1.74045
1.74042
1.74039
1.74035
1.74032
1.74028
1.74024
1.7402
1.74016
1.74011
1.74007
1.74002
1.73998
1.73993
1.73988
1.73984
1.73979
1.73974
1.7397
1.73965
1.73961
1.73957
1.73952
1.73949
1.73945
1.73941
1.73938
1.73934
1.73931
1.73929
1.73926
1.73924
1.73921
1.73919
1.73918
1.73916
1.73915
1.73913
1.73912
1.73911
1.73911
1.7391
1.7391
1.73909
1.73909
1.73909
1.73909
1.73909
1.73909
1.73909
1.73909
1.73909
1.73908
1.73908
1.73908
1.73908
1.73908
1.73907
1.73907
1.73906
1.73905
1.73905
1.73903
1.73902
1.73901
1.73899
1.73898
1.73896
1.73894
1.73891
1.73889
1.73886
1.73883
1.7388
1.73877
1.73873
1.7387
1.73866
1.73861
1.73857
1.73852
1.73847
1.73842
1.73837
1.73831
1.73825
1.73819
1.73813
1.73807
1.738
1.73793
1.73787
1.73779
1.73772
1.73765
1.73757
1.7375
1.73742
1.73734
1.73726
1.73718
1.7371
1.73702
1.73694
1.73686
1.73679
1.73671
1.73663
1.73655
1.73647
1.73639
1.73632
1.73624
1.73617
1.7361
1.73603
1.73596
1.73589
1.73582
1.73575
1.73569
1.73562
1.73556
1.7355
1.73544
1.73538
1.73533
1.73527
1.73522
1.73516
1.73511
1.73506
1.73501
1.73496
1.73491
1.73486
1.73482
1.73477
1.73472
1.73468
1.73463
1.73459
1.73454
1.7345
1.73445
1.73441
1.73436
1.73432
1.73422
1.73418
1.73413
1.73409
1.73404
1.734
1.73395
1.73391
1.73387
1.73382
1.73378
1.73374
1.73369
1.73365
1.73361
1.73357
1.73353
1.73349
1.73345
1.73341
1.73337
1.73334
1.7333
1.73327
1.73324
1.7332
1.73317
1.73315
1.73312
1.73309
1.73307
1.73305
1.73302
1.733
1.73299
1.73297
1.73295
1.73294
1.73293
1.73292
1.73291
1.7329
1.73289
1.73289
1.73288
1.73288
1.73288
1.73288
1.73288
1.73288
1.73288
1.73288
1.73289
1.73289
1.7329
1.73291
1.73291
1.73292
1.73293
1.73294
1.73295
1.73296
1.73297
1.73298
1.73299
1.733
1.73301
1.73302
1.73303
1.73304
1.73306
1.73307
1.73308
1.73309
1.73311
1.73312
1.73313
1.73314
1.73316
1.73317
1.73318
1.7332
1.73321
1.73322
1.73324
1.73325
1.73327
1.73328
1.7333
1.73331
1.73333
1.73334
1.73336
1.73338
1.7334
1.73342
1.73345
1.73347
1.7335
1.73352
1.73355
1.73359
1.73362
1.73366
1.73369
1.73373
1.73378
1.73382
1.73387
1.73392
1.73398
1.73403
1.7341
1.73416
1.73422
1.73429
1.73436
1.73444
1.73452
1.7346
1.73468
1.73477
1.73485
1.73495
1.73504
1.73513
1.73523
1.73533
1.73544
1.73554
1.73565
1.73575
1.73586
1.73597
1.73608
1.73619
1.7363
1.73641
1.73652
1.73664
1.73675
1.73686
1.73697
1.73707
1.73718
1.73728
1.73739
1.73749
1.73758
1.73768
1.73777
1.73786
1.73795
1.73803
1.73811
1.73819
1.73826
1.73833
1.7384
1.73846
1.73852
1.73857
1.73862
1.73867
1.73871
1.73875
1.73879
1.73882
1.73885
1.73887
1.7389
1.73892
1.73893
1.73895
1.73896
1.73897
1.73898
1.73899
1.73899
1.739
1.739
1.739
1.739
1.739
1.739
1.73901
1.73901
1.73901
1.73901
1.73901
1.73902
1.73902
1.73903
1.73903
1.73904
1.73905
1.73906
1.73908
1.73909
1.73911
1.73913
1.73915
1.73917
1.73919
1.73922
1.73924
1.73927
1.7393
1.73934
1.73937
1.73941
1.73944
1.73948
1.73952
1.73956
1.7396
1.73964
1.73968
1.73973
1.73977
1.73981
1.73985
1.7399
1.73994
1.73998
1.74002
1.74006
1.7401
1.74014
1.74017
1.74021
1.74024
1.74027
1.7403
1.74032
1.74035
1.74037
1.74039
1.7404
1.74041
1.74042
1.74043
1.74043
1.74043
1.74043
1.74043
1.74042
1.74041
1.74039
1.74037
1.74035
1.74033
1.7403
1.74027
1.74024
1.74021
1.74017
1.74013
1.74009
1.74005
1.74001
1.73997
1.73992
1.73987
1.73983
1.73978
1.73973
1.73969
1.73964
1.73959
1.73955
1.7395
1.73946
1.73942
1.73937
1.73933
1.7393
1.73926
1.73922
1.73919
1.73916
1.73913
1.73911
1.73908
1.73906
1.73904
1.73902
1.739
1.73899
1.73898
1.73897
1.73896
1.73895
1.73894
1.73894
1.73893
1.73893
1.73893
1.73893
1.73893
1.73893
1.73893
1.73893
1.73893
1.73893
1.73893
1.73892
1.73892
1.73892
1.73892
1.73891
1.73891
1.7389
1.73889
1.73888
1.73887
1.73886
1.73884
1.73882
1.73881
1.73879
1.73876
1.73874
1.73871
1.73869
1.73866
1.73862
1.73859
1.73855
1.73851
1.73847
1.73843
1.73838
1.73833
1.73828
1.73823
1.73818
1.73812
1.73806
1.738
1.73794
1.73787
1.73781
1.73774
1.73767
1.7376
1.73753
1.73745
1.73738
1.7373
1.73723
1.73715
1.73707
1.73699
1.73692
1.73684
1.73676
1.73668
1.73661
1.73653
1.73645
1.73638
1.7363
1.73623
1.73615
1.73608
1.73601
1.73594
1.73587
1.7358
1.73574
1.73567
1.73561
1.73555
1.73549
1.73543
1.73537
1.73531
1.73526
1.7352
1.73515
1.7351
1.73505
1.735
1.73495
1.7349
1.73485
1.7348
1.73476
1.73471
1.73466
1.73462
1.73457
1.73453
1.73449
1.73444
1.7344
1.73435
1.73431
1.73426
1.73417
1.73413
1.73408
1.73404
1.734
1.73395
1.73391
1.73387
1.73382
1.73378
1.73374
1.7337
1.73365
1.73361
1.73357
1.73353
1.73349
1.73345
1.73341
1.73338
1.73334
1.7333
1.73327
1.73324
1.7332
1.73317
1.73314
1.73312
1.73309
1.73306
1.73304
1.73302
1.733
1.73298
1.73296
1.73294
1.73293
1.73292
1.7329
1.73289
1.73288
1.73288
1.73287
1.73286
1.73286
1.73286
1.73286
1.73286
1.73286
1.73286
1.73286
1.73286
1.73287
1.73287
1.73288
1.73289
1.73289
1.7329
1.73291
1.73292
1.73293
1.73294
1.73295
1.73296
1.73297
1.73298
1.733
1.73301
1.73302
1.73303
1.73305
1.73306
1.73307
1.73308
1.7331
1.73311
1.73312
1.73314
1.73315
1.73316
1.73318
1.73319
1.7332
1.73322
1.73323
1.73324
1.73326
1.73327
1.73329
1.7333
1.73332
1.73334
1.73335
1.73337
1.73339
1.73341
1.73344
1.73346
1.73348
1.73351
1.73354
1.73357
1.7336
1.73364
1.73367
1.73371
1.73375
1.7338
1.73385
1.73389
1.73395
1.734
1.73406
1.73412
1.73419
1.73425
1.73432
1.7344
1.73447
1.73455
1.73463
1.73471
1.7348
1.73489
1.73498
1.73508
1.73517
1.73527
1.73537
1.73547
1.73557
1.73568
1.73579
1.73589
1.736
1.73611
1.73622
1.73633
1.73644
1.73655
1.73665
1.73676
1.73687
1.73697
1.73708
1.73718
1.73728
1.73738
1.73747
1.73757
1.73766
1.73775
1.73783
1.73791
1.73799
1.73807
1.73814
1.73821
1.73827
1.73833
1.73839
1.73844
1.73849
1.73853
1.73858
1.73861
1.73865
1.73868
1.73871
1.73873
1.73876
1.73878
1.73879
1.73881
1.73882
1.73883
1.73884
1.73884
1.73885
1.73885
1.73885