# vtk DataFile Version 2.0
LBE two cylinders
ASCII
DATASET STRUCTURED_POINTS
DIMENSIONS 400 100 1
ASPECT_RATIO 1 1 1
ORIGIN 0 0 0
POINT_DATA 40000
SCALARS rho double 1
LOOKUP_TABLE default
1.06755
1.06779
1.06806
1.06835
1.06864
1.06893
1.06923
1.06954
1.06984
1.07015
1.07046
1.07076
1.07107
1.07137
1.07167
1.07197
1.07226
1.07255
1.07283
1.0731
1.07337
1.07363
1.07388
1.07412
1.07436
1.07458
1.0748
1.07501
1.07521
1.0754
1.07559
1.07577
1.07594
1.07611
1.07627
1.07643
1.07658
1.07673
1.07688
1.07703
1.07718
1.07732
1.07748
1.07763
1.07779
1.07795
1.07812
1.0783
1.07848
1.07867
1.07887
1.07908
1.0793
1.07953
1.07977
1.08002
1.08027
1.08054
1.08081
1.0811
1.08139
1.08168
1.08199
1.0823
1.08262
1.08294
1.08327
1.08361
1.08395
1.0843
1.08465
1.08501
1.08537
1.08574
1.08612
1.0865
1.08689
1.08729
1.0877
1.0881
1.08852
1.08894
1.08936
1.08979
1.09022
1.09064
1.09106
1.09148
1.09188
1.09228
1.09266
1.09302
1.09336
1.09368
1.09398
1.09424
1.09448
1.09469
1.09486
1.09501
1.09512
1.09521
1.09526
1.09529
1.09529
1.09528
1.09524
1.09518
1.0951
1.09502
1.09492
1.0948
1.09469
1.09456
1.09443
1.09429
1.09415
1.094
1.09385
1.0937
1.09355
1.09339
1.09323
1.09307
1.09291
1.09274
1.09258
1.09241
1.09224
1.09207
1.09189
1.09172
1.09154
1.09136
1.09118
1.091
1.09082
1.09064
1.09045
1.09027
1.09009
1.0899
1.08972
1.08953
1.08935
1.08917
1.08899
1.08881
1.08863
1.08845
1.08827
1.08809
1.08791
1.08774
1.08756
1.08739
1.08721
1.08704
1.08686
1.08669
1.08652
1.08634
1.08617
1.086
1.08582
1.08564
1.08547
1.08528
1.0851
1.08491
1.08472
1.08452
1.08432
1.08412
1.08391
1.08369
1.08347
1.08324
1.08301
1.08278
1.08254
1.0823
1.08206
1.08183
1.08159
1.08136
1.08113
1.08091
1.08069
1.08049
1.08029
1.08011
1.07994
1.07978
1.07963
1.0795
1.07939
1.07928
1.0792
1.07912
1.07906
1.07901
1.07898
1.07895
1.07893
1.07892
1.07891
1.07891
1.07891
1.07892
1.07893
1.07895
1.07897
1.07899
1.07902
1.07906
1.07911
1.07916
1.07923
1.07931
1.0794
1.0795
1.07961
1.07974
1.07989
1.08004
1.08021
1.0804
1.0806
1.08081
1.08103
1.08127
1.08153
1.0818
1.08209
1.0824
1.08273
1.08308
1.08345
1.08385
1.08427
1.08471
1.08517
1.08564
1.08614
1.08665
1.08717
1.0877
1.08824
1.08877
1.0893
1.08982
1.09033
1.09082
1.0913
1.09175
1.09218
1.09258
1.09296
1.09331
1.09363
1.09392
1.09419
1.09443
1.09464
1.09484
1.09501
1.09516
1.0953
1.09542
1.09552
1.09561
1.09569
1.09576
1.09583
1.09588
1.09593
1.09598
1.09601
1.09605
1.09608
1.09611
1.09614
1.09616
1.09619
1.09621
1.09624
1.09627
1.0963
1.09633
1.09637
1.09641
1.09646
1.09652
1.09659
1.09666
1.09675
1.09684
1.09694
1.09706
1.09718
1.09731
1.09745
1.0976
1.09776
1.09793
1.0981
1.09828
1.09847
1.09867
1.09887
1.09907
1.09928
1.0995
1.09973
1.09996
1.1002
1.10045
1.1007
1.10097
1.10125
1.10155
1.10186
1.10218
1.10252
1.10289
1.10327
1.10367
1.10409
1.10454
1.105
1.10549
1.10599
1.10651
1.10704
1.10759
1.10813
1.10868
1.10921
1.10973
1.11022
1.11066
1.11105
1.11136
1.11158
1.11169
1.11168
1.11153
1.11123
1.11077
1.11017
1.10944
1.10858
1.10763
1.10661
1.10554
1.10445
1.10335
1.10225
1.10113
1.09999
1.09879
1.09751
1.09613
1.09462
1.09297
1.09119
1.08929
1.08728
1.08521
1.08311
1.08101
1.07896
1.07699
1.07513
1.07341
1.07184
1.07043
1.0692
1.06814
1.06725
1.06652
1.06596
1.06553
1.06524
1.06507
1.065
1.06502
1.06512
1.06528
1.0655
1.06576
1.06606
1.06638
1.06673
1.06709
1.06746
1.06785
1.06824
1.06863
1.0677
1.06796
1.06824
1.06852
1.06881
1.06911
1.06941
1.06972
1.07002
1.07033
1.07064
1.07095
1.07125
1.07156
1.07186
1.07215
1.07245
1.07273
1.07301
1.07329
1.07355
1.07381
1.07406
1.0743
1.07453
1.07476
1.07498
1.07518
1.07538
1.07558
1.07576
1.07594
1.07611
1.07628
1.07644
1.0766
1.07675
1.0769
1.07705
1.07719
1.07734
1.07749
1.07764
1.0778
1.07795
1.07812
1.07829
1.07846
1.07864
1.07883
1.07903
1.07924
1.07946
1.07968
1.07992
1.08016
1.08041
1.08068
1.08095
1.08123
1.08151
1.08181
1.08211
1.08241
1.08273
1.08305
1.08337
1.08371
1.08404
1.08439
1.08473
1.08509
1.08545
1.08581
1.08619
1.08656
1.08695
1.08734
1.08774
1.08814
1.08855
1.08896
1.08937
1.08979
1.09021
1.09062
1.09104
1.09144
1.09184
1.09222
1.0926
1.09295
1.09328
1.0936
1.09389
1.09415
1.09438
1.09458
1.09476
1.0949
1.09502
1.09511
1.09517
1.0952
1.09521
1.09519
1.09516
1.09511
1.09504
1.09496
1.09487
1.09477
1.09465
1.09454
1.09441
1.09428
1.09414
1.094
1.09386
1.09372
1.09357
1.09342
1.09326
1.09311
1.09295
1.09279
1.09263
1.09246
1.0923
1.09213
1.09196
1.09179
1.09162
1.09145
1.09127
1.0911
1.09092
1.09074
1.09056
1.09038
1.0902
1.09002
1.08984
1.08966
1.08949
1.08931
1.08913
1.08895
1.08878
1.0886
1.08842
1.08825
1.08807
1.0879
1.08773
1.08755
1.08738
1.08721
1.08704
1.08687
1.08669
1.08652
1.08635
1.08618
1.086
1.08583
1.08565
1.08547
1.08529
1.0851
1.08491
1.08472
1.08452
1.08431
1.0841
1.08389
1.08367
1.08344
1.08321
1.08298
1.08275
1.08251
1.08227
1.08203
1.0818
1.08157
1.08134
1.08112
1.0809
1.08069
1.0805
1.08031
1.08013
1.07997
1.07982
1.07969
1.07957
1.07946
1.07937
1.07929
1.07922
1.07916
1.07912
1.07908
1.07906
1.07904
1.07903
1.07902
1.07902
1.07902
1.07903
1.07904
1.07906
1.07908
1.0791
1.07914
1.07918
1.07923
1.0793
1.07937
1.07946
1.07956
1.07967
1.07979
1.07993
1.08009
1.08025
1.08044
1.08063
1.08084
1.08106
1.0813
1.08156
1.08183
1.08212
1.08243
1.08275
1.0831
1.08348
1.08387
1.08428
1.08472
1.08518
1.08565
1.08615
1.08665
1.08717
1.0877
1.08823
1.08876
1.08928
1.0898
1.09031
1.0908
1.09127
1.09172
1.09215
1.09255
1.09293
1.09328
1.0936
1.09389
1.09416
1.0944
1.09462
1.09482
1.09499
1.09514
1.09528
1.0954
1.09551
1.0956
1.09568
1.09575
1.09582
1.09587
1.09592
1.09597
1.09601
1.09604
1.09608
1.09611
1.09613
1.09616
1.09619
1.09621
1.09624
1.09627
1.0963
1.09634
1.09638
1.09642
1.09647
1.09653
1.0966
1.09667
1.09676
1.09685
1.09696
1.09707
1.09719
1.09732
1.09746
1.09761
1.09777
1.09794
1.09811
1.09829
1.09848
1.09867
1.09887
1.09908
1.09929
1.09951
1.09974
1.09997
1.10021
1.10046
1.10071
1.10098
1.10127
1.10156
1.10187
1.1022
1.10254
1.1029
1.10328
1.10368
1.1041
1.10455
1.10501
1.10549
1.10599
1.1065
1.10703
1.10756
1.1081
1.10864
1.10916
1.10967
1.11014
1.11058
1.11095
1.11124
1.11145
1.11154
1.11151
1.11134
1.11102
1.11055
1.10994
1.10919
1.10833
1.10738
1.10636
1.1053
1.10421
1.10311
1.102
1.10087
1.09971
1.0985
1.09721
1.09582
1.09432
1.09269
1.09094
1.08909
1.08714
1.08514
1.08311
1.08108
1.0791
1.0772
1.07539
1.07371
1.07217
1.07078
1.06955
1.06848
1.06758
1.06683
1.06624
1.06579
1.06547
1.06527
1.06518
1.06517
1.06525
1.06539
1.06558
1.06583
1.06611
1.06642
1.06676
1.06711
1.06748
1.06786
1.06824
1.06863
1.068
1.06828
1.06857
1.06886
1.06915
1.06945
1.06976
1.07007
1.07038
1.07069
1.071
1.07131
1.07161
1.07192
1.07222
1.07252
1.07281
1.07309
1.07337
1.07364
1.07391
1.07416
1.07441
1.07465
1.07488
1.07511
1.07532
1.07553
1.07572
1.07591
1.0761
1.07627
1.07644
1.07661
1.07677
1.07692
1.07707
1.07722
1.07737
1.07751
1.07766
1.0778
1.07795
1.0781
1.07826
1.07842
1.07859
1.07876
1.07894
1.07912
1.07932
1.07952
1.07973
1.07995
1.08018
1.08042
1.08067
1.08093
1.08119
1.08146
1.08174
1.08203
1.08232
1.08262
1.08293
1.08324
1.08356
1.08388
1.08421
1.08455
1.08489
1.08524
1.08559
1.08595
1.08631
1.08668
1.08706
1.08744
1.08782
1.08822
1.08862
1.08902
1.08942
1.08983
1.09024
1.09064
1.09104
1.09144
1.09183
1.0922
1.09256
1.09291
1.09324
1.09354
1.09383
1.09408
1.09432
1.09452
1.09469
1.09484
1.09495
1.09504
1.0951
1.09514
1.09516
1.09515
1.09512
1.09508
1.09502
1.09495
1.09486
1.09477
1.09466
1.09455
1.09444
1.09432
1.09419
1.09406
1.09392
1.09379
1.09365
1.0935
1.09336
1.09321
1.09306
1.09291
1.09275
1.0926
1.09244
1.09228
1.09212
1.09195
1.09179
1.09162
1.09146
1.09129
1.09112
1.09095
1.09078
1.0906
1.09043
1.09026
1.09009
1.08992
1.08974
1.08957
1.0894
1.08923
1.08906
1.08889
1.08872
1.08855
1.08838
1.08821
1.08804
1.08787
1.0877
1.08754
1.08737
1.0872
1.08703
1.08686
1.0867
1.08653
1.08636
1.08618
1.08601
1.08583
1.08565
1.08547
1.08528
1.08509
1.08489
1.08469
1.08449
1.08427
1.08406
1.08383
1.08361
1.08338
1.08314
1.08291
1.08267
1.08243
1.0822
1.08196
1.08173
1.08151
1.08129
1.08108
1.08088
1.08069
1.08051
1.08034
1.08018
1.08004
1.07991
1.07979
1.07969
1.0796
1.07952
1.07945
1.0794
1.07935
1.07931
1.07928
1.07926
1.07924
1.07923
1.07922
1.07922
1.07922
1.07923
1.07924
1.07926
1.07929
1.07932
1.07937
1.07942
1.07949
1.07957
1.07966
1.07977
1.07989
1.08002
1.08017
1.08033
1.0805
1.08069
1.0809
1.08112
1.08135
1.08161
1.08187
1.08216
1.08247
1.0828
1.08314
1.08351
1.08391
1.08432
1.08475
1.08521
1.08568
1.08617
1.08667
1.08719
1.08771
1.08824
1.08876
1.08928
1.0898
1.0903
1.09079
1.09126
1.09171
1.09213
1.09253
1.09291
1.09326
1.09358
1.09387
1.09414
1.09438
1.0946
1.0948
1.09497
1.09513
1.09526
1.09539
1.09549
1.09559
1.09567
1.09574
1.09581
1.09586
1.09591
1.09596
1.096
1.09604
1.09607
1.0961
1.09613
1.09616
1.09619
1.09621
1.09624
1.09627
1.09631
1.09635
1.09639
1.09644
1.09649
1.09655
1.09662
1.09669
1.09678
1.09687
1.09698
1.09709
1.09721
1.09735
1.09749
1.09764
1.09779
1.09796
1.09813
1.09831
1.0985
1.09869
1.09889
1.0991
1.09931
1.09953
1.09975
1.09999
1.10023
1.10048
1.10074
1.10101
1.10129
1.10159
1.1019
1.10222
1.10256
1.10293
1.1033
1.1037
1.10412
1.10456
1.10502
1.10549
1.10599
1.1065
1.10701
1.10754
1.10807
1.1086
1.10911
1.10961
1.11007
1.11049
1.11084
1.11112
1.11131
1.11138
1.11133
1.11113
1.11079
1.1103
1.10967
1.1089
1.10803
1.10706
1.10602
1.10494
1.10384
1.10272
1.10158
1.10044
1.09926
1.09803
1.09672
1.09533
1.09384
1.09224
1.09054
1.08875
1.08688
1.08497
1.08304
1.08112
1.07924
1.07743
1.07571
1.07409
1.0726
1.07124
1.07003
1.06896
1.06805
1.06728
1.06666
1.06618
1.06582
1.06558
1.06545
1.06541
1.06545
1.06556
1.06573
1.06595
1.06621
1.0665
1.06682
1.06716
1.06752
1.06789
1.06826
1.06865
1.06848
1.06877
1.06906
1.06936
1.06966
1.06996
1.07027
1.07058
1.0709
1.07121
1.07152
1.07183
1.07214
1.07245
1.07275
1.07304
1.07334
1.07362
1.0739
1.07417
1.07443
1.07468
1.07493
1.07516
1.07539
1.07561
1.07582
1.07602
1.07622
1.0764
1.07658
1.07675
1.07692
1.07708
1.07723
1.07739
1.07753
1.07768
1.07782
1.07796
1.07811
1.07825
1.07839
1.07854
1.07869
1.07885
1.07901
1.07918
1.07935
1.07954
1.07972
1.07992
1.08013
1.08034
1.08056
1.08079
1.08103
1.08128
1.08153
1.0818
1.08207
1.08234
1.08263
1.08292
1.08321
1.08351
1.08382
1.08414
1.08446
1.08478
1.08511
1.08545
1.08579
1.08613
1.08649
1.08684
1.08721
1.08758
1.08795
1.08833
1.08872
1.08911
1.0895
1.08989
1.09029
1.09068
1.09107
1.09146
1.09183
1.0922
1.09255
1.09289
1.09321
1.09351
1.09379
1.09405
1.09427
1.09447
1.09465
1.09479
1.09491
1.095
1.09507
1.09511
1.09513
1.09513
1.09511
1.09507
1.09502
1.09496
1.09489
1.0948
1.09471
1.09461
1.0945
1.09439
1.09428
1.09416
1.09403
1.09391
1.09378
1.09365
1.09351
1.09337
1.09323
1.09309
1.09295
1.0928
1.09265
1.0925
1.09235
1.0922
1.09204
1.09189
1.09173
1.09157
1.09141
1.09125
1.09109
1.09093
1.09076
1.0906
1.09044
1.09028
1.09011
1.08995
1.08979
1.08962
1.08946
1.0893
1.08914
1.08897
1.08881
1.08865
1.08849
1.08832
1.08816
1.088
1.08784
1.08768
1.08751
1.08735
1.08719
1.08702
1.08686
1.08669
1.08652
1.08635
1.08617
1.086
1.08581
1.08563
1.08544
1.08524
1.08504
1.08483
1.08462
1.0844
1.08417
1.08395
1.08372
1.08348
1.08325
1.08301
1.08277
1.08254
1.08231
1.08208
1.08186
1.08164
1.08144
1.08124
1.08105
1.08087
1.08071
1.08055
1.08041
1.08028
1.08016
1.08006
1.07997
1.07988
1.07981
1.07975
1.0797
1.07965
1.07961
1.07958
1.07955
1.07953
1.07951
1.0795
1.07949
1.07949
1.0795
1.07952
1.07954
1.07957
1.07962
1.07967
1.07974
1.07982
1.07992
1.08003
1.08015
1.08029
1.08044
1.08061
1.08079
1.08099
1.0812
1.08143
1.08168
1.08195
1.08223
1.08253
1.08286
1.0832
1.08357
1.08396
1.08437
1.0848
1.08526
1.08573
1.08621
1.08671
1.08722
1.08774
1.08826
1.08879
1.0893
1.08981
1.09031
1.0908
1.09126
1.09171
1.09213
1.09253
1.0929
1.09325
1.09357
1.09386
1.09413
1.09437
1.09459
1.09478
1.09496
1.09511
1.09525
1.09537
1.09548
1.09557
1.09565
1.09573
1.09579
1.09585
1.0959
1.09595
1.09599
1.09603
1.09606
1.09609
1.09612
1.09615
1.09618
1.09621
1.09625
1.09628
1.09632
1.09636
1.0964
1.09645
1.09651
1.09657
1.09664
1.09672
1.09681
1.0969
1.09701
1.09712
1.09724
1.09738
1.09752
1.09767
1.09782
1.09799
1.09816
1.09834
1.09852
1.09872
1.09892
1.09912
1.09934
1.09955
1.09978
1.10001
1.10026
1.10051
1.10077
1.10104
1.10132
1.10162
1.10193
1.10226
1.1026
1.10296
1.10334
1.10374
1.10415
1.10459
1.10504
1.10551
1.106
1.1065
1.10701
1.10753
1.10805
1.10856
1.10906
1.10955
1.10999
1.1104
1.11074
1.111
1.11116
1.11121
1.11114
1.11092
1.11055
1.11003
1.10937
1.10858
1.10767
1.10667
1.1056
1.10449
1.10335
1.1022
1.10103
1.09984
1.09863
1.09737
1.09606
1.09466
1.09319
1.09162
1.08998
1.08827
1.0865
1.08471
1.0829
1.08112
1.07937
1.07768
1.07606
1.07453
1.07311
1.0718
1.07062
1.06957
1.06865
1.06787
1.06721
1.06669
1.06629
1.06601
1.06582
1.06574
1.06573
1.0658
1.06593
1.06612
1.06635
1.06662
1.06691
1.06724
1.06758
1.06794
1.06831
1.06869
1.06912
1.06941
1.06972
1.07002
1.07033
1.07064
1.07095
1.07127
1.07158
1.0719
1.07221
1.07252
1.07283
1.07314
1.07344
1.07373
1.07402
1.0743
1.07457
1.07484
1.0751
1.07534
1.07558
1.07582
1.07604
1.07625
1.07646
1.07665
1.07684
1.07702
1.07719
1.07736
1.07752
1.07768
1.07783
1.07797
1.07812
1.07826
1.07839
1.07853
1.07867
1.07881
1.07895
1.07909
1.07924
1.07939
1.07954
1.07971
1.07987
1.08005
1.08023
1.08042
1.08061
1.08082
1.08103
1.08125
1.08148
1.08172
1.08196
1.08221
1.08247
1.08273
1.083
1.08328
1.08357
1.08385
1.08415
1.08445
1.08476
1.08507
1.08538
1.08571
1.08603
1.08637
1.0867
1.08705
1.0874
1.08775
1.08811
1.08848
1.08885
1.08922
1.0896
1.08998
1.09036
1.09074
1.09112
1.09149
1.09186
1.09222
1.09256
1.09289
1.09321
1.0935
1.09377
1.09402
1.09425
1.09445
1.09462
1.09477
1.09489
1.09498
1.09505
1.0951
1.09513
1.09513
1.09512
1.09509
1.09505
1.095
1.09494
1.09486
1.09478
1.0947
1.0946
1.0945
1.0944
1.0943
1.09418
1.09407
1.09395
1.09383
1.09371
1.09359
1.09346
1.09333
1.0932
1.09306
1.09293
1.09279
1.09265
1.09251
1.09236
1.09222
1.09207
1.09192
1.09178
1.09163
1.09148
1.09133
1.09118
1.09103
1.09088
1.09073
1.09057
1.09042
1.09027
1.09012
1.08996
1.08981
1.08966
1.08951
1.08935
1.0892
1.08904
1.08889
1.08874
1.08858
1.08843
1.08827
1.08812
1.08796
1.0878
1.08765
1.08749
1.08733
1.08717
1.087
1.08683
1.08666
1.08649
1.08631
1.08612
1.08593
1.08573
1.08553
1.08533
1.08511
1.08489
1.08467
1.08444
1.08421
1.08398
1.08375
1.08351
1.08328
1.08304
1.08281
1.08259
1.08237
1.08216
1.08195
1.08175
1.08157
1.08139
1.08122
1.08107
1.08093
1.08079
1.08067
1.08056
1.08046
1.08037
1.08029
1.08022
1.08015
1.08009
1.08004
1.07999
1.07995
1.07992
1.07989
1.07986
1.07985
1.07984
1.07984
1.07985
1.07986
1.07989
1.07994
1.07999
1.08006
1.08014
1.08023
1.08034
1.08047
1.08061
1.08076
1.08094
1.08112
1.08133
1.08155
1.08179
1.08205
1.08233
1.08263
1.08295
1.08329
1.08366
1.08404
1.08445
1.08488
1.08533
1.0858
1.08628
1.08678
1.08728
1.0878
1.08831
1.08883
1.08934
1.08985
1.09034
1.09082
1.09128
1.09172
1.09214
1.09254
1.09291
1.09325
1.09357
1.09386
1.09412
1.09436
1.09458
1.09477
1.09495
1.0951
1.09524
1.09536
1.09546
1.09556
1.09564
1.09571
1.09578
1.09583
1.09588
1.09593
1.09597
1.09601
1.09605
1.09608
1.09612
1.09615
1.09618
1.09621
1.09625
1.09629
1.09633
1.09637
1.09642
1.09647
1.09653
1.0966
1.09667
1.09675
1.09684
1.09694
1.09705
1.09716
1.09728
1.09742
1.09756
1.0977
1.09786
1.09802
1.0982
1.09837
1.09856
1.09875
1.09895
1.09916
1.09937
1.09959
1.09982
1.10005
1.1003
1.10055
1.10081
1.10108
1.10137
1.10167
1.10198
1.10231
1.10265
1.10301
1.10339
1.10378
1.10419
1.10462
1.10507
1.10554
1.10602
1.10651
1.10701
1.10752
1.10802
1.10853
1.10902
1.10948
1.10992
1.1103
1.11062
1.11086
1.111
1.11103
1.11092
1.11067
1.11027
1.10972
1.10903
1.1082
1.10725
1.10621
1.1051
1.10394
1.10276
1.10155
1.10034
1.09911
1.09786
1.09657
1.09523
1.09384
1.09238
1.09086
1.08929
1.08767
1.08602
1.08436
1.08271
1.08108
1.07948
1.07793
1.07644
1.07503
1.07369
1.07245
1.07131
1.07028
1.06936
1.06856
1.06788
1.06732
1.06687
1.06653
1.06629
1.06615
1.06609
1.06611
1.0662
1.06634
1.06654
1.06677
1.06704
1.06734
1.06767
1.06801
1.06837
1.06874
1.06992
1.07023
1.07054
1.07085
1.07116
1.07148
1.07179
1.07211
1.07243
1.07274
1.07305
1.07336
1.07367
1.07397
1.07426
1.07455
1.07484
1.07511
1.07538
1.07564
1.07589
1.07613
1.07636
1.07659
1.0768
1.07701
1.0772
1.07739
1.07757
1.07774
1.07791
1.07807
1.07822
1.07837
1.07852
1.07865
1.07879
1.07893
1.07906
1.07919
1.07932
1.07945
1.07959
1.07973
1.07987
1.08001
1.08016
1.08031
1.08047
1.08064
1.08081
1.08099
1.08118
1.08137
1.08157
1.08178
1.082
1.08222
1.08245
1.08269
1.08293
1.08318
1.08344
1.0837
1.08397
1.08425
1.08453
1.08481
1.0851
1.0854
1.0857
1.08601
1.08632
1.08663
1.08696
1.08728
1.08762
1.08795
1.0883
1.08865
1.089
1.08936
1.08972
1.09008
1.09045
1.09081
1.09117
1.09153
1.09189
1.09223
1.09257
1.09289
1.0932
1.09349
1.09376
1.09401
1.09423
1.09443
1.0946
1.09475
1.09488
1.09497
1.09505
1.0951
1.09513
1.09515
1.09515
1.09513
1.0951
1.09506
1.095
1.09495
1.09488
1.09481
1.09473
1.09464
1.09456
1.09446
1.09437
1.09427
1.09417
1.09406
1.09395
1.09384
1.09373
1.09361
1.09349
1.09337
1.09325
1.09312
1.093
1.09287
1.09274
1.09261
1.09247
1.09234
1.0922
1.09207
1.09193
1.0918
1.09166
1.09152
1.09138
1.09124
1.09111
1.09097
1.09083
1.09069
1.09054
1.0904
1.09026
1.09012
1.08997
1.08983
1.08969
1.08954
1.0894
1.08925
1.0891
1.08896
1.08881
1.08866
1.08852
1.08837
1.08822
1.08807
1.08791
1.08776
1.0876
1.08743
1.08727
1.0871
1.08692
1.08674
1.08655
1.08636
1.08616
1.08595
1.08574
1.08553
1.0853
1.08508
1.08485
1.08462
1.08439
1.08415
1.08392
1.08369
1.08346
1.08324
1.08302
1.08281
1.08261
1.08241
1.08222
1.08205
1.08188
1.08172
1.08157
1.08143
1.0813
1.08118
1.08107
1.08097
1.08087
1.08079
1.0807
1.08063
1.08056
1.0805
1.08044
1.08039
1.08035
1.08031
1.08028
1.08026
1.08025
1.08025
1.08026
1.08029
1.08032
1.08037
1.08043
1.08051
1.08061
1.08071
1.08084
1.08098
1.08113
1.08131
1.0815
1.08171
1.08194
1.08219
1.08246
1.08276
1.08307
1.08341
1.08377
1.08415
1.08456
1.08498
1.08543
1.08589
1.08637
1.08686
1.08736
1.08787
1.08838
1.0889
1.0894
1.0899
1.09039
1.09086
1.09132
1.09175
1.09217
1.09256
1.09292
1.09326
1.09357
1.09386
1.09412
1.09436
1.09457
1.09476
1.09494
1.09509
1.09522
1.09534
1.09545
1.09554
1.09562
1.09569
1.09576
1.09582
1.09587
1.09591
1.09596
1.096
1.09603
1.09607
1.09611
1.09614
1.09618
1.09621
1.09625
1.09629
1.09634
1.09639
1.09644
1.0965
1.09656
1.09663
1.09671
1.09679
1.09688
1.09698
1.09709
1.09721
1.09733
1.09746
1.0976
1.09775
1.09791
1.09807
1.09824
1.09842
1.0986
1.0988
1.099
1.0992
1.09941
1.09963
1.09986
1.1001
1.10034
1.1006
1.10086
1.10114
1.10143
1.10173
1.10204
1.10237
1.10271
1.10307
1.10344
1.10384
1.10425
1.10467
1.10511
1.10557
1.10604
1.10652
1.10701
1.10751
1.108
1.10849
1.10897
1.10942
1.10983
1.11019
1.11049
1.11071
1.11082
1.11082
1.11068
1.1104
1.10996
1.10937
1.10863
1.10775
1.10675
1.10566
1.1045
1.10329
1.10205
1.10079
1.09952
1.09824
1.09694
1.09562
1.09427
1.09288
1.09145
1.08999
1.0885
1.08699
1.08548
1.08397
1.08248
1.08101
1.07958
1.07819
1.07684
1.07555
1.07432
1.07316
1.07207
1.07107
1.07017
1.06936
1.06865
1.06805
1.06755
1.06715
1.06686
1.06665
1.06654
1.0665
1.06653
1.06663
1.06678
1.06698
1.06721
1.06748
1.06778
1.0681
1.06845
1.0688
1.07089
1.07121
1.07152
1.07184
1.07215
1.07247
1.07279
1.0731
1.07341
1.07372
1.07403
1.07433
1.07463
1.07493
1.07521
1.07549
1.07577
1.07603
1.07629
1.07654
1.07678
1.07701
1.07723
1.07744
1.07765
1.07784
1.07803
1.07821
1.07838
1.07854
1.0787
1.07885
1.07899
1.07913
1.07927
1.0794
1.07953
1.07966
1.07978
1.07991
1.08003
1.08016
1.08028
1.08041
1.08055
1.08068
1.08082
1.08097
1.08112
1.08128
1.08144
1.08161
1.08179
1.08197
1.08216
1.08236
1.08256
1.08277
1.08299
1.08321
1.08344
1.08367
1.08391
1.08416
1.08441
1.08467
1.08494
1.0852
1.08548
1.08576
1.08604
1.08633
1.08662
1.08692
1.08722
1.08753
1.08785
1.08817
1.08849
1.08882
1.08916
1.08949
1.08984
1.09018
1.09053
1.09088
1.09123
1.09158
1.09192
1.09225
1.09258
1.09289
1.0932
1.09348
1.09375
1.09399
1.09422
1.09441
1.09459
1.09474
1.09487
1.09497
1.09505
1.09511
1.09515
1.09517
1.09518
1.09517
1.09515
1.09512
1.09508
1.09504
1.09499
1.09493
1.09487
1.0948
1.09473
1.09465
1.09457
1.09449
1.0944
1.09432
1.09422
1.09413
1.09403
1.09392
1.09382
1.09371
1.0936
1.09349
1.09338
1.09326
1.09315
1.09303
1.09291
1.09279
1.09267
1.09255
1.09243
1.0923
1.09218
1.09206
1.09193
1.09181
1.09168
1.09155
1.09143
1.0913
1.09117
1.09104
1.09091
1.09078
1.09064
1.09051
1.09038
1.09024
1.09011
1.08997
1.08984
1.0897
1.08957
1.08943
1.08929
1.08915
1.08901
1.08887
1.08873
1.08858
1.08843
1.08828
1.08813
1.08796
1.0878
1.08763
1.08745
1.08727
1.08708
1.08688
1.08668
1.08648
1.08626
1.08605
1.08582
1.0856
1.08537
1.08514
1.08491
1.08468
1.08446
1.08423
1.08401
1.0838
1.08359
1.08339
1.08319
1.083
1.08282
1.08265
1.08249
1.08233
1.08218
1.08204
1.08191
1.08179
1.08167
1.08156
1.08146
1.08136
1.08127
1.08118
1.0811
1.08103
1.08096
1.0809
1.08085
1.08081
1.08078
1.08076
1.08074
1.08075
1.08076
1.08079
1.08083
1.08088
1.08095
1.08104
1.08114
1.08127
1.0814
1.08156
1.08174
1.08193
1.08215
1.08239
1.08265
1.08293
1.08324
1.08357
1.08392
1.0843
1.0847
1.08512
1.08556
1.08602
1.08649
1.08698
1.08747
1.08797
1.08848
1.08898
1.08948
1.08998
1.09046
1.09092
1.09137
1.0918
1.09221
1.09259
1.09295
1.09328
1.09359
1.09387
1.09413
1.09436
1.09457
1.09476
1.09493
1.09508
1.09521
1.09533
1.09543
1.09553
1.09561
1.09568
1.09574
1.0958
1.09585
1.0959
1.09594
1.09598
1.09602
1.09606
1.0961
1.09613
1.09617
1.09621
1.09626
1.0963
1.09635
1.0964
1.09646
1.09653
1.09659
1.09667
1.09675
1.09684
1.09693
1.09703
1.09714
1.09726
1.09739
1.09752
1.09766
1.09781
1.09796
1.09812
1.09829
1.09847
1.09866
1.09885
1.09905
1.09925
1.09947
1.09969
1.09992
1.10016
1.1004
1.10066
1.10093
1.1012
1.10149
1.10179
1.10211
1.10244
1.10278
1.10314
1.10351
1.1039
1.10431
1.10473
1.10516
1.10561
1.10607
1.10654
1.10702
1.1075
1.10798
1.10846
1.10891
1.10934
1.10973
1.11007
1.11035
1.11053
1.11062
1.11058
1.1104
1.11008
1.1096
1.10896
1.10816
1.10723
1.10618
1.10503
1.10381
1.10253
1.10123
1.09991
1.09858
1.09725
1.09591
1.09456
1.0932
1.09182
1.09044
1.08904
1.08764
1.08626
1.08488
1.08354
1.08222
1.08093
1.07967
1.07845
1.07725
1.0761
1.07498
1.07391
1.07289
1.07193
1.07104
1.07023
1.0695
1.06887
1.06832
1.06787
1.06751
1.06724
1.06706
1.06696
1.06693
1.06697
1.06707
1.06723
1.06742
1.06766
1.06793
1.06822
1.06854
1.06888
1.07202
1.07234
1.07265
1.07297
1.07328
1.0736
1.07391
1.07422
1.07452
1.07482
1.07512
1.07541
1.0757
1.07598
1.07626
1.07652
1.07678
1.07703
1.07728
1.07751
1.07774
1.07795
1.07816
1.07836
1.07855
1.07873
1.0789
1.07907
1.07923
1.07938
1.07952
1.07966
1.0798
1.07993
1.08005
1.08018
1.0803
1.08042
1.08053
1.08065
1.08077
1.08088
1.081
1.08113
1.08125
1.08138
1.08151
1.08165
1.08179
1.08194
1.08209
1.08225
1.08242
1.08259
1.08276
1.08295
1.08314
1.08333
1.08354
1.08374
1.08396
1.08418
1.0844
1.08463
1.08487
1.08511
1.08536
1.08561
1.08586
1.08612
1.08639
1.08666
1.08693
1.08721
1.0875
1.08779
1.08808
1.08838
1.08869
1.08899
1.08931
1.08963
1.08995
1.09028
1.09061
1.09094
1.09127
1.09161
1.09194
1.09226
1.09258
1.09289
1.09318
1.09346
1.09373
1.09397
1.09419
1.09439
1.09457
1.09473
1.09486
1.09496
1.09505
1.09511
1.09516
1.09519
1.09521
1.09521
1.09521
1.09519
1.09517
1.09514
1.0951
1.09506
1.09502
1.09497
1.09491
1.09485
1.09479
1.09473
1.09466
1.09458
1.09451
1.09443
1.09434
1.09425
1.09416
1.09407
1.09398
1.09388
1.09378
1.09368
1.09357
1.09347
1.09336
1.09326
1.09315
1.09304
1.09294
1.09283
1.09272
1.09261
1.0925
1.09238
1.09227
1.09216
1.09204
1.09193
1.09181
1.0917
1.09158
1.09146
1.09134
1.09121
1.09109
1.09097
1.09084
1.09072
1.09059
1.09047
1.09034
1.09022
1.09009
1.08996
1.08983
1.0897
1.08957
1.08944
1.0893
1.08916
1.08902
1.08887
1.08872
1.08856
1.0884
1.08823
1.08805
1.08787
1.08768
1.08748
1.08728
1.08708
1.08686
1.08665
1.08643
1.08621
1.08598
1.08576
1.08554
1.08532
1.0851
1.08488
1.08467
1.08447
1.08427
1.08407
1.08388
1.0837
1.08352
1.08335
1.08319
1.08303
1.08288
1.08274
1.0826
1.08247
1.08235
1.08223
1.08211
1.082
1.0819
1.0818
1.08171
1.08163
1.08156
1.08149
1.08143
1.08139
1.08135
1.08133
1.08131
1.08131
1.08133
1.08136
1.08141
1.08147
1.08155
1.08164
1.08176
1.08189
1.08205
1.08223
1.08242
1.08265
1.08289
1.08316
1.08346
1.08378
1.08412
1.08449
1.08488
1.08529
1.08572
1.08618
1.08664
1.08712
1.08761
1.0881
1.0886
1.0891
1.08959
1.09007
1.09055
1.091
1.09145
1.09187
1.09227
1.09264
1.09299
1.09332
1.09362
1.0939
1.09415
1.09438
1.09458
1.09477
1.09493
1.09508
1.09521
1.09532
1.09542
1.09551
1.09559
1.09566
1.09572
1.09578
1.09583
1.09588
1.09592
1.09596
1.096
1.09605
1.09609
1.09613
1.09617
1.09621
1.09626
1.09631
1.09637
1.09643
1.09649
1.09656
1.09663
1.09671
1.0968
1.09689
1.09698
1.09709
1.0972
1.09732
1.09745
1.09758
1.09772
1.09787
1.09802
1.09819
1.09836
1.09853
1.09872
1.09891
1.09911
1.09932
1.09953
1.09975
1.09998
1.10022
1.10047
1.10073
1.101
1.10128
1.10157
1.10187
1.10219
1.10252
1.10286
1.10322
1.10359
1.10398
1.10438
1.10479
1.10522
1.10566
1.10611
1.10657
1.10703
1.1075
1.10796
1.10841
1.10885
1.10926
1.10962
1.10994
1.11018
1.11033
1.11038
1.1103
1.11009
1.10971
1.10918
1.10848
1.10763
1.10663
1.10552
1.1043
1.10301
1.10167
1.1003
1.09891
1.09753
1.09615
1.09478
1.09341
1.09205
1.0907
1.08936
1.08804
1.08675
1.08549
1.08427
1.08309
1.08194
1.08083
1.07975
1.0787
1.07766
1.07665
1.07565
1.07468
1.07374
1.07283
1.07198
1.07117
1.07043
1.06977
1.06918
1.06867
1.06825
1.06791
1.06766
1.06749
1.0674
1.06738
1.06742
1.06753
1.06768
1.06787
1.06811
1.06837
1.06867
1.06898
1.07328
1.0736
1.07391
1.07423
1.07453
1.07484
1.07514
1.07544
1.07573
1.07602
1.0763
1.07657
1.07684
1.0771
1.07736
1.07761
1.07785
1.07808
1.0783
1.07852
1.07873
1.07892
1.07911
1.07929
1.07947
1.07963
1.07979
1.07994
1.08008
1.08022
1.08035
1.08048
1.0806
1.08072
1.08084
1.08095
1.08106
1.08117
1.08128
1.08139
1.08149
1.0816
1.08172
1.08183
1.08195
1.08207
1.08219
1.08232
1.08245
1.08259
1.08273
1.08288
1.08304
1.08319
1.08336
1.08353
1.08371
1.08389
1.08408
1.08427
1.08447
1.08467
1.08488
1.0851
1.08532
1.08554
1.08577
1.086
1.08624
1.08648
1.08673
1.08698
1.08724
1.0875
1.08776
1.08803
1.08831
1.08858
1.08887
1.08916
1.08945
1.08975
1.09005
1.09036
1.09067
1.09099
1.09131
1.09162
1.09194
1.09225
1.09256
1.09286
1.09315
1.09343
1.09369
1.09394
1.09416
1.09436
1.09454
1.0947
1.09484
1.09495
1.09504
1.09511
1.09517
1.09521
1.09524
1.09525
1.09526
1.09526
1.09525
1.09524
1.09522
1.09519
1.09517
1.09513
1.0951
1.09506
1.09501
1.09496
1.09491
1.09485
1.09479
1.09472
1.09466
1.09458
1.09451
1.09443
1.09435
1.09426
1.09418
1.09409
1.094
1.09391
1.09381
1.09372
1.09363
1.09353
1.09344
1.09334
1.09325
1.09315
1.09305
1.09295
1.09285
1.09275
1.09265
1.09255
1.09244
1.09234
1.09223
1.09212
1.09201
1.0919
1.09179
1.09168
1.09157
1.09145
1.09134
1.09122
1.09111
1.091
1.09088
1.09076
1.09065
1.09053
1.09041
1.09029
1.09017
1.09004
1.08991
1.08978
1.08964
1.0895
1.08935
1.08919
1.08903
1.08886
1.08869
1.08851
1.08832
1.08813
1.08793
1.08773
1.08752
1.08731
1.0871
1.08688
1.08667
1.08645
1.08624
1.08603
1.08582
1.08562
1.08542
1.08522
1.08503
1.08484
1.08466
1.08448
1.0843
1.08414
1.08397
1.08381
1.08366
1.08351
1.08336
1.08322
1.08309
1.08296
1.08284
1.08272
1.0826
1.0825
1.0824
1.08231
1.08223
1.08215
1.08209
1.08204
1.082
1.08197
1.08196
1.08196
1.08198
1.08201
1.08206
1.08213
1.08222
1.08233
1.08246
1.08261
1.08278
1.08299
1.08321
1.08346
1.08374
1.08405
1.08438
1.08473
1.08511
1.08551
1.08594
1.08638
1.08683
1.0873
1.08778
1.08827
1.08876
1.08924
1.08973
1.0902
1.09066
1.09111
1.09154
1.09195
1.09234
1.09271
1.09305
1.09337
1.09367
1.09394
1.09418
1.0944
1.0946
1.09478
1.09494
1.09508
1.09521
1.09532
1.09542
1.0955
1.09558
1.09565
1.09571
1.09576
1.09581
1.09586
1.09591
1.09595
1.09599
1.09603
1.09608
1.09612
1.09617
1.09622
1.09627
1.09633
1.09639
1.09645
1.09652
1.09659
1.09667
1.09676
1.09685
1.09694
1.09704
1.09715
1.09727
1.09739
1.09752
1.09765
1.09779
1.09794
1.0981
1.09826
1.09843
1.09861
1.09879
1.09898
1.09918
1.09939
1.0996
1.09983
1.10006
1.1003
1.10055
1.10081
1.10108
1.10136
1.10166
1.10196
1.10228
1.10261
1.10295
1.1033
1.10367
1.10406
1.10445
1.10486
1.10528
1.10571
1.10615
1.10659
1.10704
1.10749
1.10793
1.10836
1.10878
1.10916
1.1095
1.10978
1.10999
1.11011
1.11011
1.10999
1.10972
1.10929
1.10869
1.10793
1.10701
1.10595
1.10476
1.10347
1.10211
1.1007
1.09926
1.09782
1.09638
1.09496
1.09356
1.09219
1.09084
1.08953
1.08826
1.08703
1.08585
1.08473
1.08366
1.08264
1.08167
1.08073
1.07983
1.07894
1.07806
1.07719
1.07632
1.07545
1.0746
1.07376
1.07294
1.07216
1.07142
1.07073
1.0701
1.06955
1.06907
1.06867
1.06835
1.06811
1.06795
1.06786
1.06784
1.06788
1.06798
1.06813
1.06832
1.06855
1.06882
1.0691
1.07464
1.07496
1.07527
1.07557
1.07587
1.07616
1.07645
1.07673
1.077
1.07726
1.07752
1.07778
1.07802
1.07826
1.07849
1.07872
1.07893
1.07914
1.07934
1.07953
1.07971
1.07989
1.08006
1.08022
1.08037
1.08051
1.08065
1.08079
1.08091
1.08104
1.08115
1.08127
1.08138
1.08148
1.08159
1.08169
1.08179
1.08189
1.08199
1.08209
1.08219
1.08229
1.08239
1.0825
1.08261
1.08272
1.08284
1.08296
1.08308
1.08321
1.08334
1.08348
1.08362
1.08377
1.08392
1.08408
1.08425
1.08442
1.08459
1.08477
1.08495
1.08514
1.08534
1.08553
1.08574
1.08595
1.08616
1.08637
1.08659
1.08682
1.08705
1.08728
1.08752
1.08776
1.088
1.08825
1.08851
1.08877
1.08903
1.0893
1.08957
1.08985
1.09013
1.09042
1.09071
1.09101
1.09131
1.09162
1.09192
1.09223
1.09253
1.09282
1.09311
1.09338
1.09364
1.09389
1.09411
1.09432
1.0945
1.09467
1.09481
1.09493
1.09502
1.0951
1.09517
1.09522
1.09526
1.09529
1.0953
1.09532
1.09532
1.09533
1.09532
1.09532
1.09531
1.09529
1.09527
1.09525
1.09522
1.09519
1.09515
1.09511
1.09506
1.09501
1.09496
1.0949
1.09484
1.09477
1.0947
1.09463
1.09456
1.09448
1.0944
1.09432
1.09424
1.09416
1.09408
1.094
1.09391
1.09383
1.09375
1.09366
1.09357
1.09349
1.0934
1.09331
1.09322
1.09313
1.09304
1.09294
1.09285
1.09275
1.09265
1.09255
1.09245
1.09235
1.09225
1.09214
1.09204
1.09194
1.09183
1.09173
1.09163
1.09152
1.09142
1.09131
1.09121
1.0911
1.09099
1.09088
1.09076
1.09065
1.09052
1.0904
1.09026
1.09013