# vtk DataFile Version 2.0
LBE two cylinders
ASCII
DATASET STRUCTURED_POINTS
DIMENSIONS 400 100 1
ASPECT_RATIO 1 1 1
ORIGIN 0 0 0
POINT_DATA 40000
SCALARS rho double 1
LOOKUP_TABLE default
1.0798
1.07962
1.07941
1.07921
1.07901
1.07881
1.07863
1.07845
1.07829
1.07813
1.07799
1.07786
1.07775
1.07765
1.07757
1.0775
1.07745
1.07741
1.0774
1.0774
1.07741
1.07744
1.07749
1.07756
1.07764
1.07773
1.07785
1.07797
1.07811
1.07826
1.07843
1.0786
1.07878
1.07898
1.07918
1.07938
1.0796
1.07981
1.08003
1.08026
1.08049
1.08073
1.08097
1.08121
1.08146
1.08172
1.08198
1.08224
1.08252
1.0828
1.08308
1.08338
1.08368
1.08399
1.0843
1.08463
1.08496
1.0853
1.08564
1.08599
1.08635
1.08671
1.08707
1.08744
1.08781
1.08818
1.08855
1.08892
1.08929
1.08967
1.09005
1.09043
1.09081
1.09119
1.09158
1.09197
1.09237
1.09277
1.09318
1.0936
1.09401
1.09444
1.09487
1.0953
1.09573
1.09616
1.09659
1.09702
1.09744
1.09784
1.09824
1.09861
1.09897
1.0993
1.09961
1.09989
1.10015
1.10036
1.10055
1.1007
1.10082
1.1009
1.10095
1.10096
1.10095
1.1009
1.10082
1.10072
1.10059
1.10044
1.10027
1.10009
1.09988
1.09967
1.09944
1.09921
1.09896
1.09872
1.09847
1.09821
1.09795
1.09769
1.09744
1.09718
1.09692
1.09666
1.0964
1.09613
1.09587
1.09561
1.09535
1.09508
1.09482
1.09455
1.09428
1.09401
1.09375
1.09348
1.09321
1.09295
1.09269
1.09243
1.09218
1.09194
1.09171
1.0915
1.0913
1.09112
1.09095
1.09081
1.09069
1.09059
1.09052
1.09046
1.09043
1.09042
1.09043
1.09045
1.09049
1.09055
1.09061
1.09068
1.09076
1.09084
1.09092
1.09101
1.09109
1.09118
1.09127
1.09135
1.09144
1.09153
1.09163
1.09173
1.09183
1.09195
1.09206
1.09219
1.09232
1.09245
1.09259
1.09274
1.09288
1.09304
1.0932
1.09336
1.09353
1.09371
1.0939
1.09411
1.09433
1.09458
1.09486
1.09517
1.09552
1.0959
1.09633
1.0968
1.09731
1.09786
1.09844
1.09906
1.0997
1.10036
1.10103
1.1017
1.10236
1.10301
1.10364
1.10424
1.1048
1.10532
1.10579
1.10622
1.1066
1.10693
1.10721
1.10744
1.10763
1.10777
1.10788
1.10796
1.108
1.10802
1.10802
1.108
1.10797
1.10794
1.10789
1.10785
1.10781
1.10777
1.10774
1.10772
1.1077
1.10771
1.10772
1.10775
1.1078
1.10786
1.10795
1.10805
1.10817
1.1083
1.10846
1.10863
1.10882
1.10903
1.10925
1.10949
1.10974
1.11
1.11028
1.11056
1.11086
1.11116
1.11147
1.11179
1.11212
1.11246
1.11281
1.11316
1.11352
1.11389
1.11427
1.11466
1.11505
1.11545
1.11586
1.11628
1.11671
1.11714
1.11757
1.11801
1.11845
1.11889
1.11932
1.11976
1.12018
1.12059
1.12099
1.12136
1.12171
1.12202
1.12229
1.12251
1.12266
1.12275
1.12276
1.12267
1.12247
1.12215
1.1217
1.1211
1.12034
1.11941
1.11832
1.11705
1.11561
1.114
1.11225
1.11036
1.10837
1.1063
1.10419
1.10206
1.09995
1.0979
1.09593
1.09408
1.09237
1.0908
1.08941
1.08819
1.08715
1.08628
1.08558
1.08504
1.08466
1.08441
1.08429
1.08429
1.08438
1.08456
1.08483
1.08515
1.08554
1.08597
1.08645
1.08696
1.08751
1.08807
1.08866
1.08926
1.08987
1.09049
1.09111
1.09174
1.09236
1.09298
1.09359
1.09419
1.09478
1.09536
1.09592
1.09647
1.09701
1.09753
1.09804
1.09854
1.09903
1.0995
1.09998
1.10044
1.1009
1.10136
1.10182
1.10227
1.10273
1.10318
1.10364
1.10409
1.10455
1.105
1.10546
1.10591
1.10636
1.10681
1.10725
1.10768
1.1081
1.10851
1.10889
1.10925
1.10958
1.10985
1.11006
1.11018
1.11019
1.11005
1.10971
1.10913
1.10823
1.10697
1.10526
1.10307
1.10035
1.0971
1.09337
1.08923
1.08482
1.0803
1.07587
1.07169
1.0679
1.0646
1.06182
1.05956
1.05773
1.05632
1.07982
1.07962
1.07942
1.07922
1.07902
1.07883
1.07865
1.07847
1.07831
1.07815
1.07801
1.07789
1.07778
1.07768
1.0776
1.07753
1.07748
1.07744
1.07743
1.07743
1.07744
1.07747
1.07752
1.07759
1.07767
1.07777
1.07788
1.078
1.07814
1.07829
1.07845
1.07863
1.07881
1.079
1.0792
1.07941
1.07962
1.07984
1.08006
1.08028
1.08051
1.08075
1.08099
1.08123
1.08148
1.08174
1.082
1.08226
1.08254
1.08282
1.0831
1.0834
1.0837
1.084
1.08432
1.08464
1.08497
1.08531
1.08565
1.086
1.08635
1.08671
1.08707
1.08743
1.0878
1.08816
1.08853
1.08891
1.08928
1.08965
1.09003
1.09041
1.09079
1.09117
1.09156
1.09195
1.09235
1.09275
1.09316
1.09357
1.09399
1.09441
1.09483
1.09526
1.09569
1.09612
1.09654
1.09696
1.09737
1.09777
1.09816
1.09853
1.09888
1.09921
1.09951
1.09979
1.10004
1.10025
1.10043
1.10059
1.1007
1.10079
1.10084
1.10085
1.10084
1.1008
1.10072
1.10063
1.1005
1.10036
1.1002
1.10001
1.09982
1.09961
1.09939
1.09916
1.09892
1.09868
1.09843
1.09818
1.09792
1.09767
1.09741
1.09715
1.09689
1.09664
1.09638
1.09612
1.09586
1.0956
1.09533
1.09507
1.09481
1.09454
1.09428
1.09401
1.09374
1.09348
1.09321
1.09295
1.09269
1.09244
1.09219
1.09196
1.09173
1.09152
1.09132
1.09114
1.09098
1.09084
1.09072
1.09062
1.09054
1.09049
1.09045
1.09044
1.09045
1.09047
1.09051
1.09056
1.09062
1.09069
1.09076
1.09084
1.09093
1.09101
1.09109
1.09118
1.09127
1.09136
1.09144
1.09154
1.09163
1.09173
1.09184
1.09195
1.09206
1.09219
1.09232
1.09245
1.09259
1.09274
1.09288
1.09304
1.0932
1.09336
1.09354
1.09372
1.09391
1.09412
1.09435
1.0946
1.09488
1.09519
1.09554
1.09592
1.09635
1.09682
1.09732
1.09786
1.09844
1.09905
1.09968
1.10033
1.10099
1.10166
1.10231
1.10296
1.10358
1.10417
1.10473
1.10525
1.10573
1.10615
1.10653
1.10687
1.10715
1.10739
1.10758
1.10773
1.10784
1.10792
1.10797
1.108
1.108
1.10799
1.10797
1.10793
1.1079
1.10786
1.10782
1.10778
1.10776
1.10774
1.10773
1.10773
1.10775
1.10778
1.10783
1.1079
1.10798
1.10808
1.1082
1.10834
1.10849
1.10866
1.10885
1.10906
1.10928
1.10951
1.10976
1.11002
1.11029
1.11058
1.11087
1.11117
1.11149
1.11181
1.11214
1.11247
1.11282
1.11317
1.11353
1.1139
1.11428
1.11467
1.11506
1.11546
1.11587
1.11628
1.1167
1.11713
1.11755
1.11798
1.11842
1.11885
1.11927
1.11969
1.1201
1.1205
1.12087
1.12123
1.12155
1.12184
1.12208
1.12227
1.12239
1.12245
1.12242
1.12229
1.12206
1.1217
1.12122
1.1206
1.11982
1.11889
1.1178
1.11655
1.11515
1.11359
1.11191
1.1101
1.1082
1.10622
1.10421
1.10217
1.10016
1.09818
1.09629
1.09449
1.09281
1.09127
1.08989
1.08867
1.08761
1.08672
1.08599
1.08542
1.085
1.08471
1.08456
1.08451
1.08458
1.08473
1.08496
1.08526
1.08563
1.08604
1.0865
1.087
1.08753
1.08808
1.08866
1.08925
1.08986
1.09047
1.09109
1.09171
1.09233
1.09294
1.09355
1.09415
1.09474
1.09532
1.09588
1.09643
1.09696
1.09749
1.098
1.0985
1.09898
1.09946
1.09994
1.1004
1.10086
1.10132
1.10178
1.10223
1.10268
1.10314
1.10359
1.10404
1.1045
1.10495
1.1054
1.10585
1.10629
1.10674
1.10717
1.1076
1.10801
1.10841
1.10878
1.10913
1.10944
1.10969
1.10988
1.10998
1.10995
1.10977
1.10939
1.10876
1.10782
1.10651
1.10477
1.10256
1.09986
1.09666
1.093
1.08898
1.08472
1.08037
1.07609
1.07204
1.06835
1.06509
1.06231
1.06001
1.05813
1.05661
1.07985
1.07964
1.07944
1.07924
1.07905
1.07886
1.07868
1.07851
1.07834
1.07819
1.07805
1.07793
1.07782
1.07772
1.07764
1.07757
1.07752
1.07749
1.07747
1.07747
1.07749
1.07752
1.07757
1.07763
1.07771
1.07781
1.07792
1.07804
1.07818
1.07833
1.07849
1.07866
1.07884
1.07903
1.07923
1.07943
1.07964
1.07986
1.08008
1.0803
1.08053
1.08077
1.08101
1.08125
1.0815
1.08175
1.08201
1.08228
1.08255
1.08283
1.08312
1.08341
1.08371
1.08402
1.08433
1.08465
1.08498
1.08531
1.08564
1.08599
1.08634
1.08669
1.08704
1.0874
1.08776
1.08813
1.0885
1.08886
1.08924
1.08961
1.08998
1.09036
1.09075
1.09113
1.09152
1.09191
1.09231
1.09271
1.09312
1.09353
1.09395
1.09437
1.09479
1.09521
1.09564
1.09606
1.09648
1.0969
1.09731
1.0977
1.09809
1.09845
1.0988
1.09912
1.09943
1.0997
1.09994
1.10016
1.10034
1.10049
1.10061
1.10069
1.10074
1.10076
1.10075
1.10071
1.10064
1.10055
1.10043
1.10029
1.10013
1.09995
1.09976
1.09956
1.09934
1.09911
1.09888
1.09864
1.09839
1.09815
1.09789
1.09764
1.09739
1.09713
1.09687
1.09662
1.09636
1.0961
1.09584
1.09558
1.09532
1.09506
1.0948
1.09453
1.09427
1.094
1.09374
1.09347
1.09321
1.09295
1.09269
1.09244
1.0922
1.09197
1.09174
1.09153
1.09134
1.09116
1.091
1.09086
1.09074
1.09064
1.09057
1.09051
1.09048
1.09046
1.09047
1.09049
1.09052
1.09057
1.09063
1.0907
1.09077
1.09085
1.09093
1.09101
1.09109
1.09118
1.09127
1.09135
1.09144
1.09153
1.09163
1.09173
1.09183
1.09194
1.09206
1.09218
1.09231
1.09244
1.09258
1.09273
1.09288
1.09304
1.0932
1.09336
1.09354
1.09372
1.09392
1.09413
1.09436
1.09462
1.0949
1.09521
1.09556
1.09595
1.09637
1.09683
1.09733
1.09787
1.09844
1.09904
1.09967
1.10031
1.10096
1.10162
1.10226
1.1029
1.10352
1.1041
1.10466
1.10518
1.10565
1.10608
1.10646
1.10679
1.10708
1.10732
1.10752
1.10767
1.10779
1.10788
1.10794
1.10797
1.10798
1.10797
1.10796
1.10793
1.1079
1.10787
1.10783
1.1078
1.10778
1.10777
1.10776
1.10777
1.10779
1.10783
1.10788
1.10795
1.10803
1.10813
1.10825
1.10839
1.10854
1.10871
1.1089
1.1091
1.10932
1.10955
1.1098
1.11006
1.11033
1.11061
1.11091
1.11121
1.11152
1.11184
1.11217
1.11251
1.11285
1.11321
1.11357
1.11394
1.11431
1.1147
1.11509
1.11548
1.11589
1.11629
1.11671
1.11712
1.11754
1.11796
1.11838
1.11879
1.1192
1.1196
1.11998
1.12035
1.12069
1.12101
1.1213
1.12154
1.12173
1.12187
1.12194
1.12194
1.12185
1.12166
1.12136
1.12095
1.12042
1.11976
1.11895
1.11801
1.11693
1.11571
1.11436
1.11289
1.1113
1.10961
1.10785
1.10602
1.10416
1.10228
1.10041
1.09857
1.09679
1.09509
1.09348
1.09199
1.09063
1.08941
1.08834
1.08742
1.08666
1.08604
1.08556
1.08522
1.085
1.08491
1.08491
1.08502
1.0852
1.08547
1.08579
1.08618
1.08661
1.08708
1.08759
1.08813
1.08869
1.08927
1.08986
1.09046
1.09107
1.09169
1.0923
1.09291
1.09352
1.09411
1.0947
1.09527
1.09583
1.09638
1.09692
1.09744
1.09795
1.09845
1.09894
1.09942
1.09989
1.10036
1.10082
1.10128
1.10173
1.10219
1.10264
1.10309
1.10354
1.10399
1.10444
1.10489
1.10533
1.10578
1.10622
1.10665
1.10708
1.1075
1.1079
1.10829
1.10865
1.10899
1.10928
1.10951
1.10967
1.10973
1.10967
1.10945
1.10902
1.10834
1.10735
1.106
1.10424
1.10202
1.09933
1.09617
1.0926
1.08869
1.08456
1.08036
1.07624
1.07232
1.06874
1.06555
1.06279
1.06046
1.05853
1.05693
1.07989
1.07968
1.07948
1.07928
1.07909
1.0789
1.07872
1.07855
1.07839
1.07824
1.07811
1.07798
1.07787
1.07778
1.07769
1.07763
1.07758
1.07755
1.07753
1.07753
1.07754
1.07757
1.07762
1.07769
1.07777
1.07786
1.07797
1.07809
1.07823
1.07837
1.07853
1.0787
1.07888
1.07907
1.07926
1.07946
1.07967
1.07988
1.0801
1.08033
1.08055
1.08079
1.08103
1.08127
1.08152
1.08177
1.08203
1.0823
1.08257
1.08285
1.08314
1.08343
1.08372
1.08403
1.08434
1.08465
1.08497
1.0853
1.08563
1.08597
1.08631
1.08665
1.087
1.08735
1.08771
1.08807
1.08843
1.0888
1.08917
1.08954
1.08991
1.09029
1.09068
1.09106
1.09145
1.09185
1.09225
1.09265
1.09306
1.09347
1.09389
1.09431
1.09473
1.09515
1.09558
1.096
1.09642
1.09683
1.09724
1.09763
1.09801
1.09838
1.09872
1.09904
1.09934
1.09962
1.09986
1.10008
1.10026
1.10041
1.10053
1.10061
1.10066
1.10068
1.10067
1.10063
1.10057
1.10048
1.10036
1.10023
1.10007
1.0999
1.09971
1.09951
1.09929
1.09907
1.09884
1.0986
1.09836
1.09812
1.09787
1.09762
1.09737
1.09711
1.09686
1.0966
1.09634
1.09609
1.09583
1.09557
1.09531
1.09505
1.09479
1.09452
1.09426
1.09399
1.09373
1.09346
1.0932
1.09294
1.09269
1.09244
1.0922
1.09197
1.09175
1.09154
1.09135
1.09118
1.09102
1.09088
1.09076
1.09067
1.09059
1.09054
1.0905
1.09049
1.09049
1.09051
1.09054
1.09059
1.09064
1.09071
1.09078
1.09085
1.09093
1.09101
1.09109
1.09118
1.09126
1.09135
1.09144
1.09153
1.09162
1.09172
1.09183
1.09193
1.09205
1.09217
1.0923
1.09243
1.09257
1.09272
1.09287
1.09303
1.09319
1.09336
1.09353
1.09372
1.09392
1.09414
1.09437
1.09463
1.09492
1.09523
1.09558
1.09597
1.09639
1.09685
1.09735
1.09788
1.09845
1.09904
1.09966
1.10029
1.10093
1.10158
1.10222
1.10285
1.10346
1.10404
1.10459
1.1051
1.10557
1.106
1.10638
1.10671
1.107
1.10724
1.10744
1.10761
1.10773
1.10782
1.10789
1.10793
1.10795
1.10795
1.10794
1.10792
1.1079
1.10787
1.10785
1.10783
1.10781
1.10781
1.10781
1.10782
1.10785
1.10789
1.10794
1.10801
1.1081
1.1082
1.10832
1.10846
1.10861
1.10878
1.10897
1.10917
1.10939
1.10962
1.10986
1.11012
1.11039
1.11067
1.11096
1.11126
1.11158
1.1119
1.11223
1.11257
1.11291
1.11326
1.11363
1.11399
1.11437
1.11475
1.11514
1.11553
1.11592
1.11632
1.11673
1.11713
1.11753
1.11793
1.11833
1.11872
1.1191
1.11947
1.11982
1.12015
1.12045
1.12072
1.12095
1.12113
1.12125
1.12132
1.12131
1.12123
1.12105
1.12078
1.1204
1.11992
1.11932
1.1186
1.11777
1.11681
1.11574
1.11456
1.11328
1.11191
1.11045
1.10892
1.10733
1.10569
1.10403
1.10235
1.10067
1.09902
1.09739
1.09582
1.09432
1.09291
1.0916
1.0904
1.08932
1.08838
1.08756
1.08689
1.08634
1.08593
1.08564
1.08547
1.0854
1.08544
1.08556
1.08577
1.08605
1.08638
1.08678
1.08721
1.08769
1.0882
1.08874
1.0893
1.08988
1.09047
1.09107
1.09168
1.09228
1.09289
1.09349
1.09408
1.09466
1.09523
1.09579
1.09634
1.09688
1.0974
1.09791
1.09841
1.0989
1.09938
1.09985
1.10032
1.10078
1.10124
1.10169
1.10214
1.10259
1.10304
1.10349
1.10394
1.10438
1.10483
1.10527
1.10571
1.10614
1.10657
1.10699
1.1074
1.1078
1.10817
1.10852
1.10884
1.10911
1.10932
1.10945
1.10947
1.10937
1.1091
1.10862
1.10788
1.10684
1.10544
1.10363
1.10139
1.09871
1.0956
1.0921
1.08831
1.08433
1.0803
1.07634
1.07258
1.06912
1.06601
1.06328
1.06095
1.05897
1.0573
1.07994
1.07973
1.07953
1.07934
1.07914
1.07896
1.07878
1.07861
1.07846
1.07831
1.07817
1.07805
1.07794
1.07785
1.07777
1.0777
1.07765
1.07762
1.0776
1.0776
1.07761
1.07764
1.07769
1.07775
1.07783
1.07792
1.07803
1.07815
1.07828
1.07842
1.07858
1.07874
1.07892
1.0791
1.0793
1.07949
1.0797
1.07991
1.08013
1.08035
1.08058
1.08081
1.08104
1.08129
1.08154
1.08179
1.08205
1.08232
1.08259
1.08287
1.08315
1.08344
1.08373
1.08403
1.08434
1.08465
1.08496
1.08528
1.0856
1.08593
1.08626
1.0866
1.08694
1.08728
1.08763
1.08799
1.08834
1.08871
1.08907
1.08944
1.08982
1.0902
1.09058
1.09097
1.09136
1.09176
1.09216
1.09257
1.09298
1.09339
1.09381
1.09423
1.09466
1.09508
1.0955
1.09592
1.09634
1.09675
1.09716
1.09755
1.09793
1.0983
1.09864
1.09897
1.09927
1.09954
1.09979
1.1
1.10018
1.10033
1.10045
1.10054
1.10059
1.10061
1.1006
1.10057
1.1005
1.10041
1.1003
1.10017
1.10001
1.09984
1.09966
1.09946
1.09925
1.09903
1.0988
1.09857
1.09833
1.09809
1.09784
1.0976
1.09735
1.09709
1.09684
1.09659
1.09633
1.09607
1.09582
1.09556
1.0953
1.09503
1.09477
1.09451
1.09424
1.09398
1.09371
1.09345
1.09319
1.09293
1.09268
1.09244
1.0922
1.09197
1.09175
1.09155
1.09136
1.09119
1.09104
1.0909
1.09079
1.09069
1.09062
1.09057
1.09053
1.09051
1.09052
1.09053
1.09056
1.0906
1.09066
1.09072
1.09078
1.09085
1.09093
1.09101
1.09109
1.09117
1.09125
1.09134
1.09143
1.09152
1.09161
1.09171
1.09181
1.09192
1.09203
1.09216
1.09228
1.09242
1.09256
1.0927
1.09285
1.09301
1.09317
1.09335
1.09353
1.09372
1.09392
1.09414
1.09438
1.09465
1.09494
1.09526
1.09561
1.09599
1.09642
1.09687
1.09737
1.0979
1.09846
1.09904
1.09965
1.10028
1.10091
1.10155
1.10218
1.1028
1.1034
1.10397
1.10451
1.10502
1.10548
1.10591
1.10629
1.10662
1.10691
1.10716
1.10736
1.10753
1.10766
1.10776
1.10783
1.10788
1.10791
1.10792
1.10792
1.10791
1.1079
1.10788
1.10787
1.10786
1.10785
1.10786
1.10787
1.10789
1.10792
1.10797
1.10803
1.1081
1.10819
1.1083
1.10842
1.10855
1.10871
1.10887
1.10906
1.10926
1.10947
1.1097
1.10995
1.1102
1.11047
1.11075
1.11104
1.11134
1.11166
1.11198
1.11231
1.11265
1.11299
1.11335
1.11371
1.11407
1.11445
1.11482
1.1152
1.11559
1.11598
1.11637
1.11675
1.11714
1.11753
1.1179
1.11827
1.11863
1.11898
1.1193
1.11961
1.11988
1.12012
1.12032
1.12048
1.12058
1.12062
1.12059
1.12049
1.1203
1.12002
1.11965
1.11918
1.11861
1.11794
1.11717
1.1163
1.11534
1.1143
1.11317
1.11198
1.11073
1.10942
1.10807
1.10669
1.10527
1.10384
1.10239
1.10094
1.09949
1.09806
1.09665
1.09529
1.09398
1.09273
1.09157
1.0905
1.08954
1.08868
1.08794
1.08733
1.08683
1.08646
1.0862
1.08605
1.086
1.08605
1.08618
1.08639
1.08667
1.08701
1.08741
1.08785
1.08832
1.08883
1.08937
1.08993
1.0905
1.09109
1.09168
1.09227
1.09287
1.09346
1.09405
1.09463
1.0952
1.09576
1.0963
1.09684
1.09736
1.09787
1.09837
1.09886
1.09934
1.09982
1.10028
1.10074
1.1012
1.10165
1.1021
1.10255
1.103
1.10344
1.10389
1.10433
1.10477
1.10521
1.10564
1.10607
1.10649
1.10691
1.10731
1.10769
1.10805
1.10839
1.10868
1.10893
1.10911
1.10921
1.10919
1.10904
1.10871
1.10816
1.10736
1.10625
1.10478
1.10293
1.10067
1.098
1.09493
1.09152
1.08786
1.08405
1.08019
1.07643
1.07284
1.06952
1.0665
1.06383
1.06149
1.05947
1.05772
1.07999
1.07979
1.07959
1.0794
1.07921
1.07903
1.07885
1.07869
1.07853
1.07839
1.07825
1.07813
1.07802
1.07793
1.07785
1.07778
1.07773
1.0777
1.07768
1.07768
1.07769
1.07772
1.07776
1.07782
1.0779
1.07799
1.07809
1.07821
1.07834
1.07848
1.07863
1.07879
1.07896
1.07914
1.07933
1.07953
1.07973
1.07994
1.08015
1.08037
1.0806
1.08083
1.08107
1.08131
1.08156
1.08181
1.08207
1.08234
1.08261
1.08288
1.08316
1.08345
1.08374
1.08403
1.08433
1.08463
1.08494
1.08525
1.08556
1.08588
1.0862
1.08653
1.08686
1.0872
1.08754
1.08788
1.08824
1.08859
1.08896
1.08933
1.0897
1.09008
1.09047
1.09086
1.09125
1.09165
1.09206
1.09247
1.09288
1.0933
1.09372
1.09414
1.09456
1.09498
1.09541
1.09583
1.09625
1.09666
1.09706
1.09746
1.09784
1.09821
1.09855
1.09888
1.09918
1.09946
1.0997
1.09992
1.10011
1.10026
1.10038
1.10046
1.10052
1.10054
1.10053
1.10049
1.10043
1.10034
1.10023
1.1001
1.09995
1.09979
1.0996
1.09941
1.0992
1.09899
1.09877
1.09854
1.0983
1.09806
1.09782
1.09757
1.09732
1.09707
1.09682
1.09657
1.09631
1.09606
1.0958
1.09554
1.09528
1.09502
1.09475
1.09449
1.09423
1.09396
1.0937
1.09343
1.09317
1.09292
1.09267
1.09242
1.09219
1.09196
1.09175
1.09155
1.09137
1.0912
1.09105
1.09092
1.09081
1.09072
1.09065
1.09059
1.09056
1.09054
1.09054
1.09056
1.09058
1.09062
1.09067
1.09073
1.09079
1.09086
1.09093
1.091
1.09108
1.09116
1.09124
1.09133
1.09141
1.0915
1.09159
1.09169
1.09179
1.0919
1.09201
1.09213
1.09226
1.09239
1.09253
1.09268
1.09283
1.09299
1.09315
1.09333
1.09351
1.09371
1.09392
1.09414
1.09439
1.09466
1.09495
1.09528
1.09563
1.09602
1.09644
1.0969
1.09739
1.09792
1.09847
1.09905
1.09965
1.10027
1.10089
1.10152
1.10214
1.10275
1.10333
1.1039
1.10443
1.10493
1.10539
1.10581
1.10619
1.10652
1.10681
1.10706
1.10727
1.10744
1.10758
1.10769
1.10777
1.10782
1.10786
1.10789
1.1079
1.1079
1.1079
1.1079
1.10789
1.10789
1.1079
1.10791
1.10793
1.10796
1.108
1.10806
1.10812
1.1082
1.1083
1.1084
1.10853
1.10867
1.10882
1.10899
1.10917
1.10937
1.10958
1.10981
1.11005
1.11031
1.11057
1.11085
1.11115
1.11145
1.11176
1.11208
1.11241
1.11275
1.1131
1.11345
1.11381
1.11417
1.11454
1.11491
1.11529
1.11566
1.11604
1.11641
1.11678
1.11715
1.11751
1.11786
1.11819
1.11851
1.11881
1.11908
1.11932
1.11953
1.11969
1.11981
1.11987
1.11988
1.11981
1.11967
1.11945
1.11915
1.11876
1.11828
1.11772
1.11706
1.11632
1.11551
1.11462
1.11367
1.11267
1.11163
1.11054
1.10943
1.1083
1.10714
1.10598
1.10479
1.1036
1.1024
1.10118
1.09997
1.09874
1.09752
1.09632
1.09513
1.09398
1.09287
1.09183
1.09086
1.08997
1.08918
1.08849
1.08791
1.08744
1.08709
1.08684
1.0867
1.08665
1.0867
1.08684
1.08705
1.08732
1.08766
1.08806
1.08849
1.08897
1.08947
1.09
1.09056
1.09112
1.0917
1.09228
1.09287
1.09345
1.09403
1.0946
1.09517
1.09572
1.09627
1.0968
1.09732
1.09784
1.09834
1.09883
1.09931
1.09978
1.10025
1.10071
1.10116
1.10161
1.10206
1.10251
1.10295
1.1034
1.10384
1.10428
1.10471
1.10515
1.10558
1.106
1.10642
1.10682
1.10721
1.10758
1.10793
1.10825
1.10852
1.10874
1.10889
1.10894
1.10888
1.10866
1.10827
1.10765
1.10677
1.10558
1.10405
1.10216
1.09987
1.09721
1.09419
1.09088
1.08735
1.08371
1.08006
1.07649
1.07308
1.06991
1.06701
1.06439
1.06206
1.05999
1.05817
1.08005
1.07985
1.07965
1.07946
1.07928
1.0791
1.07893
1.07877
1.07861
1.07847
1.07834
1.07822
1.07811
1.07802
1.07794
1.07787
1.07782
1.07779
1.07777
1.07776
1.07778
1.0778
1.07785
1.0779
1.07797
1.07806
1.07816
1.07827
1.0784
1.07854
1.07868
1.07884
1.07901
1.07919
1.07937
1.07956
1.07976
1.07997
1.08018
1.0804
1.08062
1.08085
1.08109
1.08133
1.08158
1.08183
1.08209
1.08235
1.08262
1.0829
1.08317
1.08345
1.08374
1.08403
1.08432
1.08461
1.08491
1.08521
1.08551
1.08582
1.08613
1.08644
1.08676
1.08709
1.08742
1.08776
1.08811
1.08846
1.08882
1.08919
1.08956
1.08994
1.09033
1.09072
1.09112
1.09152
1.09193
1.09234
1.09276
1.09318
1.0936
1.09402
1.09445
1.09487
1.0953
1.09572
1.09614
1.09655
1.09696
1.09735
1.09774
1.0981
1.09845
1.09878
1.09909
1.09937
1.09962
1.09984
1.10002
1.10018
1.1003
1.10039
1.10044
1.10046
1.10046
1.10042
1.10036
1.10027
1.10017
1.10004
1.09989
1.09973
1.09955
1.09936
1.09916
1.09894
1.09873
1.0985
1.09827
1.09803
1.09779
1.09755
1.0973
1.09705
1.0968
1.09655
1.09629
1.09604
1.09578
1.09552
1.09526
1.095
1.09473
1.09447
1.0942
1.09394
1.09367
1.09341
1.09315
1.0929
1.09265
1.09241
1.09218
1.09196
1.09175
1.09155
1.09138
1.09121
1.09107
1.09094
1.09083
1.09075
1.09068
1.09062
1.09059
1.09057
1.09057
1.09058
1.09061
1.09064
1.09069
1.09074
1.0908
1.09086
1.09093
1.091
1.09107
1.09115
1.09123
1.09131
1.0914
1.09148
1.09158
1.09167
1.09177
1.09188
1.09199
1.09211
1.09224
1.09237
1.09251
1.09265
1.0928
1.09296
1.09313
1.09331
1.0935
1.0937
1.09391
1.09414
1.0944
1.09467
1.09497
1.0953
1.09566
1.09605
1.09647
1.09693
1.09742
1.09794
1.09849
1.09907
1.09966
1.10026
1.10088
1.10149
1.1021
1.1027
1.10327
1.10383
1.10435
1.10484
1.1053
1.10571
1.10609
1.10642
1.10671
1.10696
1.10717
1.10735
1.10749
1.10761
1.1077
1.10777
1.10782
1.10785
1.10788
1.10789
1.1079
1.10791
1.10792
1.10794
1.10795
1.10798
1.10801
1.10805
1.1081
1.10816
1.10824
1.10832
1.10842
1.10853
1.10866
1.1088
1.10895
1.10912
1.10931
1.1095
1.10972
1.10994
1.11018
1.11044
1.1107
1.11098
1.11127
1.11157
1.11188
1.11221
1.11254
1.11288
1.11322
1.11357
1.11393
1.11429
1.11465
1.11502
1.11538
1.11574
1.1161
1.11646
1.11681
1.11714
1.11747
1.11778
1.11806
1.11833
1.11857
1.11877
1.11894
1.11906
1.11914
1.11915
1.11911
1.119
1.11881
1.11855
1.11821
1.11779
1.11728
1.1167
1.11604
1.11531
1.11453
1.11368
1.1128
1.11189
1.11095
1.11
1.10904
1.10808
1.10713
1.10618
1.10523
1.10428
1.10333
1.10237
1.1014
1.10041
1.09941
1.09839
1.09735
1.09631
1.09528
1.09425
1.09325
1.0923
1.09139
1.09056
1.08981
1.08915
1.08859
1.08814
1.08779
1.08754
1.08739
1.08735
1.08739
1.08752
1.08772
1.088
1.08833
1.08871
1.08915
1.08961
1.09011
1.09064
1.09118
1.09174
1.0923
1.09287
1.09345
1.09402
1.09458
1.09515
1.0957
1.09624
1.09677
1.09729
1.0978
1.0983
1.09879
1.09928
1.09975
1.10021
1.10067
1.10113
1.10158
1.10203
1.10247
1.10292
1.10336
1.10379
1.10423
1.10466
1.10509
1.10551
1.10593
1.10634
1.10673
1.10711
1.10747
1.1078
1.1081
1.10834
1.10853
1.10864
1.10864
1.10852
1.10824
1.10778
1.10708
1.10611
1.10485
1.10325
1.10131
1.099
1.09635
1.09339
1.09018
1.0868
1.08334
1.07988
1.07651
1.0733
1.07029
1.0675
1.06494
1.06262
1.06052
1.05862
1.0801
1.07991
1.07972
1.07954
1.07936
1.07918
1.07901
1.07885
1.0787
1.07856
1.07843
1.07832
1.07821
1.07812
1.07804
1.07797
1.07792
1.07789
1.07787
1.07786
1.07787
1.07789
1.07793
1.07799
1.07806
1.07814
1.07824
1.07834
1.07847
1.0786
1.07874
1.0789
1.07906
1.07923
1.07941
1.0796
1.0798
1.08
1.08021
1.08043
1.08065
1.08088
1.08111
1.08136
1.0816
1.08185
1.08211
1.08237
1.08264
1.08291
1.08318
1.08346
1.08373
1.08401
1.08429
1.08458
1.08486
1.08515
1.08544
1.08574
1.08604
1.08634
1.08665
1.08697
1.08729
1.08763
1.08797
1.08831
1.08867
1.08903
1.08941
1.08979
1.09017
1.09057
1.09097
1.09137
1.09178
1.0922
1.09261
1.09303
1.09346
1.09388
1.09431
1.09473
1.09516
1.09558
1.096
1.09642
1.09683
1.09722
1.09761
1.09798
1.09834
1.09867
1.09898
1.09926
1.09952
1.09974
1.09993
1.10008
1.10021
1.1003
1.10035
1.10038
1.10037
1.10034
1.10028
1.10019
1.10009
1.09996
1.09982
1.09966
1.09948
1.0993
1.0991
1.09889
1.09868
1.09846
1.09823
1.098
1.09776
1.09752
1.09728
1.09703
1.09678
1.09653
1.09627
1.09602
1.09576
1.0955
1.09524
1.09497
1.09471
1.09444
1.09418
1.09391
1.09365
1.09339
1.09313
1.09288
1.09263
1.09239
1.09216
1.09195
1.09174
1.09155
1.09138
1.09122
1.09108
1.09096
1.09086
1.09077
1.09071
1.09066
1.09062
1.0906
1.0906
1.09061
1.09063
1.09066
1.0907
1.09075
1.0908
1.09086
1.09093
1.091
1.09107
1.09114
1.09122
1.0913
1.09138
1.09147
1.09156
1.09165
1.09175
1.09185
1.09197
1.09208
1.09221
1.09234
1.09248
1.09262
1.09277
1.09294
1.09311
1.09329
1.09348
1.09368
1.0939
1.09414
1.0944
1.09468
1.09499
1.09532
1.09568
1.09608
1.09651
1.09696
1.09745
1.09797
1.09851
1.09908
1.09966
1.10026
1.10086
1.10146
1.10206
1.10264
1.10321
1.10375
1.10427
1.10475
1.1052
1.10561
1.10598
1.10631
1.1066
1.10685
1.10707
1.10725
1.1074
1.10753
1.10763
1.10771
1.10777
1.10782
1.10785
1.10788
1.10791
1.10793
1.10796
1.10798
1.10801
1.10805
1.10809
1.10815
1.10821
1.10828
1.10836
1.10845
1.10856
1.10868
1.10881
1.10895
1.10911
1.10928
1.10946
1.10966
1.10987
1.11009
1.11033
1.11059
1.11085
1.11113
1.11142
1.11172
1.11203
1.11235
1.11268
1.11302
1.11336
1.11371
1.11406
1.11442
1.11477
1.11512
1.11548
1.11582
1.11616
1.11649
1.1168
1.1171
1.11739
1.11765
1.11788
1.11808
1.11824
1.11837
1.11844
1.11847
1.11843
1.11833
1.11817
1.11793
1.11761
1.11722
1.11675
1.11621
1.1156
1.11492
1.11419
1.11341
1.1126
1.11176
1.1109
1.11005
1.10919
1.10836
1.10754
1.10674
1.10597
1.10522
1.10449
1.10376
1.10304
1.10232
1.10158
1.10082
1.10003
1.09921
1.09836
1.09748
1.09657
1.09564
1.09472
1.0938
1.09291
1.09205
1.09126
1.09053
1.08989
1.08934
1.08888
1.08853
1.08827
1.08812
1.08807
1.0881
1.08822
1.08841
1.08868
1.089
1.08938
1.0898
1.09026
1.09075
1.09127
1.0918
1.09234
1.0929
1.09346
1.09402
1.09458
1.09513
1.09568
1.09622
1.09675
1.09727
1.09778
1.09827
1.09876
1.09925
1.09972
1.10019
1.10064
1.1011
1.10155
1.102
1.10244
1.10288
1.10332
1.10375
1.10418
1.10461
1.10503
1.10545
1.10586
1.10625
1.10664
1.10701
1.10735
1.10766
1.10793
1.10815
1.1083
1.10836
1.10831
1.10813
1.10778
1.10723
1.10645
1.1054
1.10405
1.10239
1.10039
1.09807
1.09544
1.09254
1.08944
1.08621
1.08292
1.07967
1.07651
1.07349
1.07064
1.06796
1.06548
1.06317
1.06103
1.05905
1.08016
1.07997
1.07979
1.07961
1.07943
1.07926
1.0791
1.07895
1.0788
1.07866
1.07853
1.07842
1.07831
1.07822
1.07814
1.07808
1.07803
1.07799
1.07797
1.07796
1.07797
1.07799
1.07802
1.07808
1.07814
1.07822
1.07831
1.07842
1.07854
1.07866
1.0788
1.07895
1.07911
1.07928
1.07946
1.07965
1.07984
1.08004
1.08025
1.08046
1.08068
1.08091
1.08114
1.08138
1.08163
1.08188
1.08213
1.08239
1.08265
1.08292
1.08318
1.08345
1.08372
1.08399
1.08426
1.08453
1.08481
1.08508
1.08536
1.08565
1.08594
1.08623
1.08653
1.08684
1.08715
1.08748
1.08781
1.08815
1.08851
1.08887
1.08924
1.08962
1.09001
1.0904
1.0908
1.09121
1.09162
1.09204
1.09245
1.09288
1.0933
1.09373
1.09415
1.09458
1.09501
1.09543
1.09585
1.09627
1.09668
1.09708
1.09747
1.09785
1.0982
1.09854
1.09886
1.09914
1.0994
1.09963
1.09982
1.09998
1.10011
1.1002
1.10026
1.10028
1.10028
1.10024
1.10019
1.1001
1.1
1.09988
1.09974
1.09958
1.09941
1.09923
1.09904
1.09884
1.09863
1.09841
1.09819
1.09796
1.09773
1.09749
1.09725
1.097
1.09675
1.0965
1.09625
1.09599
1.09573
1.09547
1.09521
1.09494
1.09468
1.09441
1.09415
1.09388
1.09362
1.09336
1.0931
1.09285
1.0926
1.09237
1.09215
1.09193
1.09174
1.09155
1.09138
1.09123
1.0911
1.09098
1.09088
1.0908
1.09074
1.09069
1.09066
1.09064
1.09063
1.09064
1.09066
1.09068
1.09072
1.09076
1.09081
1.09087
1.09093
1.09099
1.09106
1.09113
1.0912
1.09128
1.09136
1.09145
1.09153
1.09163
1.09172
1.09183
1.09194
1.09205
1.09218
1.09231
1.09244
1.09259
1.09274
1.0929
1.09308
1.09326
1.09345
1.09366
1.09389
1.09413
1.0944
1.09469
1.095
1.09534
1.09571
1.09611
1.09654
1.097
1.09748
1.098
1.09854
1.0991
1.09967
1.10026
1.10085
1.10144
1.10202
1.10259
1.10315
1.10368
1.10419
1.10466
1.1051
1.1055
1.10587
1.1062
1.10649
1.10674
1.10696
1.10715
1.10731
1.10745
1.10756
1.10765
1.10772
1.10778
1.10784
1.10788
1.10792
1.10796
1.108
1.10804
1.10808
1.10813
1.10819
1.10825
1.10833
1.10841
1.1085
1.1086
1.10871
1.10884
1.10897
1.10912
1.10928
1.10945
1.10964
1.10983
1.11004
1.11027
1.11051
1.11076
1.11102
1.1113
1.11159
1.11189
1.1122
1.11252
1.11285
1.11318
1.11352
1.11386
1.11421
1.11455
1.11489
1.11523
1.11556
1.11588
1.11619
1.11649
1.11677
1.11702
1.11725
1.11745
1.11761
1.11773
1.11781
1.11783
1.1178
1.11771
1.11755
1.11733
1.11703
1.11665
1.11621
1.11569
1.1151
1.11445
1.11375
1.113
1.11222
1.11141
1.1106
1.10979
1.10899
1.10821
1.10747
1.10676
1.10609
1.10546
1.10487
1.10431
1.10377
1.10326
1.10275
1.10224
1.10172
1.10117
1.10059
1.09996
1.09929
1.09858
1.09781
1.09701
1.09617
1.09532
1.09446
1.09361
1.09279
1.09202
1.09131
1.09067
1.09011
1.08965
1.08929
1.08903
1.08887
1.0888
1.08882
1.08893
1.08911
1.08936
1.08968
1.09005
1.09046
1.09091
1.09138
1.09189
1.09241
1.09294
1.09349
1.09403
1.09458
1.09512
1.09567
1.0962
1.09673
1.09724
1.09775
1.09825
1.09874
1.09922
1.09969
1.10016
1.10062
1.10107
1.10152
1.10196
1.1024
1.10284
1.10328
1.10371
1.10413
1.10456
1.10497
1.10538
1.10578
1.10617
1.10654
1.10689
1.10722
1.10751
1.10775
1.10793
1.10804
1.10805
1.10795
1.10769
1.10726
1.10663
1.10576
1.10462
1.10319
1.10146
1.09942
1.09709
1.09449
1.09166
1.08867
1.08559
1.08249
1.07943
1.07647
1.07364
1.07095
1.0684
1.06598
1.06369
1.06152
1.05945
1.08021
1.08003
1.07985
1.07968
1.07951
1.07935
1.07919
1.07904
1.07889
1.07876
1.07864
1.07852
1.07842
1.07833
1.07825
1.07818
1.07813
1.07809
1.07807
1.07806
1.07806
1.07808
1.07812
1.07817
1.07823
1.07831
1.07839
1.0785
1.07861
1.07873
1.07887
1.07901
1.07917
1.07934
1.07951
1.07969
1.07988
1.08008
1.08029
1.0805
1.08072
1.08095
1.08118
1.08142
1.08166
1.08191
1.08216
1.08241
1.08267
1.08292
1.08318
1.08344
1.0837
1.08396
1.08422
1.08448
1.08474
1.085
1.08527
1.08554
1.08582
1.0861
1.08639
1.08669
1.087
1.08732
1.08765
1.08799
1.08833
1.08869
1.08906
1.08944
1.08983
1.09022
1.09062
1.09103
1.09144
1.09186
1.09228
1.0927
1.09312
1.09355
1.09397
1.0944
1.09483
1.09525
1.09567
1.09609
1.09651
1.09691
1.0973
1.09768
1.09805
1.09839
1.09871
1.099
1.09927
1.0995
1.0997
1.09986
1.09999
1.10008
1.10014
1.10017
1.10017
1.10014
1.10008
1.1
1.0999
1.09978
1.09964
1.09949
1.09933
1.09915
1.09897
1.09877
1.09857
1.09836
1.09814
1.09792
1.09769
1.09745
1.09721
1.09697
1.09672
1.09647
1.09622
1.09596
1.0957
1.09544
1.09518
1.09491
1.09464
1.09438
1.09411
1.09384
1.09358
1.09332
1.09307
1.09282
1.09258
1.09235
1.09213
1.09192
1.09173
1.09155
1.09139
1.09124
1.09112
1.091
1.09091
1.09083
1.09077
1.09072
1.09069
1.09067
1.09066
1.09067
1.09068
1.09071
1.09074
1.09078
1.09082
1.09087
1.09093
1.09099
1.09105
1.09112
1.09119
1.09127
1.09134
1.09143
1.09151
1.0916
1.0917
1.0918
1.09191
1.09202
1.09214
1.09227
1.09241
1.09255
1.09271
1.09287
1.09304