# vtk DataFile Version 2.0
LBE two cylinders
ASCII
DATASET STRUCTURED_POINTS
DIMENSIONS 400 100 1
ASPECT_RATIO 1 1 1
ORIGIN 0 0 0
POINT_DATA 40000
SCALARS rho double 1
LOOKUP_TABLE default
1.07874
1.07878
1.07882
1.07887
1.07892
1.07898
1.07904
1.0791
1.07916
1.07923
1.0793
1.07938
1.07945
1.07954
1.07962
1.07971
1.0798
1.0799
1.08
1.0801
1.08021
1.08032
1.08043
1.08055
1.08067
1.08079
1.08091
1.08104
1.08118
1.08131
1.08145
1.0816
1.08174
1.08189
1.08204
1.0822
1.08236
1.08253
1.08269
1.08286
1.08304
1.08322
1.0834
1.08359
1.08378
1.08398
1.08418
1.08439
1.0846
1.08482
1.08504
1.08527
1.0855
1.08574
1.08599
1.08624
1.0865
1.08676
1.08704
1.08731
1.0876
1.0879
1.0882
1.08851
1.08882
1.08915
1.08948
1.08982
1.09017
1.09053
1.09089
1.09127
1.09165
1.09204
1.09244
1.09284
1.09325
1.09367
1.09409
1.09451
1.09494
1.09537
1.09579
1.09622
1.09664
1.09706
1.09747
1.09786
1.09824
1.09861
1.09896
1.09928
1.09958
1.09986
1.1001
1.10032
1.1005
1.10065
1.10076
1.10085
1.1009
1.10092
1.10091
1.10088
1.10082
1.10073
1.10063
1.1005
1.10037
1.10021
1.10005
1.09987
1.09969
1.0995
1.0993
1.09911
1.0989
1.0987
1.09849
1.09829
1.09808
1.09787
1.09766
1.09745
1.09724
1.09703
1.09681
1.0966
1.09639
1.09618
1.09596
1.09575
1.09554
1.09532
1.09511
1.09489
1.09468
1.09446
1.09425
1.09404
1.09382
1.09361
1.0934
1.0932
1.09299
1.09279
1.09259
1.09239
1.0922
1.09201
1.09183
1.09165
1.09147
1.0913
1.09113
1.09097
1.09081
1.09065
1.0905
1.09035
1.09021
1.09006
1.08992
1.08978
1.08964
1.0895
1.08935
1.0892
1.08904
1.08888
1.0887
1.08851
1.08831
1.08808
1.08783
1.08756
1.08725
1.08692
1.08654
1.08613
1.08567
1.08517
1.08463
1.08405
1.08342
1.08275
1.08205
1.08131
1.08055
1.07976
1.07896
1.07816
1.07735
1.07655
1.07577
1.07502
1.0743
1.07363
1.073
1.07242
1.07191
1.07145
1.07106
1.07073
1.07045
1.07023
1.07007
1.06994
1.06985
1.0698
1.06976
1.06973
1.06972
1.0697
1.06968
1.06966
1.06962
1.06957
1.0695
1.06942
1.06932
1.0692
1.06907
1.06893
1.06877
1.0686
1.06842
1.06823
1.06803
1.06783
1.06762
1.0674
1.06719
1.06698
1.06676
1.06655
1.06634
1.06613
1.06592
1.06572
1.06553
1.06534
1.06515
1.06497
1.06479
1.06462
1.06446
1.0643
1.06415
1.06401
1.06388
1.06375
1.06364
1.06353
1.06344
1.06335
1.06328
1.06322
1.06318
1.06315
1.06312
1.06312
1.06312
1.06313
1.06315
1.06319
1.06323
1.06328
1.06334
1.0634
1.06347
1.06354
1.06361
1.06369
1.06377
1.06385
1.06393
1.06401
1.06408
1.06416
1.06423
1.0643
1.06436
1.06442
1.06447
1.06452
1.06457
1.0646
1.06464
1.06466
1.06469
1.06471
1.06472
1.06473
1.06474
1.06475
1.06475
1.06476
1.06477
1.06479
1.0648
1.06482
1.06485
1.06488
1.06492
1.06497
1.06503
1.06509
1.06516
1.06525
1.06534
1.06544
1.06555
1.06567
1.0658
1.06593
1.06608
1.06623
1.06639
1.06655
1.06672
1.0669
1.06708
1.06726
1.06744
1.06762
1.06781
1.06799
1.06817
1.06835
1.06853
1.0687
1.06887
1.06904
1.0692
1.06935
1.0695
1.06965
1.06979
1.06992
1.07004
1.07016
1.07028
1.07039
1.0705
1.0706
1.07069
1.07079
1.07088
1.07098
1.07107
1.07117
1.07127
1.07137
1.07148
1.07159
1.07171
1.07184
1.07197
1.07212
1.07227
1.07243
1.0726
1.07278
1.07297
1.07317
1.07337
1.07359
1.07381
1.07404
1.07429
1.07453
1.07479
1.07506
1.07533
1.07562
1.07591
1.07621
1.07651
1.07683
1.07715
1.07748
1.07781
1.07814
1.07848
1.07883
1.07917
1.07951
1.07985
1.08018
1.08051
1.08083
1.08114
1.08144
1.08171
1.08197
1.08221
1.08242
1.08259
1.08273
1.07875
1.07879
1.07884
1.07888
1.07894
1.07899
1.07905
1.07911
1.07917
1.07924
1.07931
1.07939
1.07947
1.07955
1.07964
1.07973
1.07982
1.07991
1.08001
1.08012
1.08022
1.08033
1.08045
1.08056
1.08068
1.08081
1.08093
1.08106
1.0812
1.08133
1.08147
1.08161
1.08176
1.08191
1.08206
1.08222
1.08238
1.08255
1.08271
1.08289
1.08306
1.08324
1.08343
1.08362
1.08381
1.08401
1.08421
1.08441
1.08463
1.08484
1.08507
1.0853
1.08553
1.08577
1.08602
1.08627
1.08653
1.08679
1.08706
1.08734
1.08763
1.08792
1.08822
1.08853
1.08885
1.08917
1.0895
1.08984
1.09019
1.09054
1.09091
1.09128
1.09166
1.09204
1.09244
1.09284
1.09324
1.09365
1.09407
1.09449
1.09491
1.09533
1.09575
1.09617
1.09659
1.097
1.0974
1.09779
1.09817
1.09853
1.09887
1.09919
1.09948
1.09975
1.09999
1.10021
1.10039
1.10054
1.10066
1.10074
1.1008
1.10082
1.10082
1.10078
1.10073
1.10065
1.10055
1.10043
1.1003
1.10015
1.09999
1.09982
1.09964
1.09945
1.09926
1.09907
1.09887
1.09867
1.09846
1.09826
1.09805
1.09784
1.09763
1.09743
1.09722
1.09701
1.0968
1.09658
1.09637
1.09616
1.09595
1.09574
1.09552
1.09531
1.0951
1.09489
1.09467
1.09446
1.09425
1.09404
1.09382
1.09361
1.09341
1.0932
1.093
1.0928
1.0926
1.0924
1.09221
1.09203
1.09184
1.09166
1.09149
1.09132
1.09115
1.09099
1.09083
1.09067
1.09052
1.09037
1.09023
1.09008
1.08994
1.0898
1.08965
1.08951
1.08936
1.08921
1.08905
1.08889
1.08871
1.08852
1.08831
1.08808
1.08783
1.08755
1.08724
1.0869
1.08652
1.08611
1.08565
1.08515
1.0846
1.08402
1.08339
1.08272
1.08202
1.08128
1.08052
1.07973
1.07894
1.07813
1.07733
1.07654
1.07577
1.07502
1.07431
1.07364
1.07302
1.07245
1.07194
1.07149
1.0711
1.07077
1.0705
1.07028
1.07011
1.06999
1.0699
1.06983
1.06979
1.06976
1.06974
1.06972
1.0697
1.06967
1.06963
1.06957
1.0695
1.06942
1.06932
1.0692
1.06907
1.06892
1.06877
1.0686
1.06842
1.06823
1.06803
1.06783
1.06762
1.06741
1.06719
1.06698
1.06677
1.06655
1.06634
1.06614
1.06593
1.06573
1.06554
1.06535
1.06516
1.06498
1.0648
1.06464
1.06447
1.06431
1.06416
1.06402
1.06389
1.06376
1.06365
1.06355
1.06345
1.06337
1.0633
1.06324
1.0632
1.06316
1.06314
1.06313
1.06314
1.06315
1.06317
1.06321
1.06325
1.0633
1.06335
1.06341
1.06348
1.06355
1.06363
1.0637
1.06378
1.06386
1.06394
1.06402
1.06409
1.06417
1.06424
1.0643
1.06437
1.06442
1.06448
1.06453
1.06457
1.06461
1.06464
1.06467
1.06469
1.06471
1.06472
1.06473
1.06474
1.06475
1.06476
1.06476
1.06477
1.06479
1.0648
1.06483
1.06485
1.06489
1.06493
1.06498
1.06503
1.0651
1.06517
1.06525
1.06534
1.06545
1.06556
1.06567
1.0658
1.06594
1.06608
1.06623
1.06639
1.06656
1.06672
1.0669
1.06707
1.06725
1.06744
1.06762
1.0678
1.06798
1.06816
1.06834
1.06852
1.06869
1.06886
1.06902
1.06918
1.06934
1.06949
1.06963
1.06977
1.06991
1.07003
1.07016
1.07027
1.07038
1.07049
1.07059
1.07069
1.07079
1.07089
1.07098
1.07108
1.07118
1.07128
1.07138
1.07149
1.07161
1.07173
1.07186
1.07199
1.07214
1.07229
1.07245
1.07263
1.07281
1.073
1.07319
1.0734
1.07362
1.07384
1.07407
1.07431
1.07456
1.07482
1.07508
1.07535
1.07563
1.07592
1.07622
1.07652
1.07683
1.07715
1.07747
1.0778
1.07813
1.07846
1.0788
1.07913
1.07947
1.0798
1.08013
1.08045
1.08077
1.08107
1.08135
1.08162
1.08188
1.0821
1.0823
1.08247
1.08261
1.07877
1.07881
1.07885
1.0789
1.07896
1.07901
1.07907
1.07913
1.0792
1.07926
1.07934
1.07941
1.07949
1.07957
1.07966
1.07975
1.07984
1.07994
1.08004
1.08014
1.08025
1.08036
1.08047
1.08059
1.0807
1.08083
1.08095
1.08108
1.08122
1.08135
1.08149
1.08164
1.08178
1.08193
1.08209
1.08224
1.0824
1.08257
1.08274
1.08291
1.08309
1.08327
1.08345
1.08364
1.08383
1.08403
1.08423
1.08444
1.08465
1.08487
1.08509
1.08532
1.08556
1.08579
1.08604
1.08629
1.08655
1.08682
1.08709
1.08737
1.08765
1.08794
1.08824
1.08855
1.08887
1.08919
1.08952
1.08986
1.0902
1.09055
1.09092
1.09128
1.09166
1.09204
1.09243
1.09283
1.09323
1.09364
1.09405
1.09447
1.09488
1.0953
1.09572
1.09613
1.09654
1.09695
1.09735
1.09773
1.0981
1.09846
1.0988
1.09911
1.09941
1.09968
1.09992
1.10013
1.10031
1.10046
1.10058
1.10066
1.10072
1.10075
1.10075
1.10072
1.10066
1.10059
1.10049
1.10038
1.10025
1.1001
1.09995
1.09978
1.0996
1.09942
1.09923
1.09904
1.09884
1.09864
1.09844
1.09824
1.09803
1.09782
1.09762
1.09741
1.0972
1.09699
1.09678
1.09657
1.09636
1.09615
1.09594
1.09573
1.09552
1.09531
1.09509
1.09488
1.09467
1.09446
1.09425
1.09404
1.09383
1.09362
1.09341
1.09321
1.09301
1.09281
1.09261
1.09242
1.09223
1.09204
1.09186
1.09168
1.0915
1.09133
1.09117
1.091
1.09085
1.09069
1.09054
1.09039
1.09024
1.0901
1.08996
1.08982
1.08967
1.08953
1.08938
1.08923
1.08907
1.0889
1.08873
1.08853
1.08832
1.08809
1.08784
1.08756
1.08725
1.0869
1.08652
1.0861
1.08564
1.08514
1.08459
1.084
1.08337
1.0827
1.082
1.08126
1.0805
1.07972
1.07892
1.07812
1.07733
1.07654
1.07577
1.07503
1.07432
1.07366
1.07304
1.07248
1.07198
1.07153
1.07114
1.07082
1.07055
1.07033
1.07016
1.07004
1.06994
1.06988
1.06983
1.0698
1.06978
1.06975
1.06973
1.06969
1.06965
1.06959
1.06952
1.06943
1.06933
1.06921
1.06908
1.06893
1.06877
1.0686
1.06842
1.06823
1.06804
1.06783
1.06763
1.06742
1.0672
1.06699
1.06678
1.06657
1.06636
1.06615
1.06595
1.06575
1.06555
1.06536
1.06518
1.065
1.06482
1.06465
1.06449
1.06433
1.06418
1.06404
1.06391
1.06378
1.06367
1.06356
1.06347
1.06339
1.06332
1.06326
1.06322
1.06319
1.06317
1.06316
1.06316
1.06317
1.0632
1.06323
1.06327
1.06332
1.06337
1.06343
1.0635
1.06357
1.06364
1.06372
1.0638
1.06387
1.06395
1.06403
1.0641
1.06418
1.06425
1.06431
1.06438
1.06443
1.06449
1.06454
1.06458
1.06461
1.06465
1.06467
1.0647
1.06471
1.06473
1.06474
1.06475
1.06475
1.06476
1.06477
1.06478
1.06479
1.06481
1.06483
1.06486
1.06489
1.06493
1.06498
1.06504
1.0651
1.06518
1.06526
1.06535
1.06545
1.06556
1.06568
1.06581
1.06594
1.06609
1.06624
1.06639
1.06656
1.06673
1.0669
1.06707
1.06725
1.06743
1.06761
1.06779
1.06797
1.06815
1.06833
1.0685
1.06868
1.06884
1.06901
1.06917
1.06932
1.06947
1.06962
1.06976
1.06989
1.07002
1.07014
1.07026
1.07037
1.07048
1.07059
1.07069
1.07079
1.07089
1.07098
1.07108
1.07118
1.07129
1.07139
1.07151
1.07163
1.07175
1.07188
1.07202
1.07217
1.07232
1.07249
1.07266
1.07284
1.07304
1.07323
1.07344
1.07366
1.07388
1.07411
1.07435
1.0746
1.07485
1.07511
1.07538
1.07566
1.07594
1.07623
1.07653
1.07684
1.07714
1.07746
1.07778
1.0781
1.07842
1.07875
1.07908
1.0794
1.07972
1.08004
1.08035
1.08065
1.08094
1.08122
1.08148
1.08171
1.08193
1.08212
1.08228
1.08241
1.07879
1.07883
1.07888
1.07893
1.07898
1.07904
1.0791
1.07916
1.07922
1.07929
1.07936
1.07944
1.07952
1.0796
1.07969
1.07978
1.07987
1.07996
1.08006
1.08017
1.08027
1.08038
1.0805
1.08061
1.08073
1.08085
1.08098
1.08111
1.08124
1.08138
1.08152
1.08166
1.08181
1.08196
1.08211
1.08227
1.08243
1.08259
1.08276
1.08293
1.08311
1.08329
1.08347
1.08366
1.08386
1.08405
1.08426
1.08446
1.08468
1.08489
1.08512
1.08534
1.08558
1.08582
1.08606
1.08632
1.08657
1.08684
1.08711
1.08739
1.08767
1.08796
1.08826
1.08857
1.08888
1.0892
1.08953
1.08986
1.09021
1.09056
1.09092
1.09128
1.09165
1.09203
1.09242
1.09281
1.09321
1.09362
1.09402
1.09443
1.09485
1.09526
1.09568
1.09609
1.09649
1.0969
1.09729
1.09767
1.09804
1.0984
1.09873
1.09905
1.09934
1.09961
1.09985
1.10006
1.10025
1.1004
1.10052
1.10061
1.10066
1.10069
1.10069
1.10067
1.10062
1.10054
1.10045
1.10034
1.10021
1.10007
1.09991
1.09975
1.09957
1.09939
1.09921
1.09902
1.09882
1.09862
1.09842
1.09822
1.09801
1.09781
1.0976
1.0974
1.09719
1.09698
1.09677
1.09656
1.09635
1.09614
1.09593
1.09572
1.09551
1.0953
1.09509
1.09488
1.09467
1.09446
1.09425
1.09404
1.09383
1.09363
1.09342
1.09322
1.09302
1.09282
1.09262
1.09243
1.09224
1.09206
1.09188
1.0917
1.09152
1.09135
1.09119
1.09102
1.09087
1.09071
1.09056
1.09041
1.09027
1.09012
1.08998
1.08984
1.0897
1.08955
1.0894
1.08925
1.08909
1.08893
1.08875
1.08855
1.08834
1.08811
1.08786
1.08758
1.08727
1.08692
1.08654
1.08611
1.08565
1.08515
1.0846
1.08401
1.08337
1.0827
1.082
1.08126
1.0805
1.07972
1.07892
1.07813
1.07733
1.07655
1.07578
1.07505
1.07434
1.07369
1.07307
1.07252
1.07202
1.07157
1.07119
1.07087
1.0706
1.07038
1.07022
1.07009
1.06999
1.06993
1.06988
1.06984
1.06982
1.06979
1.06976
1.06972
1.06967
1.06961
1.06954
1.06945
1.06934
1.06922
1.06909
1.06894
1.06878
1.06861
1.06843
1.06825
1.06805
1.06785
1.06764
1.06743
1.06722
1.06701
1.0668
1.06659
1.06638
1.06617
1.06597
1.06577
1.06557
1.06538
1.0652
1.06501
1.06484
1.06467
1.06451
1.06435
1.0642
1.06406
1.06393
1.0638
1.06369
1.06359
1.0635
1.06342
1.06335
1.06329
1.06325
1.06321
1.06319
1.06319
1.06319
1.0632
1.06322
1.06325
1.06329
1.06334
1.0634
1.06346
1.06352
1.06359
1.06366
1.06374
1.06382
1.06389
1.06397
1.06405
1.06412
1.06419
1.06426
1.06433
1.06439
1.06445
1.0645
1.06455
1.06459
1.06463
1.06466
1.06468
1.0647
1.06472
1.06474
1.06475
1.06476
1.06476
1.06477
1.06478
1.06479
1.0648
1.06482
1.06484
1.06487
1.0649
1.06495
1.06499
1.06505
1.06511
1.06519
1.06527
1.06536
1.06546
1.06557
1.06569
1.06582
1.06595
1.06609
1.06624
1.0664
1.06656
1.06673
1.0669
1.06707
1.06725
1.06742
1.0676
1.06778
1.06796
1.06814
1.06831
1.06849
1.06866
1.06883
1.06899
1.06915
1.0693
1.06945
1.0696
1.06974
1.06987
1.07
1.07012
1.07024
1.07036
1.07047
1.07058
1.07068
1.07078
1.07088
1.07099
1.07109
1.07119
1.0713
1.07141
1.07153
1.07165
1.07178
1.07191
1.07206
1.07221
1.07237
1.07253
1.07271
1.07289
1.07309
1.07329
1.0735
1.07371
1.07394
1.07417
1.07441
1.07465
1.0749
1.07516
1.07543
1.0757
1.07598
1.07626
1.07655
1.07684
1.07714
1.07744
1.07775
1.07806
1.07837
1.07868
1.079
1.07931
1.07961
1.07992
1.08021
1.08049
1.08077
1.08103
1.08127
1.08149
1.08168
1.08185
1.082
1.08211
1.07882
1.07886
1.07891
1.07896
1.07902
1.07907
1.07913
1.07919
1.07926
1.07933
1.0794
1.07947
1.07955
1.07963
1.07972
1.07981
1.0799
1.08
1.0801
1.0802
1.08031
1.08041
1.08053
1.08064
1.08076
1.08088
1.08101
1.08114
1.08127
1.08141
1.08155
1.08169
1.08184
1.08198
1.08214
1.08229
1.08245
1.08262
1.08279
1.08296
1.08313
1.08331
1.0835
1.08369
1.08388
1.08408
1.08428
1.08449
1.0847
1.08492
1.08514
1.08537
1.0856
1.08584
1.08608
1.08633
1.08659
1.08685
1.08712
1.0874
1.08768
1.08797
1.08827
1.08857
1.08889
1.0892
1.08953
1.08986
1.0902
1.09055
1.09091
1.09127
1.09164
1.09202
1.0924
1.09279
1.09318
1.09358
1.09399
1.0944
1.0948
1.09522
1.09563
1.09603
1.09644
1.09684
1.09723
1.09761
1.09798
1.09834
1.09867
1.09899
1.09928
1.09955
1.0998
1.10001
1.1002
1.10035
1.10047
1.10056
1.10062
1.10065
1.10065
1.10063
1.10058
1.10051
1.10042
1.10031
1.10018
1.10004
1.09988
1.09972
1.09955
1.09937
1.09919
1.099
1.0988
1.09861
1.09841
1.09821
1.098
1.0978
1.09759
1.09739
1.09718
1.09697
1.09676
1.09656
1.09635
1.09614
1.09593
1.09572
1.09551
1.0953
1.09509
1.09488
1.09467
1.09446
1.09425
1.09404
1.09384
1.09363
1.09343
1.09323
1.09303
1.09283
1.09264
1.09245
1.09226
1.09207
1.09189
1.09172
1.09154
1.09137
1.09121
1.09105
1.09089
1.09073
1.09058
1.09043
1.09029
1.09015
1.09
1.08986
1.08972
1.08958
1.08943
1.08928
1.08912
1.08895
1.08878
1.08858
1.08837
1.08814
1.08789
1.08761
1.08729
1.08695
1.08656
1.08614
1.08567
1.08517
1.08462
1.08402
1.08339
1.08272
1.08201
1.08127
1.08051
1.07973
1.07894
1.07814
1.07735
1.07657
1.07581
1.07507
1.07438
1.07372
1.07311
1.07256
1.07206
1.07163
1.07125
1.07093
1.07066
1.07044
1.07028
1.07015
1.07005
1.06998
1.06993
1.06989
1.06986
1.06983
1.0698
1.06975
1.0697
1.06964
1.06956
1.06947
1.06936
1.06924
1.06911
1.06896
1.0688
1.06863
1.06845
1.06826
1.06807
1.06787
1.06766
1.06745
1.06724
1.06703
1.06682
1.06661
1.0664
1.0662
1.06599
1.06579
1.0656
1.06541
1.06522
1.06504
1.06486
1.06469
1.06453
1.06437
1.06422
1.06408
1.06395
1.06383
1.06372
1.06362
1.06352
1.06345
1.06338
1.06332
1.06328
1.06325
1.06323
1.06322
1.06322
1.06323
1.06325
1.06329
1.06332
1.06337
1.06342
1.06348
1.06355
1.06362
1.06369
1.06376
1.06384
1.06391
1.06399
1.06406
1.06414
1.06421
1.06428
1.06434
1.06441
1.06446
1.06451
1.06456
1.0646
1.06464
1.06467
1.0647
1.06472
1.06473
1.06475
1.06476
1.06477
1.06478
1.06479
1.06479
1.06481
1.06482
1.06484
1.06486
1.06489
1.06492
1.06496
1.06501
1.06506
1.06513
1.0652
1.06528
1.06537
1.06547
1.06558
1.0657
1.06583
1.06596
1.0661
1.06625
1.0664
1.06656
1.06673
1.0669
1.06707
1.06724
1.06742
1.06759
1.06777
1.06795
1.06812
1.0683
1.06847
1.06864
1.0688
1.06897
1.06913
1.06928
1.06943
1.06957
1.06971
1.06985
1.06998
1.0701
1.07023
1.07034
1.07045
1.07056
1.07067
1.07078
1.07088
1.07099
1.07109
1.0712
1.07132
1.07143
1.07155
1.07168
1.07181
1.07195
1.0721
1.07225
1.07242
1.07259
1.07277
1.07295
1.07315
1.07335
1.07356
1.07378
1.074
1.07424
1.07447
1.07472
1.07496
1.07522
1.07548
1.07574
1.07601
1.07629
1.07656
1.07685
1.07713
1.07742
1.07771
1.07801
1.0783
1.0786
1.07889
1.07918
1.07947
1.07975
1.08002
1.08029
1.08054
1.08077
1.08099
1.08119
1.08136
1.08151
1.08163
1.08172
1.07885
1.0789
1.07895
1.079
1.07906
1.07911
1.07917
1.07923
1.0793
1.07937
1.07944
1.07952
1.07959
1.07968
1.07976
1.07985
1.07994
1.08004
1.08014
1.08024
1.08034
1.08045
1.08056
1.08068
1.0808
1.08092
1.08105
1.08117
1.08131
1.08144
1.08158
1.08172
1.08187
1.08201
1.08217
1.08232
1.08248
1.08265
1.08281
1.08298
1.08316
1.08334
1.08352
1.08371
1.0839
1.0841
1.0843
1.08451
1.08472
1.08494
1.08516
1.08538
1.08562
1.08585
1.0861
1.08635
1.0866
1.08687
1.08713
1.08741
1.08769
1.08798
1.08827
1.08857
1.08888
1.0892
1.08952
1.08985
1.09019
1.09054
1.09089
1.09125
1.09161
1.09199
1.09236
1.09275
1.09314
1.09354
1.09394
1.09434
1.09474
1.09515
1.09556
1.09596
1.09637
1.09676
1.09716
1.09754
1.09791
1.09826
1.0986
1.09892
1.09922
1.09949
1.09974
1.09996
1.10014
1.1003
1.10043
1.10052
1.10058
1.10061
1.10062
1.10059
1.10055
1.10048
1.10038
1.10027
1.10015
1.10001
1.09986
1.0997
1.09953
1.09935
1.09917
1.09898
1.09879
1.09859
1.09839
1.09819
1.09799
1.09779
1.09758
1.09738
1.09717
1.09696
1.09676
1.09655
1.09634
1.09613
1.09592
1.09571
1.09551
1.0953
1.09509
1.09488
1.09467
1.09446
1.09425
1.09405
1.09384
1.09364
1.09344
1.09324
1.09304
1.09284
1.09265
1.09246
1.09228
1.09209
1.09191
1.09174
1.09156
1.0914
1.09123
1.09107
1.09091
1.09076
1.09061
1.09046
1.09032
1.09017
1.09003
1.08989
1.08975
1.08961
1.08946
1.08931
1.08915
1.08899
1.08881
1.08862
1.08841
1.08818
1.08792
1.08764
1.08733
1.08698
1.0866
1.08617
1.08571
1.0852
1.08465
1.08405
1.08342
1.08275
1.08204
1.0813
1.08054
1.07976
1.07897
1.07817
1.07738
1.0766
1.07584
1.07511
1.07442
1.07377
1.07317
1.07262
1.07212
1.07169
1.07131
1.07099
1.07073
1.07051
1.07034
1.07021
1.07011
1.07004
1.06999
1.06995
1.06991
1.06988
1.06984
1.06979
1.06974
1.06967
1.06959
1.0695
1.06939
1.06927
1.06913
1.06898
1.06882
1.06865
1.06848
1.06829
1.06809
1.06789
1.06769
1.06748
1.06727
1.06706
1.06685
1.06664
1.06643
1.06623
1.06602
1.06582
1.06563
1.06544
1.06525
1.06507
1.06489
1.06472
1.06456
1.0644
1.06425
1.06411
1.06398
1.06386
1.06375
1.06365
1.06356
1.06348
1.06341
1.06336
1.06332
1.06329
1.06327
1.06326
1.06326
1.06327
1.06329
1.06332
1.06336
1.06341
1.06346
1.06352
1.06358
1.06365
1.06372
1.06379
1.06386
1.06394
1.06401
1.06409
1.06416
1.06423
1.0643
1.06436
1.06442
1.06448
1.06453
1.06458
1.06462
1.06465
1.06468
1.06471
1.06473
1.06475
1.06476
1.06478
1.06479
1.06479
1.0648
1.06481
1.06482
1.06484
1.06486
1.06488
1.06491
1.06494
1.06498
1.06503
1.06508
1.06515
1.06522
1.0653
1.06539
1.06549
1.0656
1.06571
1.06584
1.06597
1.06611
1.06626
1.06641
1.06657
1.06673
1.06689
1.06706
1.06724
1.06741
1.06758
1.06776
1.06793
1.06811
1.06828
1.06845
1.06862
1.06878
1.06894
1.0691
1.06925
1.0694
1.06955
1.06969
1.06982
1.06995
1.07008
1.0702
1.07032
1.07044
1.07055
1.07066
1.07077
1.07088
1.07099
1.0711
1.07122
1.07133
1.07145
1.07158
1.07171
1.07185
1.07199
1.07215
1.07231
1.07247
1.07265
1.07283
1.07302
1.07322
1.07343
1.07364
1.07386
1.07408
1.07431
1.07455
1.07479
1.07503
1.07528
1.07554
1.07579
1.07605
1.07631
1.07658
1.07685
1.07712
1.07739
1.07766
1.07794
1.07821
1.07849
1.07876
1.07902
1.07929
1.07954
1.07979
1.08003
1.08025
1.08046
1.08065
1.08081
1.08096
1.08108
1.08117
1.08123
1.0789
1.07895
1.079
1.07905
1.0791
1.07916
1.07922
1.07928
1.07935
1.07942
1.07949
1.07956
1.07964
1.07972
1.07981
1.0799
1.07999
1.08008
1.08018
1.08028
1.08039
1.0805
1.08061
1.08072
1.08084
1.08096
1.08108
1.08121
1.08134
1.08148
1.08162
1.08176
1.0819
1.08205
1.0822
1.08236
1.08251
1.08268
1.08284
1.08301
1.08319
1.08337
1.08355
1.08374
1.08393
1.08412
1.08432
1.08453
1.08474
1.08495
1.08517
1.0854
1.08563
1.08587
1.08611
1.08636
1.08661
1.08687
1.08714
1.08741
1.08769
1.08798
1.08827
1.08857
1.08887
1.08919
1.08951
1.08983
1.09017
1.09051
1.09086
1.09121
1.09158
1.09194
1.09232
1.0927
1.09309
1.09348
1.09387
1.09427
1.09467
1.09507
1.09548
1.09588
1.09628
1.09668
1.09707
1.09745
1.09782
1.09818
1.09852
1.09884
1.09914
1.09942
1.09967
1.09989
1.10009
1.10025
1.10038
1.10047
1.10054
1.10058
1.10058
1.10056
1.10051
1.10044
1.10035
1.10024
1.10012
1.09998
1.09983
1.09967
1.0995
1.09933
1.09914
1.09896
1.09877
1.09857
1.09838
1.09818
1.09798
1.09778
1.09757
1.09737
1.09716
1.09696
1.09675
1.09654
1.09634
1.09613
1.09592
1.09571
1.0955
1.09529
1.09508
1.09488
1.09467
1.09446
1.09426
1.09405
1.09385
1.09365
1.09345
1.09325
1.09305
1.09286
1.09267
1.09248
1.09229
1.09211
1.09193
1.09176
1.09159
1.09142
1.09125
1.09109
1.09094
1.09078
1.09063
1.09049
1.09034
1.0902
1.09006
1.08992
1.08978
1.08964
1.08949
1.08934
1.08919
1.08902
1.08885
1.08866
1.08845
1.08822
1.08797
1.08769
1.08737
1.08703
1.08664
1.08622
1.08575
1.08524
1.08469
1.0841
1.08346
1.08279
1.08208
1.08134
1.08058
1.0798
1.07901
1.07821
1.07742
1.07665
1.07589
1.07517
1.07448
1.07383
1.07323
1.07268
1.07219
1.07176
1.07139
1.07107
1.0708
1.07059
1.07042
1.07029
1.07019
1.07011
1.07005
1.07001
1.06997
1.06993
1.06988
1.06983
1.06978
1.06971
1.06962
1.06953
1.06942
1.06929
1.06916
1.06901
1.06885
1.06868
1.0685
1.06832
1.06812
1.06792
1.06772
1.06752
1.06731
1.0671
1.06689
1.06668
1.06647
1.06626
1.06606
1.06586
1.06566
1.06547
1.06528
1.0651
1.06492
1.06475
1.06459
1.06443
1.06428
1.06414
1.06401
1.06389
1.06378
1.06368
1.0636
1.06352
1.06345
1.0634
1.06336
1.06333
1.06331
1.0633
1.0633
1.06331
1.06333
1.06336
1.0634
1.06345
1.0635
1.06355
1.06361
1.06368
1.06375
1.06382
1.06389
1.06397
1.06404
1.06411
1.06418
1.06425
1.06432
1.06438
1.06444
1.0645
1.06455
1.0646
1.06464
1.06467
1.0647
1.06473
1.06475
1.06477
1.06478
1.06479
1.0648
1.06481
1.06482
1.06483
1.06485
1.06486
1.06488
1.0649
1.06493
1.06496
1.065
1.06505
1.06511
1.06517
1.06524
1.06532
1.06541
1.06551
1.06562
1.06573
1.06585
1.06598
1.06612
1.06626
1.06642
1.06657
1.06673
1.06689
1.06706
1.06723
1.0674
1.06757
1.06775
1.06792
1.06809
1.06826
1.06843
1.06859
1.06876
1.06892
1.06907
1.06923
1.06937
1.06952
1.06966
1.0698
1.06993
1.07006
1.07018
1.0703
1.07042
1.07054
1.07065
1.07077
1.07088
1.071
1.07111
1.07123
1.07135
1.07148
1.07161
1.07175
1.07189
1.07204
1.0722
1.07236
1.07254
1.07272
1.07291
1.0731
1.0733
1.07351
1.07372
1.07394
1.07417
1.0744
1.07463
1.07487
1.07511
1.07535
1.07559
1.07584
1.07609
1.07634
1.07659
1.07684
1.07709
1.07734
1.0776
1.07785
1.0781
1.07834
1.07859
1.07883
1.07906
1.07929
1.0795
1.07971
1.0799
1.08007
1.08022
1.08036
1.08047
1.08055
1.08061
1.08064
1.07895
1.079
1.07905
1.0791
1.07916
1.07922
1.07928
1.07934
1.07941
1.07947
1.07955
1.07962
1.0797
1.07978
1.07986
1.07995
1.08004
1.08014
1.08023
1.08033
1.08044
1.08055
1.08066
1.08077
1.08089
1.08101
1.08113
1.08126
1.08139
1.08152
1.08166
1.0818
1.08194
1.08209
1.08224
1.08239
1.08255
1.08271
1.08287
1.08304
1.08322
1.08339
1.08358
1.08376
1.08395
1.08415
1.08435
1.08455
1.08476
1.08497
1.08519
1.08541
1.08564
1.08588
1.08612
1.08636
1.08661
1.08687
1.08714
1.08741
1.08768
1.08796
1.08825
1.08855
1.08885
1.08916
1.08948
1.0898
1.09013
1.09047
1.09081
1.09116
1.09152
1.09188
1.09225
1.09263
1.09301
1.09339
1.09378
1.09418
1.09457
1.09497
1.09537
1.09577
1.09617
1.09656
1.09695
1.09733
1.09771
1.09807
1.09841
1.09874
1.09905
1.09933
1.09959
1.09982
1.10001
1.10018
1.10032
1.10042
1.10049
1.10053
1.10054
1.10052
1.10047
1.1004
1.10032
1.10021
1.10008
1.09995
1.0998
1.09964
1.09947
1.0993
1.09912
1.09893
1.09874
1.09855
1.09836
1.09816
1.09796
1.09776
1.09756
1.09736
1.09715
1.09695
1.09674
1.09653
1.09633
1.09612
1.09591
1.0957
1.0955
1.09529
1.09508
1.09487
1.09467
1.09446
1.09426
1.09405
1.09385
1.09365
1.09345
1.09325
1.09306
1.09287
1.09268
1.09249
1.09231
1.09213
1.09195
1.09178
1.09161
1.09144
1.09128
1.09112
1.09096
1.09081
1.09066
1.09052
1.09037
1.09023
1.09009
1.08995
1.08982
1.08968
1.08953
1.08938
1.08923
1.08907
1.08889
1.0887
1.0885
1.08827
1.08802
1.08774
1.08743
1.08708
1.0867
1.08628
1.08581
1.0853
1.08475
1.08415
1.08352
1.08284
1.08213
1.08139
1.08063
1.07985
1.07906
1.07827
1.07748
1.07671
1.07595
1.07523
1.07454
1.0739
1.0733
1.07276
1.07227
1.07184
1.07147
1.07115
1.07089
1.07068
1.0705
1.07037
1.07027
1.07019
1.07012
1.07007
1.07003
1.06998
1.06994
1.06988
1.06982
1.06975
1.06966
1.06956
1.06945
1.06933
1.06919
1.06904
1.06888
1.06871
1.06854
1.06835
1.06816
1.06796
1.06776
1.06755
1.06735
1.06714
1.06693
1.06672
1.06651
1.0663
1.0661
1.0659
1.0657
1.06551
1.06532
1.06513
1.06496
1.06478
1.06462
1.06446
1.06432
1.06418
1.06405
1.06393
1.06382
1.06373
1.06364
1.06356
1.0635
1.06345
1.06341
1.06338
1.06336
1.06335
1.06335
1.06336
1.06338
1.06341
1.06345
1.06349
1.06354
1.06359
1.06365
1.06372
1.06378
1.06385
1.06393
1.064
1.06407
1.06414
1.06421
1.06428
1.06435
1.06441
1.06447
1.06452
1.06457
1.06462
1.06466
1.06469
1.06472
1.06475
1.06477
1.06479
1.0648
1.06481
1.06483
1.06484
1.06485
1.06486
1.06487
1.06489
1.0649
1.06493
1.06496
1.06499
1.06503
1.06508
1.06513
1.0652
1.06527
1.06535
1.06543
1.06553
1.06564
1.06575
1.06587
1.066
1.06613
1.06628
1.06642
1.06658
1.06673
1.0669
1.06706
1.06723
1.06739
1.06756
1.06773
1.0679
1.06807
1.06824
1.06841
1.06857
1.06873
1.06889
1.06904
1.0692
1.06935
1.06949
1.06963
1.06977
1.0699
1.07003
1.07016
1.07028
1.07041
1.07053
1.07064
1.07076
1.07088
1.071
1.07112
1.07125
1.07137
1.07151
1.07164
1.07179
1.07194
1.07209
1.07226
1.07243
1.07261
1.07279
1.07298
1.07318
1.07339
1.0736
1.07382
1.07404
1.07426
1.07449
1.07472
1.07495
1.07518
1.07542
1.07565
1.07589
1.07612
1.07635
1.07659
1.07682
1.07705
1.07728
1.0775
1.07773
1.07795
1.07817
1.07838
1.07858
1.07878
1.07897
1.07915
1.07932
1.07947
1.07961
1.07972
1.07982
1.07989
1.07994
1.07996
1.07995
1.07901
1.07906
1.07911
1.07917
1.07922
1.07928
1.07934
1.0794
1.07947
1.07954
1.07961
1.07968
1.07976
1.07984
1.07992
1.08001
1.0801
1.08019
1.08029
1.08039
1.08049
1.0806
1.08071
1.08082
1.08094
1.08106
1.08118
1.08131
1.08143
1.08157
1.0817
1.08184
1.08198
1.08213
1.08228
1.08243
1.08259
1.08275
1.08291
1.08308
1.08325
1.08342
1.0836
1.08379
1.08398
1.08417
1.08437
1.08457
1.08478
1.08499
1.0852
1.08543
1.08565
1.08588
1.08612
1.08636
1.08661
1.08687
1.08713
1.0874
1.08767
1.08795
1.08823
1.08853
1.08882
1.08913
1.08944
1.08976
1.09009
1.09042
1.09076
1.0911
1.09146
1.09181
1.09218
1.09255
1.09292
1.0933
1.09368
1.09407
1.09446
1.09486
1.09525
1.09565
1.09604
1.09643
1.09682
1.0972
1.09757
1.09794
1.09828
1.09862
1.09893
1.09922
1.09948
1.09972
1.09993
1.1001
1.10024
1.10035
1.10043
1.10047
1.10048
1.10047
1.10043
1.10036
1.10027
1.10016
1.10004
1.09991
1.09976
1.0996
1.09944
1.09926
1.09909
1.0989
1.09872
1.09853
1.09833
1.09814
1.09794
1.09774
1.09754
1.09734
1.09714
1.09693
1.09673
1.09652
1.09631
1.09611
1.0959
1.09569
1.09549
1.09528
1.09507
1.09487
1.09466
1.09446
1.09425
1.09405
1.09385
1.09365
1.09345
1.09326
1.09307
1.09288
1.09269
1.09251
1.09232
1.09215
1.09197
1.0918
1.09163
1.09147
1.0913
1.09115
1.09099
1.09084
1.09069
1.09055
1.09041
1.09027
1.09013
1.08999
1.08986
1.08972
1.08958
1.08943
1.08928
1.08912
1.08894
1.08876
1.08855
1.08833
1.08808
1.0878
1.08749
1.08715
1.08677
1.08634
1.08588
1.08537
1.08481
1.08422
1.08358
1.08291
1.0822
1.08146
1.0807
1.07992
1.07913
1.07834
1.07755
1.07678
1.07603
1.07531
1.07462
1.07398
1.07339
1.07285
1.07237
1.07194
1.07157
1.07125
1.07099
1.07077
1.0706
1.07046
1.07035
1.07027
1.0702
1.07014
1.07009
1.07005
1.06999
1.06994
1.06987
1.06979
1.0697
1.0696
1.06949
1.06936
1.06923
1.06908
1.06892
1.06875
1.06857
1.06839
1.0682
1.068
1.0678
1.0676
1.06739
1.06718
1.06697
1.06677
1.06656
1.06635
1.06614
1.06594
1.06574
1.06555
1.06536
1.06517
1.06499
1.06482
1.06466
1.0645
1.06436
1.06422
1.06409
1.06397
1.06387
1.06377
1.06369
1.06361
1.06355
1.0635
1.06346
1.06343
1.06341
1.06341
1.06341
1.06342
1.06344
1.06347
1.0635
1.06354
1.06359
1.06364
1.0637
1.06376
1.06383
1.0639
1.06396
1.06403
1.06411
1.06418
1.06424
1.06431
1.06437
1.06444
1.06449
1.06455
1.06459
1.06464
1.06468
1.06471
1.06474
1.06477
1.06479
1.06481
1.06482
1.06484
1.06485
1.06486
1.06487
1.06488
1.0649
1.06491
1.06493
1.06496
1.06499
1.06502
1.06506
1.06511
1.06516
1.06522
1.06529
1.06537
1.06546
1.06555
1.06566
1.06577
1.06589
1.06601
1.06615
1.06629
1.06643
1.06658
1.06674
1.0669
1.06706
1.06722
1.06739
1.06755
1.06772
1.06789
1.06805
1.06822
1.06838
1.06854
1.0687
1.06886
1.06902
1.06917
1.06932
1.06946
1.0696
1.06974
1.06988
1.07001
1.07014
1.07027
1.07039
1.07051
1.07064
1.07076
1.07088
1.07101
1.07113
1.07126
1.0714
1.07154
1.07168
1.07183
1.07199
1.07215
1.07232
1.0725
1.07268
1.07287
1.07307
1.07327
1.07348
1.07369
1.07391
1.07413
1.07435
1.07458
1.0748
1.07503
1.07525
1.07548
1.0757
1.07592
1.07614
1.07635
1.07657
1.07678
1.07698
1.07718
1.07738
1.07758
1.07776
1.07795
1.07812
1.07829
1.07845
1.0786
1.07874
1.07887
1.07898
1.07907
1.07914
1.07919
1.07922
1.07923
1.07921
1.07917
1.07908
1.07913
1.07919
1.07924
1.0793
1.07936
1.07942
1.07948
1.07954
1.07961
1.07968
1.07976
1.07983
1.07991
1.07999
1.08008
1.08017
1.08026
1.08036
1.08046
1.08056
1.08066
1.08077
1.08088
1.081
1.08112
1.08124
1.08136
1.08149
1.08162
1.08175
1.08189
1.08203
1.08217
1.08232
1.08247
1.08263
1.08279
1.08295
1.08311
1.08328
1.08346
1.08364
1.08382
1.084
1.08419
1.08439
1.08459
1.08479
1.085
1.08522
1.08543
1.08566
1.08589
1.08612
1.08636
1.08661
1.08686
1.08711
1.08738
1.08765
1.08792
1.0882
1.08849
1.08878
1.08909
1.08939
1.08971
1.09003
1.09035
1.09069
1.09103
1.09137
1.09173
1.09208
1.09245
1.09281
1.09319
1.09356
1.09394
1.09433
1.09472
1.0951
1.09549
1.09588
1.09627
1.09666
1.09704
1.09741
1.09778
1.09813
1.09847
1.09879
1.09909
1.09936
1.0996
1.09982
1.1
1.10015
1.10027
1.10035
1.1004
1.10042
1.1004
1.10036
1.1003
1.10021
1.10011
1.09999
1.09985
1.09971
1.09955
1.09939
1.09922
1.09904
1.09886
1.09868
1.09849
1.0983
1.09811
1.09791
1.09772
1.09752
1.09732
1.09712
1.09691
1.09671
1.0965
1.0963
1.09609
1.09588
1.09568
1.09547
1.09526
1.09506
1.09485
1.09465
1.09445
1.09425
1.09404
1.09385
1.09365
1.09345
1.09326
1.09307
1.09288
1.0927
1.09252
1.09234
1.09216
1.09199
1.09182
1.09165
1.09149
1.09133
1.09118
1.09102
1.09088
1.09073
1.09059
1.09045
1.09031
1.09017
1.09004
1.0899
1.08976
1.08962
1.08948
1.08933
1.08917
1.089
1.08882
1.08862
1.0884
1.08815
1.08787
1.08757
1.08722