# vtk DataFile Version 2.0
LBE two cylinders
ASCII
DATASET STRUCTURED_POINTS
DIMENSIONS 400 100 1
ASPECT_RATIO 1 1 1
ORIGIN 0 0 0
POINT_DATA 40000
SCALARS rho double 1
LOOKUP_TABLE default
1.07683
1.07692
1.07701
1.07712
1.07722
1.07733
1.07743
1.07754
1.07765
1.07776
1.07787
1.07798
1.07809
1.07821
1.07832
1.07844
1.07856
1.07867
1.07879
1.07891
1.07904
1.07916
1.07928
1.07941
1.07954
1.07967
1.0798
1.07994
1.08007
1.08021
1.08036
1.0805
1.08065
1.0808
1.08096
1.08111
1.08127
1.08144
1.08161
1.08178
1.08196
1.08214
1.08233
1.08252
1.08271
1.08291
1.08311
1.08332
1.08353
1.08375
1.08397
1.0842
1.08444
1.08467
1.08492
1.08517
1.08543
1.08569
1.08596
1.08624
1.08652
1.08681
1.08711
1.08742
1.08773
1.08805
1.08838
1.08872
1.08907
1.08942
1.08979
1.09016
1.09054
1.09093
1.09133
1.09174
1.09215
1.09257
1.093
1.09343
1.09386
1.0943
1.09474
1.09518
1.09561
1.09604
1.09646
1.09687
1.09727
1.09765
1.09801
1.09835
1.09867
1.09896
1.09922
1.09945
1.09965
1.09981
1.09995
1.10004
1.10011
1.10014
1.10014
1.10012
1.10007
1.09999
1.09989
1.09978
1.09964
1.0995
1.09933
1.09916
1.09898
1.0988
1.0986
1.09841
1.0982
1.098
1.09779
1.09759
1.09738
1.09717
1.09696
1.09675
1.09654
1.09633
1.09612
1.09591
1.0957
1.09549
1.09528
1.09508
1.09487
1.09467
1.09447
1.09427
1.09407
1.09387
1.09367
1.09348
1.09329
1.0931
1.09291
1.09272
1.09254
1.09236
1.09217
1.09199
1.09182
1.09164
1.09146
1.09129
1.09111
1.09093
1.09075
1.09057
1.09039
1.0902
1.09
1.08979
1.08958
1.08935
1.0891
1.08883
1.08854
1.08822
1.08787
1.08748
1.08707
1.08661
1.08611
1.08557
1.08499
1.08436
1.0837
1.083
1.08226
1.0815
1.08071
1.0799
1.07908
1.07825
1.07743
1.07662
1.07583
1.07506
1.07434
1.07365
1.073
1.07241
1.07188
1.0714
1.07097
1.0706
1.07029
1.07002
1.06979
1.06961
1.06945
1.06931
1.0692
1.06909
1.06899
1.06889
1.06878
1.06868
1.06856
1.06843
1.06829
1.06814
1.06798
1.06781
1.06763
1.06745
1.06725
1.06705
1.06685
1.06664
1.06643
1.06622
1.06601
1.0658
1.06559
1.06538
1.06518
1.06497
1.06478
1.06458
1.06438
1.06419
1.064
1.06382
1.06363
1.06345
1.06327
1.06309
1.06291
1.06274
1.06258
1.06242
1.06226
1.06211
1.06197
1.06184
1.06172
1.0616
1.0615
1.06141
1.06132
1.06125
1.06119
1.06114
1.06109
1.06106
1.06104
1.06102
1.06102
1.06102
1.06102
1.06103
1.06105
1.06107
1.0611
1.06113
1.06116
1.06119
1.06122
1.06125
1.06128
1.06131
1.06134
1.06136
1.06138
1.06139
1.0614
1.06141
1.0614
1.06139
1.06137
1.06135
1.06132
1.06128
1.06124
1.06119
1.06114
1.06109
1.06103
1.06098
1.06092
1.06086
1.0608
1.06075
1.0607
1.06065
1.0606
1.06057
1.06053
1.06051
1.06049
1.06048
1.06048
1.06049
1.0605
1.06053
1.06056
1.06061
1.06066
1.06072
1.0608
1.06088
1.06096
1.06106
1.06117
1.06128
1.06139
1.06152
1.06165
1.06179
1.06193
1.06207
1.06222
1.06238
1.06254
1.0627
1.06287
1.06304
1.06322
1.0634
1.06358
1.06377
1.06396
1.06415
1.06435
1.06455
1.06475
1.06496
1.06517
1.06538
1.0656
1.06582
1.06605
1.06628
1.06652
1.06676
1.067
1.06725
1.0675
1.06775
1.068
1.06825
1.0685
1.06876
1.069
1.06925
1.06949
1.06972
1.06995
1.07016
1.07037
1.07057
1.07076
1.07094
1.0711
1.07125
1.0714
1.07153
1.07164
1.07175
1.07185
1.07193
1.07201
1.07208
1.07214
1.0722
1.07225
1.0723
1.07235
1.0724
1.07245
1.0725
1.07256
1.07263
1.0727
1.07278
1.07287
1.07296
1.07307
1.07319
1.07331
1.07346
1.07361
1.07377
1.07395
1.07415
1.07435
1.07457
1.0748
1.07504
1.07529
1.07554
1.07685
1.07694
1.07704
1.07714
1.07724
1.07735
1.07746
1.07756
1.07767
1.07778
1.07789
1.07801
1.07812
1.07823
1.07835
1.07846
1.07858
1.0787
1.07882
1.07894
1.07906
1.07919
1.07931
1.07944
1.07957
1.0797
1.07983
1.07996
1.0801
1.08024
1.08038
1.08053
1.08068
1.08083
1.08098
1.08114
1.0813
1.08147
1.08164
1.08181
1.08199
1.08217
1.08236
1.08255
1.08274
1.08294
1.08314
1.08335
1.08356
1.08378
1.084
1.08423
1.08447
1.0847
1.08495
1.0852
1.08546
1.08572
1.08599
1.08626
1.08655
1.08684
1.08713
1.08744
1.08775
1.08807
1.0884
1.08874
1.08908
1.08944
1.0898
1.09017
1.09055
1.09094
1.09133
1.09173
1.09214
1.09256
1.09298
1.0934
1.09383
1.09426
1.09469
1.09513
1.09555
1.09597
1.09639
1.09679
1.09718
1.09756
1.09792
1.09825
1.09856
1.09885
1.09911
1.09934
1.09953
1.0997
1.09983
1.09993
1.1
1.10003
1.10004
1.10002
1.09997
1.0999
1.09981
1.0997
1.09957
1.09943
1.09927
1.09911
1.09893
1.09875
1.09856
1.09837
1.09817
1.09797
1.09776
1.09756
1.09735
1.09714
1.09694
1.09673
1.09652
1.09631
1.0961
1.09589
1.09569
1.09548
1.09527
1.09507
1.09487
1.09466
1.09446
1.09427
1.09407
1.09387
1.09368
1.09349
1.09329
1.09311
1.09292
1.09273
1.09255
1.09237
1.09219
1.09201
1.09183
1.09166
1.09148
1.09131
1.09113
1.09095
1.09078
1.09059
1.09041
1.09022
1.09002
1.08981
1.08959
1.08936
1.08911
1.08884
1.08854
1.08822
1.08787
1.08748
1.08706
1.0866
1.0861
1.08555
1.08497
1.08434
1.08368
1.08298
1.08224
1.08147
1.08069
1.07988
1.07906
1.07824
1.07743
1.07662
1.07584
1.07508
1.07436
1.07367
1.07304
1.07245
1.07192
1.07145
1.07103
1.07066
1.07035
1.07008
1.06985
1.06966
1.0695
1.06936
1.06924
1.06913
1.06903
1.06892
1.06881
1.0687
1.06858
1.06845
1.06831
1.06816
1.068
1.06783
1.06765
1.06746
1.06727
1.06707
1.06686
1.06666
1.06645
1.06623
1.06602
1.06581
1.0656
1.0654
1.06519
1.06499
1.06479
1.06459
1.0644
1.06421
1.06402
1.06383
1.06364
1.06346
1.06328
1.0631
1.06293
1.06276
1.06259
1.06243
1.06228
1.06213
1.06199
1.06186
1.06174
1.06162
1.06152
1.06143
1.06135
1.06128
1.06121
1.06116
1.06112
1.06109
1.06107
1.06105
1.06104
1.06104
1.06105
1.06106
1.06108
1.0611
1.06112
1.06115
1.06118
1.06121
1.06124
1.06127
1.0613
1.06133
1.06135
1.06138
1.06139
1.06141
1.06141
1.06141
1.06141
1.0614
1.06138
1.06136
1.06132
1.06129
1.06125
1.0612
1.06115
1.06109
1.06104
1.06098
1.06092
1.06087
1.06081
1.06075
1.0607
1.06066
1.06061
1.06058
1.06055
1.06052
1.0605
1.06049
1.06049
1.0605
1.06052
1.06054
1.06058
1.06062
1.06068
1.06074
1.06081
1.06089
1.06098
1.06107
1.06118
1.06129
1.0614
1.06153
1.06166
1.06179
1.06193
1.06208
1.06223
1.06239
1.06254
1.06271
1.06288
1.06305
1.06322
1.0634
1.06358
1.06377
1.06396
1.06415
1.06435
1.06454
1.06475
1.06496
1.06517
1.06538
1.0656
1.06582
1.06605
1.06628
1.06652
1.06676
1.067
1.06724
1.06749
1.06774
1.068
1.06825
1.0685
1.06875
1.069
1.06924
1.06948
1.06971
1.06994
1.07015
1.07036
1.07056
1.07075
1.07092
1.07109
1.07124
1.07138
1.07151
1.07163
1.07174
1.07184
1.07192
1.072
1.07207
1.07214
1.07219
1.07225
1.0723
1.07235
1.0724
1.07246
1.07252
1.07258
1.07264
1.07272
1.0728
1.07289
1.07298
1.07309
1.07321
1.07334
1.07348
1.07363
1.0738
1.07398
1.07417
1.07437
1.07459
1.07482
1.07505
1.0753
1.07555
1.07689
1.07699
1.07708
1.07719
1.07729
1.07739
1.0775
1.07761
1.07772
1.07783
1.07794
1.07805
1.07816
1.07828
1.07839
1.07851
1.07863
1.07874
1.07886
1.07898
1.07911
1.07923
1.07935
1.07948
1.07961
1.07974
1.07987
1.08001
1.08014
1.08028
1.08043
1.08057
1.08072
1.08087
1.08102
1.08118
1.08134
1.08151
1.08168
1.08185
1.08203
1.08221
1.08239
1.08258
1.08278
1.08297
1.08318
1.08338
1.0836
1.08381
1.08404
1.08426
1.0845
1.08474
1.08498
1.08523
1.08549
1.08575
1.08602
1.08629
1.08657
1.08686
1.08716
1.08746
1.08777
1.08809
1.08842
1.08875
1.0891
1.08945
1.08981
1.09017
1.09055
1.09093
1.09132
1.09172
1.09213
1.09254
1.09295
1.09337
1.0938
1.09422
1.09465
1.09508
1.0955
1.09592
1.09632
1.09672
1.09711
1.09748
1.09784
1.09817
1.09848
1.09876
1.09902
1.09925
1.09944
1.09961
1.09974
1.09984
1.09991
1.09995
1.09996
1.09994
1.0999
1.09983
1.09975
1.09964
1.09952
1.09938
1.09923
1.09906
1.09889
1.09871
1.09853
1.09834
1.09814
1.09794
1.09774
1.09754
1.09733
1.09713
1.09692
1.09671
1.09651
1.0963
1.09609
1.09589
1.09568
1.09548
1.09527
1.09507
1.09487
1.09467
1.09447
1.09427
1.09408
1.09388
1.09369
1.0935
1.09331
1.09312
1.09294
1.09276
1.09257
1.09239
1.09222
1.09204
1.09186
1.09169
1.09151
1.09134
1.09116
1.09099
1.09081
1.09063
1.09045
1.09026
1.09006
1.08985
1.08963
1.0894
1.08914
1.08887
1.08857
1.08825
1.08789
1.0875
1.08708
1.08661
1.08611
1.08556
1.08497
1.08435
1.08368
1.08297
1.08224
1.08147
1.08068
1.07988
1.07906
1.07825
1.07743
1.07664
1.07586
1.0751
1.07439
1.07371
1.07308
1.0725
1.07198
1.07151
1.07109
1.07073
1.07042
1.07015
1.06992
1.06973
1.06957
1.06943
1.06931
1.06919
1.06909
1.06898
1.06887
1.06875
1.06863
1.0685
1.06835
1.0682
1.06804
1.06787
1.06769
1.0675
1.0673
1.0671
1.0669
1.06669
1.06648
1.06627
1.06606
1.06585
1.06564
1.06543
1.06522
1.06502
1.06482
1.06462
1.06443
1.06423
1.06404
1.06385
1.06367
1.06348
1.0633
1.06312
1.06295
1.06278
1.06261
1.06246
1.0623
1.06216
1.06202
1.06189
1.06177
1.06165
1.06155
1.06146
1.06138
1.06131
1.06125
1.0612
1.06116
1.06113
1.0611
1.06109
1.06108
1.06108
1.06109
1.0611
1.06111
1.06113
1.06116
1.06118
1.06121
1.06124
1.06127
1.0613
1.06133
1.06136
1.06138
1.0614
1.06142
1.06143
1.06144
1.06143
1.06143
1.06142
1.0614
1.06137
1.06134
1.0613
1.06126
1.06121
1.06116
1.06111
1.06105
1.06099
1.06094
1.06088
1.06082
1.06077
1.06072
1.06067
1.06063
1.06059
1.06056
1.06054
1.06052
1.06051
1.06051
1.06052
1.06054
1.06056
1.0606
1.06064
1.0607
1.06076
1.06083
1.06091
1.061
1.06109
1.06119
1.0613
1.06142
1.06154
1.06167
1.0618
1.06194
1.06209
1.06224
1.06239
1.06255
1.06271
1.06288
1.06305
1.06323
1.0634
1.06358
1.06377
1.06396
1.06415
1.06435
1.06454
1.06475
1.06495
1.06516
1.06538
1.0656
1.06582
1.06605
1.06628
1.06651
1.06675
1.06699
1.06724
1.06749
1.06774
1.06799
1.06824
1.06849
1.06874
1.06899
1.06923
1.06947
1.0697
1.06992
1.07014
1.07035
1.07054
1.07073
1.07091
1.07107
1.07122
1.07137
1.0715
1.07161
1.07172
1.07182
1.07191
1.07199
1.07206
1.07213
1.07219
1.07225
1.0723
1.07236
1.07241
1.07247
1.07253
1.0726
1.07267
1.07274
1.07283
1.07292
1.07302
1.07313
1.07325
1.07338
1.07352
1.07368
1.07384
1.07402
1.07421
1.07441
1.07463
1.07485
1.07509
1.07533
1.07558
1.07695
1.07705
1.07715
1.07725
1.07736
1.07746
1.07757
1.07767
1.07778
1.07789
1.078
1.07812
1.07823
1.07834
1.07846
1.07857
1.07869
1.07881
1.07893
1.07905
1.07917
1.07929
1.07942
1.07954
1.07967
1.0798
1.07993
1.08007
1.0802
1.08034
1.08048
1.08063
1.08077
1.08092
1.08108
1.08123
1.08139
1.08156
1.08173
1.0819
1.08207
1.08225
1.08244
1.08263
1.08282
1.08302
1.08322
1.08342
1.08364
1.08385
1.08407
1.0843
1.08453
1.08477
1.08501
1.08526
1.08551
1.08578
1.08604
1.08632
1.0866
1.08688
1.08718
1.08748
1.08779
1.0881
1.08843
1.08876
1.0891
1.08945
1.0898
1.09017
1.09054
1.09092
1.09131
1.0917
1.0921
1.09251
1.09292
1.09333
1.09375
1.09417
1.0946
1.09502
1.09544
1.09585
1.09626
1.09665
1.09704
1.09741
1.09776
1.09809
1.0984
1.09868
1.09894
1.09917
1.09937
1.09953
1.09967
1.09977
1.09984
1.09988
1.0999
1.09988
1.09984
1.09978
1.09969
1.09959
1.09947
1.09933
1.09918
1.09902
1.09885
1.09868
1.0985
1.09831
1.09812
1.09792
1.09772
1.09752
1.09732
1.09712
1.09691
1.09671
1.0965
1.0963
1.09609
1.09589
1.09569
1.09548
1.09528
1.09508
1.09488
1.09468
1.09448
1.09429
1.0941
1.0939
1.09371
1.09352
1.09334
1.09315
1.09297
1.09279
1.09261
1.09243
1.09225
1.09208
1.0919
1.09173
1.09156
1.09138
1.09121
1.09104
1.09086
1.09068
1.0905
1.09031
1.09011
1.0899
1.08968
1.08945
1.0892
1.08892
1.08862
1.0883
1.08794
1.08755
1.08712
1.08665
1.08614
1.08559
1.085
1.08437
1.0837
1.083
1.08226
1.08149
1.08071
1.0799
1.07909
1.07827
1.07746
1.07667
1.07589
1.07515
1.07444
1.07377
1.07314
1.07257
1.07205
1.07158
1.07117
1.07081
1.0705
1.07024
1.07001
1.06982
1.06966
1.06952
1.06939
1.06928
1.06917
1.06906
1.06894
1.06883
1.0687
1.06856
1.06842
1.06827
1.0681
1.06793
1.06775
1.06756
1.06736
1.06716
1.06695
1.06674
1.06653
1.06632
1.06611
1.0659
1.06569
1.06548
1.06527
1.06507
1.06487
1.06467
1.06447
1.06428
1.06408
1.06389
1.06371
1.06352
1.06334
1.06316
1.06299
1.06281
1.06265
1.06249
1.06234
1.06219
1.06206
1.06193
1.06181
1.0617
1.0616
1.06151
1.06143
1.06136
1.0613
1.06125
1.06121
1.06118
1.06115
1.06114
1.06113
1.06113
1.06114
1.06115
1.06116
1.06118
1.06121
1.06123
1.06126
1.06129
1.06132
1.06135
1.06137
1.0614
1.06142
1.06144
1.06145
1.06146
1.06147
1.06147
1.06146
1.06144
1.06142
1.06139
1.06136
1.06132
1.06128
1.06123
1.06118
1.06113
1.06107
1.06101
1.06095
1.0609
1.06084
1.06079
1.06074
1.06069
1.06065
1.06061
1.06058
1.06056
1.06054
1.06054
1.06054
1.06054
1.06056
1.06059
1.06062
1.06067
1.06072
1.06078
1.06085
1.06093
1.06102
1.06111
1.06121
1.06132
1.06144
1.06156
1.06169
1.06182
1.06196
1.0621
1.06225
1.0624
1.06256
1.06272
1.06289
1.06306
1.06323
1.06341
1.06359
1.06377
1.06396
1.06415
1.06435
1.06454
1.06475
1.06495
1.06516
1.06537
1.06559
1.06581
1.06604
1.06627
1.0665
1.06674
1.06698
1.06723
1.06748
1.06773
1.06798
1.06823
1.06848
1.06873
1.06897
1.06921
1.06945
1.06968
1.06991
1.07012
1.07033
1.07052
1.07071
1.07088
1.07105
1.0712
1.07134
1.07147
1.07159
1.0717
1.0718
1.07189
1.07197
1.07204
1.07211
1.07218
1.07224
1.0723
1.07236
1.07242
1.07249
1.07255
1.07262
1.0727
1.07278
1.07287
1.07296
1.07307
1.07318
1.0733
1.07344
1.07358
1.07374
1.0739
1.07408
1.07427
1.07447
1.07469
1.07491
1.07514
1.07539
1.07564
1.07704
1.07714
1.07724
1.07734
1.07745
1.07755
1.07766
1.07777
1.07787
1.07798
1.07809
1.0782
1.07832
1.07843
1.07854
1.07866
1.07878
1.07889
1.07901
1.07913
1.07925
1.07937
1.0795
1.07962
1.07975
1.07988
1.08001
1.08014
1.08028
1.08042
1.08056
1.0807
1.08084
1.08099
1.08115
1.0813
1.08146
1.08162
1.08179
1.08196
1.08213
1.08231
1.08249
1.08268
1.08287
1.08307
1.08327
1.08347
1.08368
1.0839
1.08411
1.08434
1.08457
1.0848
1.08505
1.08529
1.08554
1.0858
1.08607
1.08634
1.08662
1.0869
1.08719
1.08749
1.0878
1.08811
1.08843
1.08876
1.0891
1.08944
1.0898
1.09016
1.09052
1.0909
1.09128
1.09167
1.09207
1.09247
1.09287
1.09329
1.0937
1.09412
1.09453
1.09495
1.09537
1.09578
1.09618
1.09658
1.09696
1.09733
1.09768
1.09801
1.09832
1.09861
1.09887
1.0991
1.0993
1.09946
1.0996
1.09971
1.09978
1.09982
1.09984
1.09983
1.09979
1.09973
1.09964
1.09954
1.09942
1.09929
1.09915
1.09899
1.09882
1.09865
1.09847
1.09829
1.0981
1.0979
1.09771
1.09751
1.09731
1.09711
1.09691
1.09671
1.0965
1.0963
1.0961
1.0959
1.0957
1.0955
1.0953
1.0951
1.0949
1.0947
1.09451
1.09431
1.09412
1.09393
1.09374
1.09356
1.09337
1.09319
1.09301
1.09283
1.09265
1.09247
1.0923
1.09212
1.09195
1.09178
1.09161
1.09144
1.09127
1.0911
1.09092
1.09074
1.09056
1.09037
1.09018
1.08997
1.08975
1.08952
1.08927
1.08899
1.08869
1.08837
1.08801
1.08761
1.08718
1.08671
1.0862
1.08565
1.08506
1.08443
1.08375
1.08305
1.08231
1.08154
1.08075
1.07995
1.07914
1.07832
1.07752
1.07673
1.07595
1.07521
1.07451
1.07384
1.07322
1.07265
1.07214
1.07168
1.07127
1.07091
1.07061
1.07034
1.07012
1.06993
1.06977
1.06962
1.0695
1.06938
1.06927
1.06916
1.06904
1.06892
1.06879
1.06866
1.06851
1.06835
1.06819
1.06801
1.06783
1.06764
1.06744
1.06724
1.06703
1.06682
1.06661
1.0664
1.06619
1.06597
1.06576
1.06555
1.06534
1.06514
1.06493
1.06473
1.06453
1.06434
1.06414
1.06395
1.06376
1.06357
1.06339
1.06321
1.06303
1.06286
1.0627
1.06254
1.06239
1.06224
1.06211
1.06198
1.06186
1.06175
1.06165
1.06156
1.06148
1.06142
1.06136
1.06131
1.06127
1.06124
1.06121
1.0612
1.06119
1.06119
1.0612
1.06121
1.06122
1.06124
1.06127
1.06129
1.06132
1.06135
1.06137
1.0614
1.06143
1.06145
1.06147
1.06149
1.0615
1.06151
1.06151
1.06151
1.0615
1.06148
1.06146
1.06143
1.06139
1.06135
1.06131
1.06126
1.06121
1.06115
1.0611
1.06104
1.06098
1.06092
1.06087
1.06082
1.06077
1.06072
1.06068
1.06064
1.06061
1.06059
1.06057
1.06057
1.06056
1.06057
1.06059
1.06062
1.06065
1.06069
1.06075
1.06081
1.06088
1.06096
1.06104
1.06114
1.06124
1.06134
1.06146
1.06158
1.06171
1.06184
1.06197
1.06212
1.06226
1.06242
1.06257
1.06273
1.0629
1.06307
1.06324
1.06341
1.06359
1.06378
1.06396
1.06415
1.06435
1.06454
1.06474
1.06495
1.06516
1.06537
1.06559
1.06581
1.06603
1.06626
1.0665
1.06673
1.06697
1.06722
1.06746
1.06771
1.06796
1.06821
1.06846
1.06871
1.06895
1.06919
1.06943
1.06966
1.06988
1.0701
1.0703
1.0705
1.07068
1.07085
1.07102
1.07117
1.07131
1.07144
1.07156
1.07167
1.07177
1.07186
1.07194
1.07202
1.0721
1.07217
1.07224
1.0723
1.07237
1.07244
1.07251
1.07258
1.07266
1.07274
1.07283
1.07292
1.07302
1.07313
1.07325
1.07337
1.07351
1.07365
1.07381
1.07398
1.07416
1.07435
1.07455
1.07476
1.07498
1.07521
1.07545
1.0757
1.07715
1.07725
1.07736
1.07746
1.07756
1.07767
1.07778
1.07788
1.07799
1.0781
1.07821
1.07832
1.07843
1.07854
1.07866
1.07877
1.07889
1.079
1.07912
1.07924
1.07936
1.07948
1.0796
1.07973
1.07985
1.07998
1.08011
1.08024
1.08037
1.08051
1.08065
1.08079
1.08093
1.08108
1.08123
1.08138
1.08154
1.0817
1.08186
1.08203
1.0822
1.08238
1.08256
1.08274
1.08293
1.08313
1.08332
1.08353
1.08373
1.08395
1.08416
1.08438
1.08461
1.08485
1.08508
1.08533
1.08558
1.08583
1.0861
1.08636
1.08664
1.08692
1.08721
1.0875
1.08781
1.08812
1.08843
1.08876
1.08909
1.08943
1.08978
1.09013
1.09049
1.09086
1.09124
1.09162
1.09202
1.09241
1.09281
1.09322
1.09363
1.09404
1.09445
1.09487
1.09528
1.09569
1.09609
1.09648
1.09686
1.09723
1.09759
1.09792
1.09823
1.09852
1.09878
1.09902
1.09922
1.09939
1.09953
1.09964
1.09972
1.09977
1.09978
1.09977
1.09974
1.09968
1.0996
1.0995
1.09938
1.09925
1.09911
1.09895
1.09879
1.09862
1.09844
1.09826
1.09808
1.09789
1.0977
1.0975
1.0973
1.09711
1.09691
1.09671
1.09651
1.09631
1.09611
1.09591
1.09571
1.09552
1.09532
1.09512
1.09493
1.09473
1.09454
1.09435
1.09416
1.09397
1.09378
1.0936
1.09342
1.09323
1.09306
1.09288
1.0927
1.09253
1.09236
1.09218
1.09201
1.09185
1.09168
1.09151
1.09134
1.09117
1.091
1.09082
1.09064
1.09046
1.09026
1.09006
1.08984
1.08961
1.08936
1.08908
1.08878
1.08846
1.0881
1.0877
1.08727
1.0868
1.08629
1.08574
1.08514
1.08451
1.08383
1.08312
1.08238
1.08161
1.08083
1.08002
1.07921
1.0784
1.0776
1.07681
1.07604
1.0753
1.0746
1.07394
1.07333
1.07276
1.07225
1.0718
1.07139
1.07104
1.07074
1.07048
1.07025
1.07006
1.0699
1.06976
1.06963
1.06951
1.0694
1.06928
1.06916
1.06904
1.06891
1.06877
1.06862
1.06846
1.0683
1.06812
1.06794
1.06775
1.06755
1.06735
1.06714
1.06693
1.06672
1.0665
1.06629
1.06607
1.06586
1.06565
1.06544
1.06523
1.06502
1.06482
1.06462
1.06442
1.06422
1.06402
1.06383
1.06364
1.06346
1.06328
1.0631
1.06293
1.06276
1.0626
1.06245
1.06231
1.06217
1.06205
1.06193
1.06182
1.06172
1.06163
1.06156
1.06149
1.06143
1.06138
1.06134
1.06131
1.06129
1.06128
1.06127
1.06127
1.06127
1.06128
1.0613
1.06132
1.06134
1.06136
1.06139
1.06142
1.06144
1.06147
1.06149
1.06151
1.06153
1.06155
1.06156
1.06156
1.06156
1.06155
1.06154
1.06152
1.0615
1.06147
1.06143
1.06139
1.06135
1.0613
1.06124
1.06119
1.06113
1.06107
1.06102
1.06096
1.0609
1.06085
1.0608
1.06075
1.06071
1.06068
1.06065
1.06062
1.06061
1.0606
1.0606
1.06061
1.06063
1.06065
1.06069
1.06073
1.06078
1.06084
1.06091
1.06099
1.06107
1.06116
1.06126
1.06137
1.06148
1.0616
1.06173
1.06186
1.062
1.06214
1.06228
1.06243
1.06259
1.06275
1.06291
1.06308
1.06325
1.06342
1.0636
1.06378
1.06397
1.06415
1.06435
1.06454
1.06474
1.06495
1.06515
1.06536
1.06558
1.0658
1.06602
1.06625
1.06648
1.06672
1.06696
1.0672
1.06745
1.0677
1.06794
1.06819
1.06844
1.06869
1.06893
1.06917
1.0694
1.06963
1.06985
1.07007
1.07027
1.07046
1.07065
1.07082
1.07098
1.07113
1.07127
1.0714
1.07152
1.07163
1.07173
1.07183
1.07192
1.072
1.07208
1.07215
1.07223
1.0723
1.07238
1.07245
1.07253
1.07261
1.07269
1.07278
1.07288
1.07298
1.07309
1.0732
1.07332
1.07345
1.07359
1.07374
1.0739
1.07407
1.07425
1.07444
1.07464
1.07485
1.07507
1.0753
1.07553
1.07578
1.0773
1.0774
1.07751
1.07761
1.07771
1.07782
1.07792
1.07803
1.07814
1.07825
1.07835
1.07846
1.07857
1.07869
1.0788
1.07891
1.07902
1.07914
1.07925
1.07937
1.07949
1.07961
1.07973
1.07985
1.07998
1.0801
1.08023
1.08036
1.08049
1.08063
1.08076
1.0809
1.08104
1.08119
1.08133
1.08149
1.08164
1.0818
1.08196
1.08212
1.08229
1.08246
1.08264
1.08282
1.08301
1.0832
1.08339
1.08359
1.0838
1.084
1.08422
1.08444
1.08466
1.08489
1.08513
1.08537
1.08561
1.08587
1.08612
1.08639
1.08666
1.08694
1.08722
1.08751
1.08781
1.08812
1.08843
1.08875
1.08908
1.08941
1.08975
1.0901
1.09046
1.09082
1.09119
1.09157
1.09196
1.09235
1.09274
1.09314
1.09354
1.09395
1.09436
1.09477
1.09517
1.09558
1.09598
1.09637
1.09675
1.09712
1.09748
1.09782
1.09813
1.09843
1.09869
1.09893
1.09914
1.09932
1.09946
1.09957
1.09966
1.09971
1.09973
1.09972
1.09968
1.09963
1.09955
1.09945
1.09934
1.09921
1.09907
1.09892
1.09876
1.09859
1.09842
1.09824
1.09806
1.09787
1.09769
1.09749
1.0973
1.09711
1.09691
1.09672
1.09652
1.09633
1.09613
1.09593
1.09574
1.09554
1.09535
1.09515
1.09496
1.09477
1.09458
1.09439
1.0942
1.09402
1.09383
1.09365
1.09347
1.09329
1.09311
1.09294
1.09277
1.0926
1.09243
1.09226
1.09209
1.09192
1.09176
1.09159
1.09143
1.09126
1.09109
1.09092
1.09074
1.09056
1.09037
1.09017
1.08995
1.08972
1.08947
1.0892
1.0889
1.08857
1.08821
1.08782
1.08739
1.08691
1.0864
1.08585
1.08525
1.08461
1.08394
1.08323
1.08248
1.08172
1.08093
1.08013
1.07932
1.07851
1.0777
1.07692
1.07615
1.07542
1.07472
1.07407
1.07346
1.0729
1.0724
1.07195
1.07155
1.0712
1.0709
1.07064
1.07041
1.07023
1.07006
1.06992
1.06979
1.06967
1.06955
1.06943
1.06931
1.06919
1.06906
1.06892
1.06877
1.06861
1.06844
1.06826
1.06807
1.06788
1.06768
1.06748
1.06727
1.06706
1.06685
1.06663
1.06642
1.0662
1.06599
1.06577
1.06556
1.06535
1.06514
1.06493
1.06473
1.06452
1.06432
1.06412
1.06393
1.06374
1.06355
1.06336
1.06319
1.06301
1.06285
1.06269
1.06254
1.06239
1.06226
1.06213
1.06201
1.06191
1.06181
1.06172
1.06165
1.06158
1.06152
1.06148
1.06144
1.06141
1.06138
1.06137
1.06136
1.06136
1.06136
1.06137
1.06139
1.06141
1.06143
1.06145
1.06147
1.0615
1.06152
1.06155
1.06157
1.06159
1.0616
1.06161
1.06162
1.06162
1.06162
1.06161
1.0616
1.06158
1.06155
1.06152
1.06148
1.06144
1.06139
1.06134
1.06129
1.06123
1.06117
1.06112
1.06106
1.061
1.06094
1.06089
1.06084
1.06079
1.06075
1.06072
1.06069
1.06067
1.06065
1.06064
1.06064
1.06065
1.06067
1.06069
1.06073
1.06077
1.06082
1.06088
1.06095
1.06102
1.06111
1.0612
1.0613
1.0614
1.06151
1.06163
1.06175
1.06188
1.06202
1.06216
1.0623
1.06245
1.0626
1.06276
1.06292
1.06309
1.06326
1.06343
1.06361
1.06379
1.06397
1.06416
1.06435
1.06454
1.06474
1.06494
1.06515
1.06536
1.06557
1.06579
1.06601
1.06624
1.06647
1.06671
1.06695
1.06719
1.06743
1.06768
1.06792
1.06817
1.06842
1.06866
1.0689
1.06914
1.06938
1.0696
1.06982
1.07003
1.07023
1.07042
1.07061
1.07078
1.07094
1.07109
1.07123
1.07136
1.07148
1.07159
1.0717
1.07179
1.07189
1.07197
1.07206
1.07214
1.07222
1.0723
1.07238
1.07247
1.07255
1.07264
1.07274
1.07283
1.07294
1.07304
1.07316
1.07328
1.07341
1.07354
1.07369
1.07384
1.074
1.07417
1.07435
1.07454
1.07474
1.07495
1.07516
1.07539
1.07562
1.07586
1.07749
1.07759
1.07769
1.0778
1.0779
1.078
1.07811
1.07821
1.07832
1.07843
1.07853
1.07864
1.07875
1.07886
1.07897
1.07908
1.07919
1.07931
1.07942
1.07954
1.07965
1.07977
1.07989
1.08001
1.08013
1.08025
1.08038
1.08051
1.08064
1.08077
1.0809
1.08104
1.08118
1.08132
1.08146
1.08161
1.08176
1.08191
1.08207
1.08223
1.0824
1.08257
1.08274
1.08292
1.0831
1.08328
1.08347
1.08367
1.08387
1.08408
1.08429
1.0845
1.08472
1.08495
1.08518
1.08541
1.08565
1.0859
1.08616
1.08642
1.08668
1.08696
1.08723
1.08752
1.08781
1.08811
1.08842
1.08873
1.08906
1.08938
1.08972
1.09006
1.09041
1.09077
1.09113
1.0915
1.09188
1.09226
1.09265
1.09304
1.09344
1.09384
1.09424
1.09464
1.09505
1.09545
1.09585
1.09624
1.09662
1.09699
1.09735
1.09769
1.09801
1.09831
1.09858
1.09883
1.09904
1.09923
1.09938
1.09949
1.09958
1.09963
1.09966
1.09965
1.09962
1.09957
1.09949
1.0994
1.09929
1.09916
1.09902
1.09888
1.09872
1.09856
1.09839
1.09822
1.09804
1.09786
1.09767
1.09749
1.0973
1.09711
1.09692
1.09673
1.09654
1.09634
1.09615
1.09596
1.09577
1.09557
1.09538
1.09519
1.095
1.09481
1.09463
1.09444
1.09426
1.09407
1.09389
1.09371
1.09354
1.09336
1.09319
1.09301
1.09284
1.09267
1.09251
1.09234
1.09218
1.09202
1.09185
1.09169
1.09153
1.09137
1.0912
1.09103
1.09086
1.09068
1.09049
1.09029
1.09008
1.08985
1.0896
1.08933
1.08904
1.08871
1.08835
1.08796
1.08753
1.08706
1.08654
1.08599
1.08539
1.08475
1.08407
1.08336
1.08262
1.08185
1.08106
1.08026
1.07945
1.07864
1.07784
1.07706
1.0763
1.07557
1.07488
1.07423
1.07363
1.07307
1.07257
1.07213
1.07173
1.07139
1.07109
1.07083
1.07061
1.07042
1.07026
1.07011
1.06998
1.06986
1.06974
1.06962
1.0695
1.06937
1.06924
1.06909
1.06894
1.06878
1.06861
1.06843
1.06824
1.06805
1.06785
1.06765
1.06744
1.06723
1.06701
1.0668
1.06658
1.06636
1.06614
1.06593
1.06571
1.0655
1.06528
1.06507
1.06486
1.06465
1.06445
1.06425
1.06405
1.06385
1.06366
1.06348
1.06329
1.06312
1.06295
1.06279
1.06264
1.0625
1.06236
1.06224
1.06212
1.06202
1.06192
1.06183
1.06176
1.06169
1.06164
1.06159
1.06155
1.06152
1.0615
1.06148
1.06147
1.06147
1.06147
1.06148
1.06149
1.06151
1.06153
1.06155
1.06157
1.06159
1.06162
1.06164
1.06166
1.06167
1.06169
1.0617
1.0617
1.0617
1.06169
1.06168
1.06166
1.06164
1.06161
1.06158
1.06154
1.06149
1.06145
1.06139
1.06134
1.06128
1.06122
1.06116
1.06111
1.06105
1.06099
1.06094
1.06089
1.06084
1.0608
1.06077
1.06074
1.06071
1.0607
1.06069
1.06069
1.0607
1.06071
1.06074
1.06077
1.06081
1.06086
1.06092
1.06099
1.06106
1.06115
1.06124
1.06133
1.06144
1.06155
1.06166
1.06179
1.06191
1.06205
1.06218
1.06233
1.06247
1.06262
1.06278
1.06294
1.0631
1.06327
1.06344
1.06362
1.06379
1.06398
1.06416
1.06435
1.06454
1.06474
1.06494
1.06514
1.06535
1.06557
1.06578
1.066
1.06623
1.06646
1.06669
1.06693
1.06717
1.06741
1.06766
1.0679
1.06815
1.06839
1.06864
1.06888
1.06911
1.06934
1.06957
1.06978
1.06999
1.07019
1.07038
1.07056
1.07073
1.07089
1.07104
1.07118
1.07131
1.07143
1.07155
1.07166
1.07176
1.07185
1.07195
1.07204
1.07212
1.07221
1.0723
1.07239
1.07248
1.07258
1.07268
1.07278
1.07289
1.073
1.07312
1.07324
1.07337
1.0735
1.07364
1.07379
1.07395
1.07411
1.07428
1.07446
1.07465
1.07485
1.07505
1.07526
1.07548
1.07571
1.07594
1.07771
1.07782
1.07792
1.07802
1.07813
1.07823
1.07833
1.07844
1.07854
1.07865
1.07875
1.07886
1.07896
1.07907
1.07918
1.07929
1.0794
1.07951
1.07962
1.07973
1.07985
1.07996
1.08008
1.0802
1.08031
1.08044
1.08056
1.08068
1.08081
1.08094
1.08107
1.0812
1.08133
1.08147
1.08161
1.08175
1.0819
1.08205
1.0822
1.08236
1.08252
1.08269
1.08286
1.08303
1.08321
1.08339
1.08357
1.08376
1.08396
1.08416
1.08436
1.08457
1.08479
1.08501
1.08524
1.08547
1.0857
1.08595
1.0862
1.08645
1.08671
1.08698
1.08725
1.08753
1.08782
1.08811
1.08841
1.08872
1.08904
1.08936
1.08969
1.09002
1.09036
1.09071
1.09107
1.09143
1.0918
1.09217
1.09255
1.09293
1.09332
1.09371
1.09411
1.09451
1.0949
1.0953
1.0957
1.09608
1.09647
1.09684
1.0972
1.09755
1.09787
1.09818
1.09846
1.09871
1.09893
1.09912
1.09928
1.0994
1.09949
1.09955
1.09958
1.09958
1.09955
1.0995
1.09943
1.09934
1.09923
1.09911
1.09898
1.09883
1.09868
1.09852
1.09836
1.09819
1.09802
1.09784
1.09766
1.09748
1.0973
1.09712
1.09693
1.09674
1.09656
1.09637
1.09618
1.09599
1.0958
1.09561
1.09543
1.09524
1.09505
1.09487
1.09468
1.0945
1.09432
1.09414
1.09396
1.09379
1.09361
1.09344
1.09327
1.0931
1.09293
1.09277
1.0926
1.09244
1.09228
1.09212
1.09197
1.09181
1.09165
1.09149
1.09133
1.09116
1.091
1.09082
1.09064
1.09044
1.09023
1.09001
1.08976
1.0895
1.0892
1.08888
1.08852
1.08813
1.0877
1.08723
1.08671
1.08616
1.08556
1.08492
1.08424
1.08353
1.08279
1.08202
1.08123
1.08043
1.07962
1.07881
1.07802
1.07724
1.07648
1.07576
1.07507
1.07443
1.07383
1.07328
1.07279
1.07234
1.07195
1.07161
1.07131
1.07106
1.07084
1.07065
1.07048
1.07034
1.07021
1.07008
1.06996
1.06984
1.06971
1.06959
1.06945
1.0693
1.06915
1.06899
1.06882
1.06864
1.06845
1.06826
1.06806
1.06785
1.06764
1.06743
1.06721
1.06699
1.06677
1.06656
1.06634
1.06612
1.0659
1.06568
1.06546
1.06524
1.06503
1.06482
1.06461
1.0644
1.0642
1.064
1.0638
1.06361
1.06343
1.06326
1.06309
1.06292
1.06277
1.06263
1.06249
1.06237
1.06225
1.06215
1.06205
1.06197
1.06189
1.06183
1.06177
1.06172
1.06168
1.06165
1.06163
1.06161
1.0616
1.0616
1.0616
1.06161
1.06162
1.06163
1.06165
1.06167
1.06169
1.06171
1.06173
1.06174
1.06176
1.06177
1.06178
1.06179
1.06179
1.06178
1.06177
1.06176
1.06174
1.06171
1.06168
1.06164
1.0616
1.06156
1.06151
1.06145
1.0614
1.06134
1.06128
1.06122
1.06116
1.0611
1.06105
1.061
1.06095
1.0609
1.06086
1.06082
1.06079
1.06077
1.06076
1.06075
1.06075
1.06075
1.06077
1.06079
1.06082
1.06087
1.06091
1.06097
1.06104
1.06111
1.06119
1.06128
1.06138
1.06148
1.06159
1.0617
1.06182
1.06195
1.06208
1.06221
1.06235
1.0625
1.06265
1.0628
1.06296
1.06312
1.06328
1.06345
1.06362
1.0638
1.06398
1.06416
1.06435
1.06454
1.06474
1.06494
1.06514
1.06535
1.06556
1.06577
1.06599
1.06622
1.06644
1.06668
1.06691
1.06715
1.06739
1.06763
1.06788
1.06812
1.06837
1.06861
1.06884
1.06908
1.06931
1.06953
1.06975
1.06995
1.07015
1.07034
1.07052
1.07069
1.07084
1.07099
1.07113
1.07126
1.07139
1.0715
1.07161
1.07172
1.07182
1.07192
1.07201
1.07211
1.07221
1.0723
1.0724
1.0725
1.07261
1.07271
1.07283
1.07294
1.07306
1.07319
1.07332
1.07346
1.0736
1.07374
1.0739
1.07406
1.07422
1.0744
1.07458
1.07476
1.07496
1.07516
1.07537
1.07558
1.07579
1.07602
1.07799
1.07809
1.07819
1.07829
1.07839
1.0785
1.0786
1.0787
1.0788
1.07891
1.07901
1.07911
1.07922
1.07932
1.07943
1.07953
1.07964
1.07975
1.07986
1.07997
1.08008
1.08019
1.0803
1.08042
1.08053
1.08065
1.08077
1.08089
1.08101
1.08113
1.08126
1.08139
1.08152
1.08165
1.08179
1.08193
1.08207
1.08221
1.08236
1.08252
1.08267
1.08283
1.08299
1.08316
1.08333
1.08351
1.08369
1.08387
1.08406
1.08426
1.08446
1.08466
1.08487
1.08509
1.08531
1.08553
1.08576
1.086
1.08624
1.08649
1.08674
1.087
1.08727
1.08754
1.08782
1.08811
1.0884
1.0887
1.08901
1.08932
1.08964
1.08997
1.0903
1.09064
1.09099
1.09134
1.0917
1.09206
1.09243
1.09281
1.09319
1.09357
1.09396
1.09435
1.09474
1.09513
1.09552
1.09591
1.09629
1.09666
1.09703
1.09737
1.09771
1.09802
1.0983
1.09856
1.0988
1.09899
1.09916
1.09929
1.09939
1.09946
1.09949
1.09949
1.09947
1.09942
1.09936
1.09927
1.09916
1.09905
1.09892
1.09878
1.09863
1.09848
1.09832
1.09816
1.09799
1.09782
1.09765
1.09748
1.0973
1.09712
1.09694
1.09676
1.09658
1.09639
1.09621
1.09603
1.09584
1.09566
1.09548
1.09529
1.09511
1.09493
1.09475
1.09457
1.09439
1.09422
1.09404
1.09387
1.0937
1.09353
1.09336
1.0932
1.09304
1.09287
1.09272
1.09256
1.0924
1.09225
1.09209
1.09194
1.09179
1.09163
1.09148
1.09132
1.09115
1.09098
1.0908
1.09061
1.09041
1.09019
1.08995
1.08969
1.0894
1.08907
1.08872
1.08833
1.0879
1.08743
1.08691
1.08636
1.08576
1.08512
1.08444
1.08373
1.08299
1.08222
1.08143
1.08063
1.07983
1.07902
1.07823