# vtk DataFile Version 2.0
LBE two cylinders
ASCII
DATASET STRUCTURED_POINTS
DIMENSIONS 400 100 1
ASPECT_RATIO 1 1 1
ORIGIN 0 0 0
POINT_DATA 40000
SCALARS rho double 1
LOOKUP_TABLE default
1.09285
1.09283
1.09282
1.0928
1.09279
1.09278
1.09277
1.09276
1.09275
1.09275
1.09275
1.09275
1.09275
1.09276
1.09276
1.09277
1.09278
1.09279
1.09281
1.09282
1.09283
1.09285
1.09287
1.09288
1.0929
1.09291
1.09293
1.09294
1.09295
1.09296
1.09297
1.09298
1.09298
1.09298
1.09298
1.09298
1.09298
1.09297
1.09296
1.09294
1.09293
1.09291
1.09289
1.09287
1.09285
1.09282
1.0928
1.09277
1.09275
1.09273
1.09271
1.09269
1.09268
1.09267
1.09267
1.09268
1.09269
1.09272
1.09275
1.09279
1.09285
1.09291
1.09299
1.09309
1.0932
1.09332
1.09346
1.09362
1.09379
1.09398
1.09419
1.09441
1.09465
1.09491
1.09519
1.09549
1.0958
1.09612
1.09646
1.09682
1.09719
1.09757
1.09795
1.09835
1.09875
1.09915
1.09955
1.09995
1.10035
1.10073
1.1011
1.10145
1.10179
1.1021
1.10239
1.10265
1.10289
1.1031
1.10327
1.10342
1.10354
1.10363
1.10369
1.10372
1.10374
1.10373
1.1037
1.10365
1.10359
1.10352
1.10343
1.10334
1.10324
1.10313
1.10302
1.1029
1.10278
1.10266
1.10254
1.10241
1.10229
1.10217
1.10204
1.10192
1.1018
1.10168
1.10156
1.10145
1.10134
1.10123
1.10112
1.10102
1.10091
1.10082
1.10073
1.10064
1.10055
1.10047
1.10039
1.10032
1.10025
1.10018
1.10012
1.10006
1.10001
1.09996
1.09991
1.09986
1.09981
1.09977
1.09973
1.09969
1.09966
1.09962
1.09958
1.09955
1.09952
1.09949
1.09945
1.09942
1.09939
1.09936
1.09933
1.0993
1.09927
1.09924
1.09921
1.09918
1.09915
1.09912
1.09909
1.09906
1.09903
1.099
1.09897
1.09894
1.09891
1.09888
1.09885
1.09883
1.0988
1.09878
1.09876
1.09874
1.09873
1.09871
1.0987
1.09869
1.09869
1.09869
1.09869
1.0987
1.0987
1.09872
1.09873
1.09875
1.09877
1.0988
1.09883
1.09886
1.09889
1.09893
1.09896
1.099
1.09905
1.09909
1.09913
1.09917
1.09921
1.09925
1.09928
1.09931
1.09933
1.09933
1.09932
1.09928
1.09923
1.09914
1.09903
1.09887
1.09867
1.09843
1.09813
1.09778
1.09737
1.0969
1.09637
1.09578
1.09514
1.09444
1.0937
1.09292
1.0921
1.09125
1.09039
1.08953
1.08867
1.08782
1.08701
1.08623
1.08549
1.08482
1.08421
1.08367
1.08321
1.08283
1.08253
1.08231
1.08217
1.08209
1.08208
1.08212
1.0822
1.08232
1.08247
1.08263
1.0828
1.08296
1.08313
1.08329
1.08343
1.08356
1.08368
1.08377
1.08385
1.08391
1.08395
1.08396
1.08396
1.08393
1.08389
1.08382
1.08374
1.08363
1.0835
1.08336
1.0832
1.08303
1.08284
1.08264
1.08243
1.08221
1.08198
1.08174
1.0815
1.08126
1.081
1.08075
1.08048
1.0802
1.07992
1.07962
1.07932
1.07899
1.07865
1.07829
1.07792
1.07752
1.07711
1.07667
1.07622
1.07574
1.07525
1.07474
1.07421
1.07367
1.07312
1.07256
1.07198
1.07141
1.07082
1.07024
1.06965
1.06907
1.06848
1.0679
1.06733
1.06676
1.0662
1.06566
1.06512
1.0646
1.06408
1.06359
1.06311
1.06264
1.06219
1.06175
1.06134
1.06093
1.06055
1.06018
1.05983
1.05949
1.05916
1.05885
1.05855
1.05826
1.05798
1.05772
1.05746
1.05721
1.05697
1.05674
1.05652
1.0563
1.0561
1.0559
1.05572
1.05554
1.05538
1.05523
1.05509
1.05497
1.05487
1.05478
1.05471
1.05466
1.05462
1.0546
1.0546
1.05462
1.05465
1.0547
1.05476
1.05484
1.05493
1.05504
1.05516
1.05531
1.05547
1.05565
1.05586
1.05609
1.05634
1.05663
1.05694
1.05727
1.05764
1.05804
1.05847
1.05892
1.05941
1.05992
1.06046
1.06102
1.06161
1.06221
1.06284
1.06347
1.06412
1.06478
1.06545
1.06611
1.06678
1.06745
1.06811
1.06877
1.06942
1.07004
1.09284
1.09283
1.09281
1.0928
1.09279
1.09277
1.09276
1.09276
1.09275
1.09275
1.09275
1.09275
1.09275
1.09275
1.09276
1.09277
1.09278
1.09279
1.0928
1.09282
1.09283
1.09285
1.09286
1.09288
1.09289
1.09291
1.09292
1.09293
1.09294
1.09295
1.09296
1.09297
1.09297
1.09297
1.09297
1.09297
1.09296
1.09296
1.09294
1.09293
1.09292
1.0929
1.09288
1.09286
1.09283
1.09281
1.09279
1.09276
1.09274
1.09272
1.0927
1.09269
1.09268
1.09267
1.09268
1.09268
1.0927
1.09273
1.09276
1.09281
1.09286
1.09293
1.09301
1.09311
1.09322
1.09334
1.09348
1.09364
1.09381
1.094
1.09421
1.09443
1.09467
1.09493
1.0952
1.09549
1.0958
1.09612
1.09646
1.09681
1.09717
1.09754
1.09792
1.09831
1.0987
1.09909
1.09949
1.09988
1.10026
1.10064
1.101
1.10135
1.10168
1.10199
1.10227
1.10253
1.10276
1.10297
1.10315
1.10329
1.10341
1.1035
1.10357
1.10361
1.10363
1.10362
1.1036
1.10356
1.1035
1.10343
1.10335
1.10326
1.10317
1.10306
1.10295
1.10284
1.10273
1.10261
1.10249
1.10237
1.10225
1.10212
1.102
1.10188
1.10177
1.10165
1.10153
1.10142
1.10131
1.1012
1.10109
1.10099
1.10089
1.1008
1.10071
1.10062
1.10054
1.10046
1.10038
1.10031
1.10024
1.10017
1.10011
1.10006
1.1
1.09995
1.0999
1.09985
1.09981
1.09977
1.09973
1.09969
1.09965
1.09962
1.09958
1.09955
1.09952
1.09949
1.09946
1.09943
1.09939
1.09936
1.09933
1.09931
1.09928
1.09925
1.09922
1.09919
1.09916
1.09913
1.0991
1.09907
1.09904
1.09901
1.09898
1.09895
1.09892
1.09889
1.09886
1.09884
1.09881
1.09879
1.09877
1.09875
1.09874
1.09872
1.09871
1.09871
1.0987
1.0987
1.0987
1.09871
1.09872
1.09873
1.09874
1.09876
1.09878
1.09881
1.09883
1.09886
1.0989
1.09893
1.09897
1.09901
1.09905
1.09909
1.09914
1.09918
1.09922
1.09925
1.09928
1.09931
1.09932
1.09932
1.0993
1.09927
1.09921
1.09912
1.099
1.09883
1.09863
1.09838
1.09808
1.09772
1.0973
1.09683
1.0963
1.09571
1.09506
1.09437
1.09362
1.09284
1.09203
1.09119
1.09033
1.08947
1.08862
1.08778
1.08697
1.0862
1.08548
1.08481
1.08421
1.08368
1.08323
1.08285
1.08256
1.08234
1.08219
1.08212
1.0821
1.08213
1.08221
1.08232
1.08246
1.08261
1.08277
1.08293
1.08309
1.08324
1.08337
1.0835
1.0836
1.08369
1.08376
1.08382
1.08385
1.08386
1.08385
1.08382
1.08377
1.08369
1.0836
1.08349
1.08336
1.08321
1.08304
1.08287
1.08267
1.08247
1.08225
1.08203
1.0818
1.08156
1.08132
1.08107
1.08081
1.08055
1.08028
1.08001
1.07972
1.07942
1.07911
1.07879
1.07845
1.0781
1.07773
1.07733
1.07692
1.0765
1.07605
1.07558
1.0751
1.0746
1.07409
1.07357
1.07303
1.07248
1.07193
1.07137
1.0708
1.07023
1.06966
1.06909
1.06853
1.06796
1.06741
1.06686
1.06631
1.06578
1.06525
1.06474
1.06424
1.06375
1.06328
1.06282
1.06237
1.06194
1.06152
1.06112
1.06074
1.06037
1.06001
1.05967
1.05934
1.05902
1.05871
1.05842
1.05814
1.05786
1.0576
1.05734
1.0571
1.05686
1.05663
1.05641
1.0562
1.056
1.05581
1.05563
1.05546
1.05531
1.05517
1.05504
1.05494
1.05484
1.05477
1.05472
1.05468
1.05466
1.05465
1.05467
1.05469
1.05474
1.0548
1.05488
1.05497
1.05507
1.0552
1.05534
1.0555
1.05569
1.05589
1.05612
1.05637
1.05665
1.05696
1.0573
1.05766
1.05806
1.05848
1.05893
1.05942
1.05993
1.06046
1.06102
1.0616
1.0622
1.06282
1.06346
1.0641
1.06476
1.06542
1.06609
1.06676
1.06742
1.06808
1.06874
1.06938
1.07001
1.09284
1.09282
1.0928
1.09279
1.09278
1.09277
1.09276
1.09275
1.09275
1.09274
1.09274
1.09274
1.09274
1.09275
1.09276
1.09276
1.09277
1.09278
1.0928
1.09281
1.09282
1.09284
1.09285
1.09286
1.09288
1.09289
1.0929
1.09291
1.09292
1.09293
1.09294
1.09294
1.09294
1.09294
1.09294
1.09294
1.09293
1.09292
1.09291
1.09289
1.09288
1.09286
1.09284
1.09282
1.09279
1.09277
1.09275
1.09273
1.0927
1.09269
1.09267
1.09266
1.09265
1.09265
1.09265
1.09266
1.09268
1.09271
1.09275
1.0928
1.09286
1.09293
1.09301
1.09311
1.09322
1.09335
1.09349
1.09365
1.09382
1.09401
1.09422
1.09444
1.09468
1.09493
1.0952
1.09549
1.09579
1.09611
1.09644
1.09678
1.09714
1.09751
1.09788
1.09826
1.09865
1.09903
1.09942
1.0998
1.10018
1.10055
1.10091
1.10125
1.10158
1.10188
1.10216
1.10242
1.10265
1.10285
1.10303
1.10318
1.1033
1.10339
1.10346
1.1035
1.10352
1.10352
1.1035
1.10346
1.10341
1.10334
1.10327
1.10318
1.10309
1.10299
1.10288
1.10277
1.10266
1.10254
1.10243
1.10231
1.10219
1.10207
1.10195
1.10184
1.10172
1.1016
1.10149
1.10138
1.10127
1.10116
1.10106
1.10096
1.10086
1.10077
1.10068
1.10059
1.10051
1.10043
1.10036
1.10029
1.10022
1.10016
1.1001
1.10004
1.09998
1.09993
1.09989
1.09984
1.0998
1.09976
1.09972
1.09968
1.09964
1.09961
1.09957
1.09954
1.09951
1.09948
1.09945
1.09942
1.09939
1.09936
1.09933
1.0993
1.09927
1.09924
1.09922
1.09919
1.09916
1.09913
1.0991
1.09907
1.09904
1.09901
1.09898
1.09895
1.09893
1.0989
1.09887
1.09885
1.09883
1.09881
1.09879
1.09877
1.09875
1.09874
1.09873
1.09872
1.09872
1.09872
1.09872
1.09872
1.09873
1.09874
1.09876
1.09878
1.0988
1.09882
1.09885
1.09888
1.09891
1.09895
1.09898
1.09902
1.09906
1.0991
1.09914
1.09918
1.09922
1.09926
1.09929
1.09931
1.09932
1.09931
1.0993
1.09926
1.09919
1.0991
1.09897
1.0988
1.0986
1.09834
1.09803
1.09767
1.09725
1.09677
1.09623
1.09564
1.09499
1.09429
1.09354
1.09276
1.09194
1.09111
1.09025
1.0894
1.08855
1.08772
1.08691
1.08615
1.08543
1.08477
1.08418
1.08366
1.08321
1.08284
1.08255
1.08233
1.08219
1.08211
1.08209
1.08212
1.08219
1.08229
1.08241
1.08255
1.0827
1.08285
1.083
1.08314
1.08326
1.08337
1.08347
1.08355
1.08361
1.08365
1.08367
1.08367
1.08365
1.0836
1.08354
1.08346
1.08336
1.08323
1.08309
1.08294
1.08276
1.08257
1.08237
1.08216
1.08194
1.0817
1.08147
1.08122
1.08097
1.08071
1.08045
1.08019
1.07991
1.07963
1.07934
1.07904
1.07873
1.07841
1.07808
1.07773
1.07736
1.07698
1.07658
1.07616
1.07573
1.07529
1.07482
1.07435
1.07386
1.07336
1.07285
1.07233
1.0718
1.07127
1.07074
1.0702
1.06966
1.06913
1.06859
1.06806
1.06753
1.06701
1.06649
1.06598
1.06548
1.06499
1.06451
1.06404
1.06358
1.06313
1.06269
1.06227
1.06186
1.06146
1.06108
1.0607
1.06034
1.06
1.05966
1.05934
1.05902
1.05872
1.05842
1.05814
1.05786
1.0576
1.05734
1.05709
1.05684
1.05661
1.05639
1.05618
1.05598
1.05579
1.05561
1.05545
1.0553
1.05517
1.05506
1.05496
1.05488
1.05482
1.05477
1.05475
1.05474
1.05475
1.05477
1.05481
1.05487
1.05494
1.05503
1.05513
1.05525
1.05539
1.05555
1.05573
1.05593
1.05616
1.05641
1.05668
1.05699
1.05732
1.05768
1.05808
1.0585
1.05895
1.05942
1.05993
1.06046
1.06101
1.06159
1.06219
1.06281
1.06344
1.06408
1.06473
1.0654
1.06606
1.06673
1.06739
1.06806
1.06871
1.06935
1.06999
1.09282
1.09281
1.09279
1.09278
1.09277
1.09276
1.09275
1.09274
1.09274
1.09273
1.09273
1.09273
1.09274
1.09274
1.09275
1.09275
1.09276
1.09277
1.09278
1.09279
1.09281
1.09282
1.09283
1.09284
1.09285
1.09286
1.09287
1.09288
1.09289
1.09289
1.0929
1.0929
1.0929
1.0929
1.09289
1.09288
1.09287
1.09286
1.09285
1.09283
1.09281
1.09279
1.09277
1.09275
1.09273
1.0927
1.09268
1.09266
1.09264
1.09262
1.09261
1.0926
1.09259
1.09259
1.0926
1.09262
1.09264
1.09267
1.09271
1.09276
1.09283
1.0929
1.09299
1.09309
1.09321
1.09334
1.09348
1.09364
1.09381
1.094
1.09421
1.09443
1.09467
1.09492
1.09519
1.09547
1.09577
1.09608
1.09641
1.09675
1.0971
1.09746
1.09782
1.0982
1.09858
1.09896
1.09934
1.09972
1.10009
1.10045
1.10081
1.10115
1.10147
1.10177
1.10205
1.1023
1.10253
1.10273
1.10291
1.10306
1.10318
1.10327
1.10334
1.10338
1.1034
1.1034
1.10338
1.10335
1.1033
1.10324
1.10316
1.10308
1.10299
1.10289
1.10279
1.10268
1.10257
1.10246
1.10235
1.10223
1.10212
1.102
1.10189
1.10177
1.10166
1.10155
1.10144
1.10133
1.10122
1.10112
1.10102
1.10092
1.10082
1.10073
1.10064
1.10056
1.10048
1.1004
1.10033
1.10026
1.10019
1.10013
1.10007
1.10001
1.09996
1.09991
1.09986
1.09982
1.09977
1.09973
1.09969
1.09966
1.09962
1.09959
1.09956
1.09952
1.09949
1.09946
1.09943
1.09941
1.09938
1.09935
1.09932
1.09929
1.09927
1.09924
1.09921
1.09918
1.09915
1.09913
1.0991
1.09907
1.09904
1.09902
1.09899
1.09896
1.09894
1.09891
1.09889
1.09886
1.09884
1.09882
1.0988
1.09879
1.09877
1.09876
1.09875
1.09874
1.09874
1.09874
1.09874
1.09875
1.09875
1.09877
1.09878
1.0988
1.09882
1.09884
1.09887
1.0989
1.09893
1.09896
1.099
1.09904
1.09908
1.09912
1.09916
1.0992
1.09923
1.09926
1.09929
1.09931
1.09932
1.09931
1.09929
1.09925
1.09918
1.09908
1.09895
1.09878
1.09856
1.0983
1.09798
1.09762
1.09719
1.0967
1.09616
1.09556
1.09491
1.09421
1.09346
1.09267
1.09186
1.09102
1.09017
1.08931
1.08847
1.08764
1.08684
1.08608
1.08537
1.08471
1.08413
1.08361
1.08316
1.0828
1.08251
1.08229
1.08214
1.08206
1.08203
1.08206
1.08212
1.08221
1.08232
1.08245
1.08259
1.08272
1.08285
1.08298
1.08309
1.08318
1.08326
1.08333
1.08337
1.0834
1.0834
1.08339
1.08335
1.0833
1.08322
1.08312
1.08301
1.08287
1.08271
1.08254
1.08236
1.08215
1.08194
1.08172
1.08148
1.08124
1.08099
1.08073
1.08047
1.08021
1.07994
1.07966
1.07938
1.0791
1.0788
1.0785
1.07819
1.07787
1.07754
1.0772
1.07684
1.07647
1.07609
1.07569
1.07528
1.07486
1.07443
1.07398
1.07352
1.07306
1.07258
1.0721
1.07162
1.07113
1.07064
1.07014
1.06965
1.06916
1.06866
1.06817
1.06768
1.0672
1.06672
1.06625
1.06578
1.06532
1.06487
1.06442
1.06398
1.06355
1.06313
1.06272
1.06232
1.06193
1.06155
1.06118
1.06082
1.06047
1.06012
1.05979
1.05946
1.05915
1.05884
1.05854
1.05825
1.05796
1.05769
1.05742
1.05716
1.05691
1.05668
1.05645
1.05623
1.05603
1.05584
1.05567
1.05551
1.05537
1.05524
1.05513
1.05504
1.05497
1.05491
1.05488
1.05486
1.05486
1.05487
1.05491
1.05496
1.05502
1.0551
1.0552
1.05532
1.05545
1.05561
1.05578
1.05598
1.0562
1.05645
1.05672
1.05702
1.05735
1.05771
1.0581
1.05851
1.05896
1.05943
1.05993
1.06046
1.06101
1.06158
1.06218
1.06279
1.06342
1.06406
1.06471
1.06537
1.06603
1.0667
1.06737
1.06803
1.06869
1.06934
1.06998
1.0928
1.09279
1.09278
1.09276
1.09275
1.09274
1.09273
1.09273
1.09272
1.09272
1.09272
1.09272
1.09272
1.09273
1.09273
1.09274
1.09274
1.09275
1.09276
1.09277
1.09278
1.09279
1.0928
1.09281
1.09282
1.09282
1.09283
1.09284
1.09284
1.09284
1.09284
1.09284
1.09284
1.09283
1.09282
1.09281
1.0928
1.09278
1.09276
1.09275
1.09273
1.0927
1.09268
1.09266
1.09263
1.09261
1.09259
1.09257
1.09255
1.09253
1.09252
1.09251
1.09251
1.09251
1.09253
1.09254
1.09257
1.09261
1.09265
1.09271
1.09278
1.09286
1.09295
1.09305
1.09317
1.0933
1.09345
1.09361
1.09379
1.09398
1.09418
1.0944
1.09464
1.09489
1.09516
1.09544
1.09573
1.09604
1.09636
1.09669
1.09704
1.09739
1.09775
1.09812
1.09849
1.09887
1.09924
1.09962
1.09998
1.10034
1.10069
1.10103
1.10135
1.10165
1.10192
1.10218
1.10241
1.10261
1.10278
1.10293
1.10305
1.10314
1.10321
1.10325
1.10327
1.10327
1.10326
1.10322
1.10318
1.10311
1.10304
1.10296
1.10288
1.10278
1.10268
1.10258
1.10247
1.10237
1.10226
1.10214
1.10203
1.10192
1.10181
1.1017
1.10159
1.10148
1.10137
1.10127
1.10116
1.10106
1.10096
1.10087
1.10077
1.10068
1.1006
1.10051
1.10043
1.10036
1.10028
1.10021
1.10015
1.10009
1.10003
1.09997
1.09992
1.09987
1.09982
1.09978
1.09974
1.0997
1.09966
1.09963
1.09959
1.09956
1.09953
1.0995
1.09947
1.09944
1.09941
1.09938
1.09936
1.09933
1.0993
1.09928
1.09925
1.09922
1.0992
1.09917
1.09915
1.09912
1.09909
1.09907
1.09904
1.09902
1.09899
1.09897
1.09894
1.09892
1.0989
1.09888
1.09886
1.09884
1.09882
1.09881
1.09879
1.09878
1.09877
1.09877
1.09876
1.09876
1.09877
1.09877
1.09878
1.09879
1.0988
1.09882
1.09884
1.09887
1.09889
1.09892
1.09895
1.09898
1.09902
1.09906
1.09909
1.09913
1.09917
1.09921
1.09924
1.09927
1.0993
1.09931
1.09932
1.09931
1.09928
1.09924
1.09916
1.09906
1.09892
1.09875
1.09853
1.09826
1.09794
1.09756
1.09713
1.09664
1.09609
1.09548
1.09482
1.09411
1.09336
1.09257
1.09175
1.09091
1.09006
1.08921
1.08836
1.08754
1.08674
1.08598
1.08528
1.08463
1.08404
1.08353
1.08309
1.08272
1.08243
1.08221
1.08206
1.08197
1.08194
1.08195
1.082
1.08208
1.08218
1.08229
1.08241
1.08253
1.08264
1.08275
1.08284
1.08292
1.08298
1.08303
1.08306
1.08307
1.08305
1.08302
1.08297
1.08289
1.0828
1.08268
1.08255
1.08239
1.08222
1.08204
1.08183
1.08162
1.08139
1.08115
1.0809
1.08064
1.08038
1.08011
1.07984
1.07956
1.07928
1.079
1.07871
1.07842
1.07813
1.07782
1.07752
1.0772
1.07687
1.07654
1.0762
1.07585
1.07548
1.07511
1.07473
1.07433
1.07393
1.07352
1.07311
1.07268
1.07225
1.07182
1.07138
1.07094
1.0705
1.07006
1.06962
1.06918
1.06874
1.0683
1.06786
1.06742
1.06699
1.06656
1.06614
1.06571
1.0653
1.06488
1.06448
1.06407
1.06367
1.06328
1.0629
1.06252
1.06214
1.06177
1.06141
1.06105
1.06071
1.06036
1.06002
1.05969
1.05937
1.05905
1.05874
1.05844
1.05815
1.05786
1.05758
1.05731
1.05706
1.05681
1.05658
1.05636
1.05615
1.05596
1.05578
1.05562
1.05548
1.05536
1.05525
1.05517
1.0551
1.05505
1.05502
1.05501
1.05501
1.05503
1.05507
1.05513
1.0552
1.05529
1.0554
1.05553
1.05568
1.05585
1.05604
1.05626
1.0565
1.05677
1.05706
1.05739
1.05774
1.05812
1.05853
1.05897
1.05944
1.05994
1.06046
1.061
1.06157
1.06216
1.06277
1.0634
1.06403
1.06468
1.06534
1.066
1.06667
1.06734
1.068
1.06867
1.06933
1.06998
1.09278
1.09276
1.09275
1.09274
1.09273
1.09272
1.09272
1.09271
1.09271
1.0927
1.0927
1.0927
1.0927
1.09271
1.09271
1.09271
1.09272
1.09273
1.09273
1.09274
1.09275
1.09275
1.09276
1.09276
1.09277
1.09277
1.09278
1.09278
1.09278
1.09277
1.09277
1.09276
1.09275
1.09274
1.09273
1.09272
1.0927
1.09268
1.09266
1.09264
1.09261
1.09259
1.09256
1.09254
1.09251
1.09249
1.09247
1.09245
1.09243
1.09242
1.09241
1.0924
1.0924
1.09241
1.09242
1.09245
1.09248
1.09252
1.09257
1.09263
1.0927
1.09279
1.09288
1.09299
1.09311
1.09325
1.0934
1.09356
1.09374
1.09393
1.09413
1.09435
1.09459
1.09484
1.0951
1.09537
1.09566
1.09597
1.09628
1.09661
1.09695
1.09729
1.09765
1.09801
1.09838
1.09875
1.09912
1.09948
1.09985
1.1002
1.10055
1.10088
1.1012
1.1015
1.10177
1.10203
1.10226
1.10246
1.10263
1.10278
1.1029
1.10299
1.10306
1.1031
1.10312
1.10313
1.10311
1.10308
1.10303
1.10297
1.1029
1.10282
1.10274
1.10265
1.10255
1.10245
1.10235
1.10225
1.10214
1.10204
1.10193
1.10182
1.10171
1.10161
1.1015
1.10139
1.10129
1.10119
1.10109
1.10099
1.10089
1.1008
1.10071
1.10062
1.10054
1.10045
1.10038
1.1003
1.10023
1.10016
1.1001
1.10004
1.09998
1.09992
1.09987
1.09982
1.09978
1.09973
1.09969
1.09965
1.09962
1.09958
1.09955
1.09952
1.09949
1.09946
1.09943
1.0994
1.09938
1.09935
1.09933
1.0993
1.09928
1.09925
1.09923
1.09921
1.09918
1.09916
1.09913
1.09911
1.09909
1.09906
1.09904
1.09902
1.09899
1.09897
1.09895
1.09893
1.09891
1.09889
1.09887
1.09885
1.09884
1.09882
1.09881
1.0988
1.0988
1.09879
1.09879
1.09879
1.09879
1.0988
1.09881
1.09882
1.09883
1.09885
1.09887
1.09889
1.09892
1.09894
1.09897
1.09901
1.09904
1.09907
1.09911
1.09915
1.09918
1.09922
1.09925
1.09928
1.0993
1.09931
1.09931
1.0993
1.09927
1.09922
1.09914
1.09904
1.09889
1.09871
1.09849
1.09821
1.09788
1.0975
1.09706
1.09656
1.096
1.09539
1.09472
1.09401
1.09325
1.09246
1.09163
1.09079
1.08993
1.08908
1.08823
1.08741
1.08662
1.08586
1.08516
1.08451
1.08393
1.08342
1.08298
1.08261
1.08232
1.0821
1.08194
1.08184
1.0818
1.0818
1.08183
1.0819
1.08198
1.08207
1.08217
1.08227
1.08236
1.08245
1.08252
1.08258
1.08262
1.08265
1.08265
1.08264
1.08261
1.08256
1.08248
1.08239
1.08227
1.08214
1.08199
1.08181
1.08162
1.08142
1.0812
1.08097
1.08072
1.08047
1.08021
1.07994
1.07966
1.07938
1.0791
1.07881
1.07852
1.07823
1.07794
1.07764
1.07734
1.07704
1.07673
1.07642
1.07611
1.07579
1.07546
1.07513
1.07479
1.07444
1.07409
1.07373
1.07337
1.073
1.07263
1.07225
1.07187
1.07149
1.07111
1.07072
1.07034
1.06995
1.06957
1.06919
1.0688
1.06842
1.06804
1.06766
1.06728
1.0669
1.06652
1.06615
1.06577
1.0654
1.06502
1.06465
1.06428
1.06391
1.06355
1.06318
1.06282
1.06246
1.0621
1.06174
1.06139
1.06104
1.06069
1.06035
1.06001
1.05967
1.05935
1.05902
1.05871
1.0584
1.0581
1.05781
1.05753
1.05726
1.05701
1.05676
1.05654
1.05632
1.05613
1.05595
1.05579
1.05565
1.05552
1.05542
1.05534
1.05527
1.05522
1.05519
1.05518
1.05519
1.05522
1.05526
1.05532
1.0554
1.0555
1.05562
1.05576
1.05593
1.05611
1.05632
1.05656
1.05682
1.05711
1.05743
1.05777
1.05815
1.05856
1.05899
1.05945
1.05994
1.06046
1.061
1.06156
1.06215
1.06275
1.06337
1.06401
1.06466
1.06531
1.06598
1.06664
1.06731
1.06798
1.06865
1.06931
1.06997
1.09274
1.09273
1.09272
1.09271
1.0927
1.0927
1.09269
1.09268
1.09268
1.09268
1.09268
1.09268
1.09268
1.09268
1.09268
1.09268
1.09269
1.09269
1.09269
1.0927
1.0927
1.0927
1.09271
1.09271
1.09271
1.09271
1.0927
1.0927
1.09269
1.09269
1.09268
1.09267
1.09265
1.09264
1.09262
1.0926
1.09258
1.09256
1.09253
1.09251
1.09248
1.09245
1.09242
1.0924
1.09237
1.09235
1.09233
1.09231
1.09229
1.09228
1.09227
1.09227
1.09227
1.09228
1.0923
1.09233
1.09236
1.09241
1.09246
1.09253
1.09261
1.09269
1.0928
1.09291
1.09303
1.09317
1.09332
1.09349
1.09366
1.09386
1.09406
1.09428
1.09451
1.09476
1.09502
1.09529
1.09557
1.09587
1.09618
1.0965
1.09683
1.09717
1.09752
1.09787
1.09823
1.09859
1.09896
1.09932
1.09968
1.10003
1.10038
1.10071
1.10102
1.10132
1.1016
1.10185
1.10208
1.10228
1.10246
1.10261
1.10273
1.10282
1.10289
1.10293
1.10295
1.10295
1.10294
1.10291
1.10286
1.1028
1.10274
1.10266
1.10258
1.10249
1.1024
1.10231
1.10221
1.10211
1.10201
1.10191
1.10181
1.1017
1.1016
1.1015
1.1014
1.10129
1.10119
1.1011
1.101
1.1009
1.10081
1.10072
1.10063
1.10055
1.10046
1.10038
1.10031
1.10023
1.10016
1.10009
1.10003
1.09997
1.09991
1.09986
1.09981
1.09976
1.09972
1.09967
1.09963
1.0996
1.09956
1.09953
1.0995
1.09947
1.09944
1.09941
1.09939
1.09936
1.09934
1.09931
1.09929
1.09927
1.09924
1.09922
1.0992
1.09918
1.09916
1.09914
1.09911
1.09909
1.09907
1.09905
1.09903
1.09901
1.09899
1.09897
1.09895
1.09893
1.09891
1.0989
1.09888
1.09887
1.09885
1.09884
1.09883
1.09882
1.09882
1.09881
1.09881
1.09881
1.09882
1.09882
1.09883
1.09884
1.09886
1.09887
1.09889
1.09891
1.09894
1.09896
1.09899
1.09902
1.09906
1.09909
1.09912
1.09916
1.09919
1.09922
1.09925
1.09928
1.0993
1.09931
1.0993
1.09929
1.09925
1.0992
1.09912
1.099
1.09885
1.09867
1.09843
1.09815
1.09781
1.09742
1.09697
1.09646
1.0959
1.09528
1.0946
1.09388
1.09312
1.09232
1.09149
1.09064
1.08978
1.08892
1.08808
1.08725
1.08646
1.08571
1.085
1.08436
1.08378
1.08327
1.08283
1.08246
1.08216
1.08193
1.08177
1.08166
1.0816
1.08159
1.08161
1.08165
1.08171
1.08179
1.08186
1.08194
1.08201
1.08207
1.08212
1.08216
1.08218
1.08218
1.08216
1.08212
1.08207
1.08199
1.0819
1.08178
1.08165
1.08149
1.08132
1.08113
1.08093
1.0807
1.08047
1.08022
1.07996
1.07969
1.07942
1.07913
1.07885
1.07856
1.07826
1.07797
1.07767
1.07737
1.07708
1.07678
1.07648
1.07618
1.07588
1.07558
1.07528
1.07497
1.07466
1.07435
1.07404
1.07372
1.0734
1.07308
1.07276
1.07244
1.07211
1.07178
1.07146
1.07113
1.0708
1.07048
1.07015
1.06983
1.0695
1.06918
1.06886
1.06853
1.06821
1.06789
1.06756
1.06724
1.06692
1.06659
1.06626
1.06593
1.0656
1.06526
1.06493
1.06459
1.06425
1.0639
1.06356
1.06321
1.06286
1.06251
1.06215
1.0618
1.06144
1.06109
1.06074
1.06039
1.06004
1.0597
1.05936
1.05903
1.05871
1.0584
1.05809
1.0578
1.05752
1.05726
1.05701
1.05677
1.05655
1.05635
1.05617
1.056
1.05586
1.05573
1.05563
1.05554
1.05547
1.05542
1.0554
1.05539
1.0554
1.05543
1.05547
1.05554
1.05563
1.05574
1.05587
1.05602
1.0562
1.0564
1.05663
1.05688
1.05716
1.05748
1.05782
1.05819
1.05858
1.05901
1.05947
1.05995
1.06046
1.061
1.06156
1.06214
1.06274
1.06336
1.06399
1.06463
1.06529
1.06595
1.06662
1.06729
1.06796
1.06863
1.0693
1.06996
1.09269
1.09268
1.09268
1.09267
1.09266
1.09266
1.09265
1.09265
1.09264
1.09264
1.09264
1.09264
1.09264
1.09264
1.09264
1.09264
1.09264
1.09264
1.09264
1.09264
1.09264
1.09264
1.09264
1.09263
1.09263
1.09262
1.09261
1.0926
1.09259
1.09258
1.09257
1.09255
1.09253
1.09251
1.09249
1.09246
1.09244
1.09241
1.09238
1.09235
1.09232
1.09229
1.09226
1.09223
1.09221
1.09218
1.09216
1.09214
1.09213
1.09212
1.09211
1.09211
1.09212
1.09213
1.09216
1.09219
1.09223
1.09228
1.09234
1.09241
1.09249
1.09258
1.09268
1.0928
1.09293
1.09307
1.09322
1.09339
1.09357
1.09376
1.09396
1.09418
1.09441
1.09465
1.0949
1.09517
1.09545
1.09574
1.09604
1.09635
1.09668
1.09701
1.09735
1.09769
1.09805
1.0984
1.09876
1.09912
1.09947
1.09982
1.10016
1.10049
1.10081
1.10111
1.10139
1.10164
1.10187
1.10208
1.10225
1.1024
1.10252
1.10262
1.10268
1.10273
1.10275
1.10275
1.10274
1.10271
1.10266
1.10261
1.10254
1.10247
1.10239
1.10231
1.10222
1.10213
1.10204
1.10195
1.10185
1.10176
1.10166
1.10156
1.10147
1.10137
1.10127
1.10118
1.10108
1.10099
1.10089
1.1008
1.10071
1.10062
1.10054
1.10045
1.10037
1.1003
1.10022
1.10015
1.10008
1.10001
1.09995
1.09989
1.09984
1.09978
1.09973
1.09969
1.09964
1.0996
1.09956
1.09953
1.09949
1.09946
1.09943
1.0994
1.09938
1.09935
1.09933
1.09931
1.09928
1.09926
1.09924
1.09922
1.0992
1.09918
1.09916
1.09914
1.09912
1.09911
1.09909
1.09907
1.09905
1.09903
1.09901
1.099
1.09898
1.09896
1.09895
1.09893
1.09892
1.0989
1.09889
1.09888
1.09886
1.09885
1.09885
1.09884
1.09884
1.09883
1.09883
1.09883
1.09884
1.09884
1.09885
1.09886
1.09887
1.09889
1.09891
1.09893
1.09895
1.09898
1.099
1.09903
1.09906
1.0991
1.09913
1.09916
1.09919
1.09922
1.09924
1.09927
1.09928
1.09929
1.09928
1.09926
1.09922
1.09916
1.09907
1.09895
1.0988
1.0986
1.09836
1.09807
1.09772
1.09732
1.09687
1.09635
1.09577
1.09514
1.09446
1.09373
1.09295
1.09214
1.09131
1.09045
1.08959
1.08873
1.08788
1.08705
1.08626
1.08551
1.0848
1.08416
1.08358
1.08307
1.08262
1.08225
1.08195
1.08172
1.08154
1.08142
1.08135
1.08132
1.08132
1.08134
1.08138
1.08142
1.08148
1.08153
1.08157
1.08161
1.08163
1.08164
1.08164
1.08161
1.08157
1.08152
1.08144
1.08134
1.08122
1.08109
1.08093
1.08076
1.08057
1.08036
1.08014
1.0799
1.07965
1.07939
1.07912
1.07884
1.07855
1.07826
1.07796
1.07767
1.07737
1.07706
1.07676
1.07646
1.07617
1.07587
1.07557
1.07528
1.07499
1.0747
1.07441
1.07412
1.07383
1.07355
1.07326
1.07298
1.0727
1.07241
1.07213
1.07185
1.07157
1.0713
1.07102
1.07075
1.07048
1.07021
1.06994
1.06968
1.06941
1.06915
1.06889
1.06863
1.06836
1.0681
1.06783
1.06757
1.0673
1.06702
1.06674
1.06646
1.06617
1.06588
1.06558
1.06528
1.06497
1.06465
1.06433
1.064
1.06366
1.06332
1.06297
1.06262
1.06226
1.0619
1.06154
1.06118
1.06082
1.06046
1.06011
1.05976
1.05941
1.05908
1.05875
1.05843
1.05813
1.05784
1.05756
1.0573
1.05705
1.05683
1.05662
1.05643
1.05626
1.05611
1.05597
1.05586
1.05577
1.0557
1.05565
1.05563
1.05562
1.05563
1.05566
1.05571
1.05578
1.05588
1.056
1.05614
1.0563
1.0565
1.05671
1.05696
1.05723
1.05754
1.05787
1.05823
1.05862
1.05904
1.05949
1.05997
1.06047
1.061
1.06156
1.06213
1.06273
1.06334
1.06397
1.06461
1.06527
1.06593
1.0666
1.06727
1.06794
1.06862
1.06929
1.06996
1.09263
1.09263
1.09262
1.09262
1.09261
1.09261
1.0926
1.0926
1.0926
1.09259
1.09259
1.09259
1.09259
1.09258
1.09258
1.09258
1.09258
1.09258
1.09257
1.09257
1.09256
1.09256
1.09255
1.09254
1.09253
1.09252
1.0925
1.09249
1.09247
1.09245
1.09243
1.09241
1.09239
1.09236
1.09233
1.0923
1.09227
1.09224
1.09221
1.09218
1.09214
1.09211
1.09208
1.09205
1.09202
1.092
1.09198
1.09196
1.09194
1.09194
1.09193
1.09194
1.09195
1.09197
1.09199
1.09203
1.09207
1.09213
1.09219
1.09226
1.09235
1.09244
1.09255
1.09267
1.0928
1.09294
1.0931
1.09326
1.09344
1.09363
1.09383
1.09405
1.09427
1.09451
1.09476
1.09502
1.09529
1.09558
1.09587
1.09617
1.09649
1.09681
1.09714
1.09748
1.09782
1.09817
1.09852
1.09888
1.09923
1.09957
1.09991
1.10024
1.10056
1.10085
1.10113
1.10139
1.10162
1.10183
1.10201
1.10216
1.10228
1.10238
1.10245
1.10249
1.10252
1.10252
1.10251
1.10248
1.10244
1.10238
1.10232
1.10225
1.10218
1.1021
1.10202
1.10194
1.10185
1.10176
1.10168
1.10159
1.10149
1.1014
1.10131
1.10122
1.10113
1.10104
1.10095
1.10086
1.10077
1.10068
1.10059
1.10051
1.10043
1.10035
1.10027
1.10019
1.10012
1.10005
1.09998
1.09992
1.09985
1.0998
1.09974
1.09969
1.09964
1.0996
1.09955
1.09951
1.09948
1.09944
1.09941
1.09938
1.09935
1.09933
1.0993
1.09928
1.09926
1.09924
1.09922
1.0992
1.09918
1.09916
1.09915
1.09913
1.09911
1.0991
1.09908
1.09907
1.09905
1.09903
1.09902
1.099
1.09899
1.09897
1.09896
1.09895
1.09893
1.09892
1.09891
1.0989
1.09889
1.09888
1.09887
1.09886
1.09885
1.09885
1.09884
1.09884
1.09884
1.09885
1.09885
1.09885
1.09886
1.09887
1.09889
1.0989
1.09892
1.09894
1.09896
1.09898
1.09901
1.09903
1.09906
1.09909
1.09912
1.09915
1.09917
1.0992
1.09922
1.09924
1.09925
1.09925
1.09924
1.09921
1.09917
1.0991
1.09901
1.09888
1.09872
1.09851
1.09826
1.09796
1.09761
1.0972
1.09673
1.0962
1.09562
1.09497
1.09428
1.09354
1.09275
1.09194
1.09109
1.09023
1.08936
1.08849
1.08764
1.08681
1.08601
1.08526
1.08456
1.08391
1.08333
1.08281
1.08237
1.08199
1.08168
1.08144
1.08125
1.08111
1.08102
1.08097
1.08095
1.08095
1.08096
1.08098
1.08101
1.08103
1.08105
1.08106
1.08106
1.08104
1.08101
1.08096
1.0809
1.08081
1.08071
1.08059
1.08046
1.0803
1.08013
1.07994
1.07973
1.07951
1.07927
1.07902
1.07876
1.07849
1.07821
1.07792
1.07763
1.07734
1.07704
1.07673
1.07643
1.07613
1.07583
1.07553
1.07523
1.07494
1.07465
1.07437
1.07409
1.07381
1.07354
1.07327
1.07301
1.07275
1.07249
1.07224
1.07199
1.07175
1.07151
1.07127
1.07104
1.07081
1.07059
1.07037
1.07015
1.06993
1.06972
1.06951
1.06931
1.0691
1.0689
1.0687
1.06849
1.06828
1.06808
1.06786
1.06765
1.06743
1.0672
1.06697
1.06673
1.06648
1.06622
1.06596
1.06568
1.06539
1.0651
1.06479
1.06448
1.06415
1.06382
1.06347
1.06312
1.06276
1.0624
1.06203
1.06166
1.06129
1.06092
1.06056
1.06019
1.05984
1.05949
1.05915
1.05882
1.0585
1.0582
1.05791
1.05764
1.05738
1.05714
1.05693
1.05673
1.05655
1.05639
1.05625
1.05614
1.05604
1.05597
1.05591
1.05588
1.05587
1.05588
1.05591
1.05597
1.05605
1.05615
1.05628
1.05643
1.05661
1.05682
1.05705
1.05732
1.05761
1.05793
1.05829
1.05867
1.05908
1.05952
1.05999
1.06049
1.06101
1.06156
1.06213
1.06272
1.06333
1.06396
1.0646
1.06525
1.06591
1.06658
1.06725
1.06793
1.0686
1.06928
1.06995
1.09255
1.09255
1.09255
1.09254
1.09254
1.09254
1.09254
1.09253
1.09253
1.09253
1.09252
1.09252
1.09252
1.09251
1.09251
1.0925
1.0925
1.09249
1.09248
1.09247
1.09246
1.09245
1.09244
1.09242
1.09241
1.09239
1.09237
1.09235
1.09233
1.0923
1.09227
1.09225
1.09222
1.09218
1.09215
1.09212
1.09208
1.09205
1.09201
1.09198
1.09194
1.09191
1.09188
1.09185
1.09182
1.09179
1.09177
1.09176
1.09174
1.09174
1.09174
1.09174
1.09176
1.09178
1.09181
1.09185
1.09189
1.09195
1.09202
1.0921
1.09218
1.09228
1.09239
1.09251
1.09265
1.09279
1.09294
1.09311
1.09329
1.09347
1.09367
1.09388
1.09411
1.09434
1.09458
1.09484
1.0951
1.09537
1.09566
1.09595
1.09626
1.09657
1.09689
1.09722
1.09756
1.0979
1.09824
1.09859
1.09893
1.09927
1.09961
1.09994
1.10026
1.10056
1.10084
1.1011
1.10134
1.10155
1.10173
1.10188
1.10201
1.10211
1.10218
1.10223
1.10225
1.10225
1.10224
1.10222
1.10218
1.10213
1.10207
1.10201
1.10194
1.10187
1.10179
1.10171
1.10163
1.10155
1.10147
1.10139
1.1013
1.10122
1.10113
1.10105
1.10096
1.10088
1.10079
1.10071
1.10062
1.10054
1.10046
1.10037
1.10029
1.10022
1.10014
1.10007
1.1
1.09993
1.09986
1.0998
1.09974
1.09968
1.09963
1.09958
1.09953
1.09949
1.09945
1.09941
1.09937
1.09934
1.09931
1.09928
1.09926
1.09923
1.09921
1.09919
1.09917
1.09916
1.09914
1.09912
1.09911
1.09909
1.09908
1.09906
1.09905
1.09904
1.09903
1.09901
1.099
1.09899
1.09898
1.09896
1.09895
1.09894
1.09893
1.09892
1.09891