# vtk DataFile Version 2.0
LBE two cylinders
ASCII
DATASET STRUCTURED_POINTS
DIMENSIONS 400 100 1
ASPECT_RATIO 1 1 1
ORIGIN 0 0 0
POINT_DATA 40000
SCALARS rho double 1
LOOKUP_TABLE default
1.08613
1.08615
1.08617
1.08619
1.08621
1.08621
1.08622
1.08622
1.08622
1.08621
1.0862
1.08618
1.08617
1.08615
1.08613
1.0861
1.08608
1.08605
1.08602
1.086
1.08597
1.08594
1.08592
1.08589
1.08587
1.08586
1.08585
1.08584
1.08584
1.08584
1.08585
1.08587
1.0859
1.08594
1.08599
1.08605
1.08613
1.08621
1.08631
1.08642
1.08654
1.08668
1.08683
1.08699
1.08716
1.08735
1.08755
1.08775
1.08797
1.0882
1.08844
1.08868
1.08894
1.0892
1.08947
1.08974
1.09002
1.0903
1.09059
1.09088
1.09118
1.09147
1.09177
1.09208
1.09238
1.09269
1.093
1.09331
1.09362
1.09393
1.09425
1.09457
1.09489
1.09521
1.09554
1.09587
1.0962
1.09653
1.09687
1.09721
1.09755
1.09789
1.09824
1.09858
1.09893
1.09927
1.0996
1.09993
1.10026
1.10057
1.10087
1.10115
1.10142
1.10166
1.10189
1.10209
1.10227
1.10242
1.10255
1.10265
1.10272
1.10277
1.1028
1.1028
1.10278
1.10275
1.10269
1.10262
1.10254
1.10244
1.10234
1.10222
1.1021
1.10197
1.10183
1.10169
1.10154
1.10139
1.10123
1.10107
1.1009
1.10074
1.10056
1.10039
1.1002
1.10002
1.09983
1.09964
1.09945
1.09925
1.09905
1.09885
1.09864
1.09844
1.09823
1.09803
1.09782
1.09761
1.09741
1.0972
1.097
1.0968
1.09661
1.09641
1.09622
1.09604
1.09586
1.09568
1.09552
1.09535
1.0952
1.09505
1.09491
1.09478
1.09465
1.09454
1.09443
1.09433
1.09425
1.09417
1.09411
1.09405
1.094
1.09397
1.09394
1.09392
1.09391
1.09391
1.09391
1.09392
1.09394
1.09396
1.09399
1.09403
1.09406
1.0941
1.09414
1.09419
1.09424
1.09428
1.09433
1.09438
1.09443
1.09448
1.09452
1.09457
1.09461
1.09466
1.0947
1.09473
1.09476
1.09479
1.09482
1.09484
1.09486
1.09487
1.09487
1.09488
1.09487
1.09486
1.09485
1.09483
1.09481
1.09478
1.09475
1.09472
1.09468
1.09465
1.09462
1.09459
1.09456
1.09454
1.09452
1.09451
1.09451
1.09452
1.09453
1.09456
1.09459
1.09463
1.09469
1.09474
1.09481
1.09489
1.09497
1.09505
1.09514
1.09523
1.09533
1.09542
1.09552
1.09561
1.0957
1.09579
1.09588
1.09596
1.09604
1.09612
1.09619
1.09626
1.09633
1.09639
1.09645
1.0965
1.09656
1.09661
1.09666
1.09671
1.09676
1.09681
1.09686
1.09692
1.09697
1.09702
1.09708
1.09713
1.09719
1.09726
1.09732
1.09739
1.09747
1.09754
1.09763
1.09771
1.09781
1.09791
1.09801
1.09812
1.09824
1.09837
1.0985
1.09865
1.0988
1.09897
1.09915
1.09934
1.09956
1.09979
1.10004
1.10032
1.10063
1.10096
1.10132
1.10172
1.10215
1.10261
1.10311
1.10364
1.1042
1.10478
1.10538
1.106
1.10662
1.10723
1.10783
1.1084
1.10893
1.1094
1.10981
1.11014
1.11039
1.11055
1.11061
1.11057
1.11044
1.11021
1.10989
1.10949
1.10901
1.10845
1.10782
1.10712
1.10635
1.1055
1.10459
1.10361
1.10257
1.10146
1.10028
1.09906
1.09778
1.09645
1.09509
1.0937
1.09228
1.09084
1.08937
1.0879
1.08641
1.08492
1.08343
1.08195
1.08049
1.07906
1.07766
1.07632
1.07504
1.07382
1.07267
1.07159
1.0706
1.06968
1.06885
1.0681
1.06742
1.06681
1.06628
1.06581
1.06539
1.06503
1.06472
1.06445
1.06421
1.064
1.06382
1.06365
1.06349
1.06335
1.06321
1.06307
1.06294
1.0628
1.06268
1.06256
1.06245
1.06235
1.06227
1.06221
1.06218
1.06216
1.06218
1.06223
1.0623
1.0624
1.06252
1.06267
1.06283
1.06302
1.06322
1.06345
1.06369
1.06394
1.06422
1.06451
1.06482
1.06515
1.0655
1.06586
1.06625
1.06665
1.06708
1.06752
1.06797
1.06845
1.06894
1.06945
1.06996
1.0705
1.07105
1.0716
1.08612
1.08614
1.08616
1.08618
1.08619
1.0862
1.08621
1.08621
1.0862
1.0862
1.08619
1.08617
1.08616
1.08614
1.08612
1.08609
1.08607
1.08604
1.08602
1.08599
1.08596
1.08594
1.08592
1.08589
1.08587
1.08586
1.08585
1.08584
1.08584
1.08585
1.08586
1.08588
1.08591
1.08595
1.08601
1.08607
1.08614
1.08623
1.08632
1.08643
1.08656
1.08669
1.08684
1.08701
1.08718
1.08736
1.08756
1.08777
1.08799
1.08821
1.08845
1.0887
1.08895
1.08921
1.08948
1.08975
1.09003
1.09031
1.09059
1.09089
1.09118
1.09148
1.09177
1.09208
1.09238
1.09269
1.09299
1.0933
1.09361
1.09392
1.09424
1.09456
1.09487
1.0952
1.09552
1.09584
1.09617
1.0965
1.09684
1.09717
1.09751
1.09785
1.09819
1.09853
1.09887
1.09921
1.09954
1.09986
1.10018
1.10049
1.10078
1.10106
1.10132
1.10156
1.10179
1.10199
1.10216
1.10231
1.10244
1.10254
1.10262
1.10267
1.1027
1.1027
1.10269
1.10266
1.10261
1.10254
1.10246
1.10237
1.10227
1.10216
1.10204
1.10191
1.10178
1.10164
1.10149
1.10134
1.10119
1.10103
1.10087
1.1007
1.10053
1.10035
1.10017
1.09999
1.0998
1.09961
1.09942
1.09923
1.09903
1.09883
1.09863
1.09842
1.09822
1.09801
1.09781
1.0976
1.0974
1.0972
1.097
1.0968
1.09661
1.09641
1.09623
1.09604
1.09586
1.09569
1.09552
1.09536
1.09521
1.09506
1.09492
1.09479
1.09466
1.09455
1.09444
1.09435
1.09426
1.09418
1.09412
1.09406
1.09401
1.09398
1.09395
1.09393
1.09392
1.09391
1.09392
1.09393
1.09394
1.09397
1.09399
1.09403
1.09406
1.0941
1.09414
1.09419
1.09423
1.09428
1.09433
1.09437
1.09442
1.09447
1.09452
1.09456
1.09461
1.09465
1.09469
1.09472
1.09476
1.09479
1.09481
1.09483
1.09485
1.09486
1.09487
1.09487
1.09487
1.09486
1.09485
1.09483
1.09481
1.09478
1.09475
1.09472
1.09469
1.09466
1.09463
1.0946
1.09457
1.09455
1.09454
1.09453
1.09453
1.09453
1.09455
1.09457
1.0946
1.09465
1.0947
1.09475
1.09482
1.09489
1.09497
1.09506
1.09514
1.09523
1.09533
1.09542
1.09551
1.09561
1.0957
1.09579
1.09587
1.09596
1.09603
1.09611
1.09618
1.09625
1.09632
1.09638
1.09644
1.0965
1.09655
1.09661
1.09666
1.09671
1.09676
1.09681
1.09686
1.09691
1.09697
1.09702
1.09708
1.09714
1.0972
1.09726
1.09733
1.0974
1.09748
1.09756
1.09764
1.09773
1.09783
1.09793
1.09804
1.09815
1.09827
1.0984
1.09853
1.09868
1.09884
1.09901
1.09919
1.09939
1.0996
1.09983
1.10009
1.10037
1.10067
1.10101
1.10137
1.10176
1.10219
1.10265
1.10314
1.10366
1.10421
1.10479
1.10538
1.10598
1.10658
1.10718
1.10776
1.10831
1.10881
1.10926
1.10964
1.10995
1.11017
1.11031
1.11034
1.11029
1.11013
1.10989
1.10955
1.10913
1.10864
1.10806
1.10742
1.1067
1.10592
1.10507
1.10415
1.10317
1.10213
1.10103
1.09987
1.09866
1.09741
1.09612
1.09479
1.09344
1.09207
1.09067
1.08926
1.08784
1.0864
1.08496
1.08353
1.0821
1.08068
1.07929
1.07794
1.07663
1.07537
1.07416
1.07303
1.07196
1.07096
1.07004
1.0692
1.06843
1.06774
1.06712
1.06656
1.06607
1.06563
1.06525
1.06491
1.06462
1.06436
1.06413
1.06393
1.06374
1.06357
1.06341
1.06326
1.06311
1.06297
1.06284
1.0627
1.06258
1.06247
1.06237
1.06229
1.06224
1.0622
1.06219
1.06221
1.06225
1.06233
1.06242
1.06255
1.06269
1.06285
1.06304
1.06324
1.06346
1.0637
1.06396
1.06423
1.06453
1.06484
1.06517
1.06551
1.06588
1.06626
1.06666
1.06709
1.06752
1.06798
1.06845
1.06894
1.06945
1.06997
1.0705
1.07104
1.07158
1.0861
1.08613
1.08615
1.08616
1.08618
1.08619
1.08619
1.08619
1.08619
1.08618
1.08617
1.08616
1.08614
1.08612
1.0861
1.08608
1.08606
1.08603
1.08601
1.08598
1.08596
1.08593
1.08591
1.08589
1.08587
1.08586
1.08585
1.08584
1.08584
1.08585
1.08586
1.08589
1.08592
1.08596
1.08601
1.08608
1.08615
1.08624
1.08634
1.08645
1.08657
1.08671
1.08685
1.08702
1.08719
1.08737
1.08757
1.08778
1.08799
1.08822
1.08845
1.0887
1.08895
1.08921
1.08947
1.08974
1.09002
1.0903
1.09058
1.09087
1.09116
1.09146
1.09175
1.09205
1.09235
1.09265
1.09296
1.09327
1.09357
1.09388
1.0942
1.09451
1.09483
1.09514
1.09546
1.09579
1.09612
1.09644
1.09678
1.09711
1.09745
1.09778
1.09812
1.09846
1.0988
1.09913
1.09946
1.09978
1.1001
1.1004
1.1007
1.10097
1.10124
1.10148
1.1017
1.1019
1.10208
1.10223
1.10236
1.10246
1.10254
1.10259
1.10262
1.10263
1.10262
1.10259
1.10254
1.10248
1.1024
1.10231
1.10221
1.10211
1.10199
1.10186
1.10173
1.10159
1.10145
1.1013
1.10115
1.10099
1.10083
1.10066
1.10049
1.10032
1.10014
1.09996
1.09977
1.09959
1.09939
1.0992
1.099
1.0988
1.0986
1.0984
1.0982
1.098
1.09779
1.09759
1.09739
1.09719
1.09699
1.09679
1.0966
1.09641
1.09622
1.09604
1.09586
1.09569
1.09552
1.09536
1.09521
1.09506
1.09492
1.09479
1.09467
1.09456
1.09445
1.09436
1.09427
1.09419
1.09413
1.09407
1.09402
1.09398
1.09395
1.09393
1.09392
1.09391
1.09392
1.09393
1.09394
1.09396
1.09399
1.09402
1.09406
1.09409
1.09413
1.09418
1.09422
1.09427
1.09432
1.09436
1.09441
1.09446
1.09451
1.09455
1.09459
1.09464
1.09467
1.09471
1.09474
1.09477
1.0948
1.09482
1.09484
1.09485
1.09486
1.09486
1.09486
1.09485
1.09484
1.09483
1.09481
1.09478
1.09476
1.09473
1.0947
1.09467
1.09464
1.09462
1.09459
1.09457
1.09456
1.09455
1.09455
1.09455
1.09457
1.09459
1.09462
1.09466
1.09471
1.09477
1.09483
1.0949
1.09498
1.09506
1.09515
1.09523
1.09533
1.09542
1.09551
1.0956
1.09569
1.09578
1.09586
1.09594
1.09602
1.0961
1.09617
1.09624
1.0963
1.09637
1.09643
1.09648
1.09654
1.09659
1.09665
1.0967
1.09675
1.0968
1.09686
1.09691
1.09697
1.09702
1.09708
1.09714
1.09721
1.09728
1.09735
1.09742
1.0975
1.09758
1.09767
1.09776
1.09786
1.09797
1.09808
1.09819
1.09832
1.09845
1.09859
1.09874
1.0989
1.09907
1.09925
1.09945
1.09967
1.09991
1.10016
1.10044
1.10075
1.10108
1.10144
1.10183
1.10225
1.10271
1.10319
1.1037
1.10424
1.1048
1.10537
1.10596
1.10654
1.10712
1.10767
1.10819
1.10866
1.10908
1.10943
1.1097
1.10989
1.10998
1.10998
1.10989
1.1097
1.10941
1.10904
1.10859
1.10806
1.10745
1.10677
1.10603
1.10522
1.10435
1.10342
1.10243
1.10138
1.10029
1.09915
1.09797
1.09675
1.09551
1.09424
1.09296
1.09166
1.09034
1.08902
1.08768
1.08634
1.08499
1.08364
1.0823
1.08096
1.07965
1.07836
1.0771
1.07589
1.07472
1.07361
1.07255
1.07156
1.07064
1.06978
1.069
1.06828
1.06763
1.06704
1.06651
1.06604
1.06562
1.06525
1.06492
1.06463
1.06437
1.06414
1.06392
1.06372
1.06354
1.06337
1.0632
1.06305
1.0629
1.06276
1.06263
1.06251
1.06241
1.06233
1.06227
1.06223
1.06223
1.06224
1.06229
1.06236
1.06246
1.06258
1.06272
1.06288
1.06306
1.06327
1.06349
1.06372
1.06398
1.06425
1.06454
1.06485
1.06518
1.06553
1.06589
1.06628
1.06668
1.0671
1.06753
1.06799
1.06846
1.06895
1.06945
1.06997
1.0705
1.07103
1.07158
1.08608
1.08611
1.08613
1.08614
1.08615
1.08616
1.08617
1.08617
1.08616
1.08616
1.08615
1.08613
1.08612
1.0861
1.08608
1.08606
1.08604
1.08601
1.08599
1.08597
1.08594
1.08592
1.0859
1.08588
1.08586
1.08585
1.08584
1.08584
1.08584
1.08585
1.08586
1.08589
1.08592
1.08596
1.08602
1.08608
1.08616
1.08624
1.08634
1.08645
1.08658
1.08671
1.08686
1.08702
1.08719
1.08738
1.08757
1.08778
1.08799
1.08821
1.08845
1.08869
1.08894
1.08919
1.08945
1.08972
1.08999
1.09027
1.09055
1.09084
1.09112
1.09141
1.09171
1.092
1.0923
1.0926
1.0929
1.0932
1.0935
1.09381
1.09412
1.09443
1.09474
1.09506
1.09538
1.0957
1.09602
1.09635
1.09668
1.09701
1.09735
1.09768
1.09802
1.09836
1.0987
1.09903
1.09936
1.09969
1.1
1.10031
1.1006
1.10089
1.10115
1.1014
1.10162
1.10182
1.102
1.10216
1.10229
1.10239
1.10247
1.10253
1.10256
1.10257
1.10256
1.10253
1.10249
1.10243
1.10235
1.10226
1.10216
1.10206
1.10194
1.10182
1.10168
1.10155
1.10141
1.10126
1.10111
1.10095
1.10079
1.10062
1.10046
1.10028
1.10011
1.09992
1.09974
1.09955
1.09936
1.09917
1.09897
1.09878
1.09858
1.09838
1.09817
1.09797
1.09777
1.09757
1.09737
1.09717
1.09697
1.09677
1.09658
1.09639
1.09621
1.09603
1.09585
1.09568
1.09552
1.09536
1.09521
1.09506
1.09492
1.09479
1.09467
1.09456
1.09445
1.09436
1.09427
1.0942
1.09413
1.09407
1.09402
1.09398
1.09395
1.09393
1.09392
1.09391
1.09391
1.09392
1.09394
1.09396
1.09398
1.09401
1.09405
1.09408
1.09412
1.09417
1.09421
1.09426
1.0943
1.09435
1.0944
1.09444
1.09449
1.09453
1.09458
1.09462
1.09466
1.09469
1.09473
1.09476
1.09478
1.09481
1.09482
1.09484
1.09485
1.09485
1.09485
1.09485
1.09484
1.09483
1.09481
1.09479
1.09476
1.09474
1.09471
1.09469
1.09466
1.09464
1.09461
1.0946
1.09458
1.09458
1.09457
1.09458
1.09459
1.09462
1.09465
1.09468
1.09473
1.09479
1.09485
1.09492
1.09499
1.09507
1.09515
1.09524
1.09532
1.09541
1.0955
1.09559
1.09568
1.09577
1.09585
1.09593
1.09601
1.09608
1.09615
1.09622
1.09629
1.09635
1.09641
1.09647
1.09652
1.09658
1.09663
1.09669
1.09674
1.09679
1.09685
1.09691
1.09696
1.09703
1.09709
1.09715
1.09722
1.09729
1.09737
1.09745
1.09753
1.09762
1.09771
1.09781
1.09791
1.09802
1.09813
1.09825
1.09838
1.09851
1.09866
1.09881
1.09898
1.09915
1.09934
1.09954
1.09976
1.1
1.10026
1.10054
1.10085
1.10118
1.10154
1.10192
1.10234
1.10278
1.10326
1.10375
1.10428
1.10482
1.10537
1.10594
1.10649
1.10704
1.10756
1.10805
1.10848
1.10886
1.10917
1.1094
1.10953
1.10958
1.10953
1.10938
1.10914
1.1088
1.10837
1.10787
1.10728
1.10663
1.10591
1.10512
1.10427
1.10337
1.10242
1.10141
1.10037
1.09928
1.09816
1.09701
1.09585
1.09466
1.09347
1.09227
1.09107
1.08986
1.08864
1.08742
1.0862
1.08498
1.08375
1.08252
1.0813
1.08009
1.07889
1.07771
1.07656
1.07545
1.07438
1.07335
1.07237
1.07144
1.07058
1.06977
1.06902
1.06834
1.06771
1.06714
1.06662
1.06615
1.06573
1.06536
1.06502
1.06471
1.06444
1.06418
1.06395
1.06373
1.06353
1.06334
1.06316
1.06299
1.06284
1.0627
1.06257
1.06247
1.06238
1.06232
1.06228
1.06227
1.06229
1.06233
1.0624
1.06249
1.06261
1.06275
1.06291
1.06309
1.06329
1.06351
1.06374
1.064
1.06427
1.06456
1.06487
1.0652
1.06554
1.06591
1.06629
1.06669
1.06711
1.06755
1.068
1.06847
1.06896
1.06946
1.06998
1.0705
1.07104
1.0716
1.08606
1.08608
1.0861
1.08611
1.08612
1.08613
1.08614
1.08614
1.08613
1.08613
1.08612
1.08611
1.08609
1.08608
1.08606
1.08604
1.08602
1.08599
1.08597
1.08595
1.08593
1.0859
1.08588
1.08587
1.08585
1.08584
1.08583
1.08583
1.08583
1.08584
1.08586
1.08589
1.08592
1.08596
1.08602
1.08608
1.08616
1.08624
1.08634
1.08645
1.08658
1.08671
1.08686
1.08702
1.08719
1.08737
1.08756
1.08777
1.08798
1.0882
1.08843
1.08867
1.08891
1.08917
1.08942
1.08969
1.08995
1.09023
1.0905
1.09078
1.09106
1.09135
1.09164
1.09193
1.09222
1.09251
1.09281
1.0931
1.0934
1.0937
1.09401
1.09431
1.09462
1.09494
1.09525
1.09557
1.09589
1.09622
1.09655
1.09688
1.09721
1.09755
1.09789
1.09823
1.09857
1.09891
1.09924
1.09957
1.09989
1.1002
1.1005
1.10079
1.10106
1.10131
1.10154
1.10175
1.10193
1.10209
1.10223
1.10233
1.10242
1.10247
1.10251
1.10252
1.10251
1.10248
1.10244
1.10238
1.1023
1.10222
1.10212
1.10201
1.10189
1.10177
1.10164
1.1015
1.10136
1.10122
1.10106
1.10091
1.10075
1.10058
1.10042
1.10024
1.10007
1.09989
1.0997
1.09952
1.09933
1.09913
1.09894
1.09874
1.09854
1.09834
1.09814
1.09794
1.09774
1.09754
1.09734
1.09714
1.09694
1.09675
1.09656
1.09637
1.09619
1.09601
1.09584
1.09567
1.0955
1.09535
1.09519
1.09505
1.09491
1.09479
1.09466
1.09455
1.09445
1.09435
1.09427
1.09419
1.09413
1.09407
1.09402
1.09398
1.09395
1.09393
1.09391
1.09391
1.09391
1.09391
1.09393
1.09395
1.09397
1.094
1.09403
1.09407
1.09411
1.09415
1.09419
1.09424
1.09428
1.09433
1.09438
1.09442
1.09447
1.09451
1.09456
1.0946
1.09464
1.09467
1.09471
1.09474
1.09476
1.09479
1.09481
1.09482
1.09483
1.09484
1.09484
1.09484
1.09483
1.09482
1.09481
1.09479
1.09477
1.09475
1.09473
1.0947
1.09468
1.09466
1.09464
1.09463
1.09461
1.09461
1.09461
1.09461
1.09463
1.09465
1.09468
1.09471
1.09476
1.09481
1.09487
1.09493
1.095
1.09508
1.09516
1.09524
1.09533
1.09541
1.0955
1.09558
1.09567
1.09575
1.09583
1.09591
1.09599
1.09606
1.09613
1.0962
1.09626
1.09632
1.09639
1.09644
1.0965
1.09656
1.09661
1.09667
1.09672
1.09678
1.09684
1.0969
1.09696
1.09703
1.09709
1.09716
1.09724
1.09731
1.0974
1.09748
1.09757
1.09766
1.09776
1.09786
1.09797
1.09808
1.0982
1.09833
1.09846
1.0986
1.09875
1.09891
1.09908
1.09926
1.09945
1.09966
1.09988
1.10012
1.10038
1.10066
1.10097
1.10129
1.10165
1.10203
1.10244
1.10287
1.10333
1.10381
1.10432
1.10484
1.10537
1.1059
1.10643
1.10694
1.10742
1.10787
1.10826
1.10859
1.10884
1.10901
1.10909
1.10908
1.10896
1.10875
1.10844
1.10803
1.10754
1.10697
1.10632
1.10561
1.10483
1.10399
1.1031
1.10216
1.10118
1.10017
1.09912
1.09804
1.09695
1.09585
1.09474
1.09364
1.09253
1.09143
1.09034
1.08926
1.08817
1.08709
1.08601
1.08493
1.08384
1.08275
1.08166
1.08057
1.07949
1.07841
1.07735
1.0763
1.07528
1.07429
1.07334
1.07242
1.07155
1.07073
1.06995
1.06922
1.06855
1.06793
1.06736
1.06683
1.06636
1.06592
1.06552
1.06516
1.06483
1.06453
1.06425
1.06399
1.06375
1.06353
1.06332
1.06313
1.06296
1.0628
1.06266
1.06255
1.06245
1.06239
1.06235
1.06233
1.06235
1.06239
1.06245
1.06254
1.06265
1.06279
1.06295
1.06312
1.06332
1.06353
1.06377
1.06402
1.06429
1.06458
1.06489
1.06521
1.06556
1.06592
1.0663
1.06671
1.06712
1.06756
1.06802
1.06849
1.06897
1.06947
1.06999
1.07051
1.07106
1.07161
1.08603
1.08605
1.08607
1.08608
1.08609
1.0861
1.0861
1.0861
1.0861
1.08609
1.08609
1.08608
1.08606
1.08605
1.08603
1.08601
1.08599
1.08597
1.08595
1.08593
1.08591
1.08589
1.08587
1.08585
1.08584
1.08583
1.08582
1.08582
1.08582
1.08584
1.08585
1.08588
1.08592
1.08596
1.08601
1.08608
1.08615
1.08624
1.08634
1.08645
1.08657
1.08671
1.08685
1.08701
1.08718
1.08736
1.08755
1.08775
1.08796
1.08818
1.0884
1.08864
1.08888
1.08912
1.08938
1.08963
1.0899
1.09016
1.09043
1.09071
1.09098
1.09126
1.09154
1.09182
1.09211
1.09239
1.09268
1.09297
1.09327
1.09356
1.09386
1.09416
1.09447
1.09478
1.09509
1.0954
1.09572
1.09605
1.09638
1.09671
1.09705
1.09738
1.09773
1.09807
1.09841
1.09875
1.09909
1.09943
1.09975
1.10007
1.10038
1.10067
1.10095
1.10121
1.10145
1.10166
1.10185
1.10202
1.10216
1.10227
1.10235
1.10242
1.10245
1.10247
1.10246
1.10243
1.10238
1.10232
1.10225
1.10216
1.10206
1.10196
1.10184
1.10172
1.10159
1.10145
1.10131
1.10117
1.10102
1.10086
1.1007
1.10054
1.10037
1.1002
1.10002
1.09984
1.09966
1.09947
1.09928
1.09909
1.09889
1.0987
1.0985
1.0983
1.0981
1.0979
1.0977
1.0975
1.0973
1.0971
1.09691
1.09672
1.09653
1.09634
1.09616
1.09598
1.09581
1.09564
1.09548
1.09532
1.09518
1.09503
1.0949
1.09477
1.09465
1.09454
1.09444
1.09435
1.09426
1.09419
1.09412
1.09406
1.09401
1.09397
1.09394
1.09392
1.0939
1.0939
1.0939
1.0939
1.09391
1.09393
1.09396
1.09398
1.09401
1.09405
1.09409
1.09413
1.09417
1.09421
1.09426
1.0943
1.09435
1.0944
1.09444
1.09449
1.09453
1.09457
1.09461
1.09465
1.09468
1.09471
1.09474
1.09477
1.09479
1.0948
1.09482
1.09483
1.09483
1.09483
1.09483
1.09482
1.09481
1.0948
1.09478
1.09476
1.09475
1.09473
1.09471
1.09469
1.09467
1.09466
1.09465
1.09464
1.09464
1.09465
1.09466
1.09468
1.09471
1.09474
1.09479
1.09483
1.09489
1.09495
1.09502
1.09509
1.09517
1.09524
1.09533
1.09541
1.09549
1.09557
1.09566
1.09574
1.09582
1.09589
1.09597
1.09604
1.09611
1.09617
1.09624
1.0963
1.09636
1.09642
1.09648
1.09653
1.09659
1.09665
1.09671
1.09677
1.09683
1.0969
1.09696
1.09703
1.0971
1.09718
1.09726
1.09734
1.09743
1.09752
1.09761
1.09771
1.09782
1.09793
1.09804
1.09816
1.09828
1.09842
1.09855
1.0987
1.09885
1.09902
1.09919
1.09938
1.09957
1.09979
1.10001
1.10025
1.10052
1.1008
1.1011
1.10142
1.10177
1.10214
1.10254
1.10296
1.1034
1.10387
1.10435
1.10484
1.10534
1.10584
1.10633
1.1068
1.10724
1.10763
1.10797
1.10824
1.10843
1.10854
1.10855
1.10846
1.10827
1.10798
1.10759
1.10711
1.10655
1.1059
1.10518
1.1044
1.10356
1.10267
1.10173
1.10076
1.09976
1.09874
1.09769
1.09664
1.09559
1.09454
1.09351
1.09249
1.09148
1.0905
1.08953
1.08858
1.08764
1.08671
1.08578
1.08485
1.08391
1.08298
1.08203
1.08108
1.08012
1.07916
1.0782
1.07724
1.07629
1.07535
1.07443
1.07353
1.07266
1.07183
1.07103
1.07027
1.06955
1.06888
1.06824
1.06766
1.06712
1.06661
1.06615
1.06572
1.06533
1.06497
1.06463
1.06432
1.06404
1.06377
1.06353
1.06331
1.06311
1.06294
1.06278
1.06265
1.06255
1.06248
1.06243
1.06241
1.06242
1.06245
1.06251
1.0626
1.06271
1.06284
1.06299
1.06316
1.06335
1.06356
1.06379
1.06404
1.06431
1.0646
1.06491
1.06523
1.06558
1.06594
1.06632
1.06672
1.06714
1.06758
1.06803
1.0685
1.06899
1.06949
1.07
1.07053
1.07107
1.07162
1.08599
1.08601
1.08603
1.08604
1.08605
1.08606
1.08606
1.08606
1.08606
1.08606
1.08605
1.08604
1.08603
1.08601
1.086
1.08598
1.08596
1.08594
1.08592
1.0859
1.08588
1.08586
1.08585
1.08583
1.08582
1.08581
1.08581
1.08581
1.08581
1.08583
1.08585
1.08587
1.08591
1.08595
1.08601
1.08607
1.08615
1.08624
1.08633
1.08644
1.08656
1.0867
1.08684
1.087
1.08716
1.08734
1.08752
1.08772
1.08793
1.08814
1.08836
1.08859
1.08882
1.08907
1.08931
1.08956
1.08982
1.09008
1.09034
1.09061
1.09087
1.09114
1.09142
1.09169
1.09197
1.09225
1.09253
1.09281
1.0931
1.09339
1.09368
1.09398
1.09428
1.09458
1.09489
1.09521
1.09552
1.09585
1.09618
1.09651
1.09685
1.09719
1.09753
1.09788
1.09822
1.09857
1.09892
1.09926
1.09959
1.09992
1.10024
1.10054
1.10082
1.10109
1.10134
1.10156
1.10176
1.10193
1.10208
1.1022
1.10229
1.10235
1.10239
1.1024
1.1024
1.10237
1.10233
1.10227
1.10219
1.1021
1.10201
1.1019
1.10178
1.10166
1.10153
1.1014
1.10126
1.10111
1.10096
1.10081
1.10065
1.10048
1.10032
1.10014
1.09997
1.09979
1.09961
1.09942
1.09923
1.09904
1.09884
1.09865
1.09845
1.09825
1.09805
1.09785
1.09765
1.09745
1.09725
1.09706
1.09686
1.09667
1.09649
1.0963
1.09612
1.09595
1.09577
1.09561
1.09545
1.0953
1.09515
1.09501
1.09488
1.09475
1.09463
1.09452
1.09442
1.09433
1.09425
1.09417
1.09411
1.09405
1.094
1.09396
1.09393
1.09391
1.09389
1.09388
1.09388
1.09389
1.0939
1.09391
1.09394
1.09396
1.09399
1.09403
1.09406
1.0941
1.09414
1.09419
1.09423
1.09428
1.09432
1.09437
1.09441
1.09446
1.0945
1.09454
1.09458
1.09462
1.09465
1.09469
1.09472
1.09474
1.09476
1.09478
1.0948
1.09481
1.09482
1.09482
1.09482
1.09482
1.09481
1.09481
1.09479
1.09478
1.09476
1.09475
1.09473
1.09472
1.09471
1.0947
1.09469
1.09468
1.09468
1.09469
1.0947
1.09472
1.09475
1.09478
1.09482
1.09486
1.09492
1.09497
1.09504
1.0951
1.09517
1.09525
1.09533
1.09541
1.09548
1.09556
1.09564
1.09572
1.0958
1.09587
1.09594
1.09601
1.09608
1.09614
1.09621
1.09627
1.09633
1.09639
1.09645
1.09651
1.09657
1.09663
1.09669
1.09676
1.09682
1.09689
1.09696
1.09704
1.09712
1.0972
1.09729
1.09738
1.09747
1.09757
1.09767
1.09778
1.09789
1.098
1.09812
1.09825
1.09838
1.09852
1.09866
1.09881
1.09897
1.09914
1.09932
1.09951
1.09971
1.09993
1.10016
1.1004
1.10066
1.10094
1.10124
1.10156
1.1019
1.10226
1.10264
1.10304
1.10346
1.1039
1.10435
1.10482
1.10528
1.10574
1.10618
1.1066
1.10699
1.10732
1.1076
1.1078
1.10792
1.10795
1.10788
1.10772
1.10744
1.10707
1.1066
1.10604
1.10539
1.10466
1.10387
1.10302
1.10212
1.10118
1.10021
1.09921
1.0982
1.09717
1.09615
1.09513
1.09413
1.09315
1.0922
1.09127
1.09038
1.08952
1.08868
1.08787
1.08707
1.08629
1.08551
1.08474
1.08396
1.08318
1.08238
1.08157
1.08075
1.07991
1.07906
1.0782
1.07734
1.07647
1.0756
1.07473
1.07388
1.07304
1.07223
1.07144
1.07068
1.06996
1.06927
1.06862
1.06801
1.06743
1.0669
1.0664
1.06593
1.0655
1.06511
1.06474
1.0644
1.06409
1.0638
1.06354
1.06331
1.06311
1.06294
1.0628
1.06268
1.0626
1.06254
1.06251
1.06251
1.06254
1.06259
1.06267
1.06277
1.0629
1.06304
1.06321
1.06339
1.0636
1.06383
1.06407
1.06434
1.06462
1.06493
1.06526
1.0656
1.06596
1.06635
1.06675
1.06716
1.0676
1.06805
1.06852
1.06901
1.06951
1.07002
1.07055
1.07109
1.07164
1.08595
1.08597
1.08599
1.086
1.08601
1.08602
1.08602
1.08602
1.08602
1.08601
1.08601
1.086
1.08599
1.08597
1.08596
1.08594
1.08593
1.08591
1.08589
1.08587
1.08585
1.08584
1.08582
1.08581
1.0858
1.08579
1.08579
1.08579
1.0858
1.08581
1.08584
1.08586
1.0859
1.08595
1.086
1.08607
1.08614
1.08623
1.08632
1.08643
1.08655
1.08668
1.08682
1.08698
1.08714
1.08731
1.08749
1.08768
1.08788
1.08809
1.08831
1.08853
1.08876
1.08899
1.08923
1.08947
1.08972
1.08997
1.09022
1.09048
1.09074
1.091
1.09127
1.09153
1.0918
1.09207
1.09235
1.09262
1.0929
1.09318
1.09347
1.09376
1.09406
1.09436
1.09466
1.09497
1.09529
1.09561
1.09594
1.09627
1.09661
1.09695
1.0973
1.09765
1.098
1.09835
1.0987
1.09905
1.0994
1.09973
1.10006
1.10037
1.10067
1.10095
1.1012
1.10144
1.10165
1.10183
1.10198
1.1021
1.1022
1.10227
1.10231
1.10233
1.10232
1.1023
1.10225
1.10219
1.10212
1.10203
1.10193
1.10183
1.10171
1.10159
1.10146
1.10133
1.10119
1.10105
1.1009
1.10074
1.10058
1.10042
1.10025
1.10008
1.09991
1.09973
1.09955
1.09936
1.09917
1.09898
1.09878
1.09859
1.09839
1.09819
1.09799
1.09779
1.09759
1.09739
1.0972
1.097
1.09681
1.09662
1.09643
1.09625
1.09607
1.0959
1.09573
1.09557
1.09541
1.09526
1.09512
1.09498
1.09485
1.09472
1.09461
1.0945
1.0944
1.09431
1.09423
1.09416
1.09409
1.09403
1.09399
1.09395
1.09391
1.09389
1.09387
1.09386
1.09386
1.09387
1.09388
1.09389
1.09391
1.09394
1.09397
1.094
1.09403
1.09407
1.09411
1.09416
1.0942
1.09424
1.09429
1.09433
1.09438
1.09442
1.09447
1.09451
1.09455
1.09459
1.09462
1.09466
1.09469
1.09471
1.09474
1.09476
1.09478
1.09479
1.09481
1.09481
1.09482
1.09482
1.09482
1.09481
1.09481
1.0948
1.09479
1.09478
1.09476
1.09475
1.09474
1.09473
1.09473
1.09473
1.09473
1.09474
1.09475
1.09477
1.09479
1.09482
1.09485
1.0949
1.09494
1.095
1.09506
1.09512
1.09519
1.09526
1.09533
1.0954
1.09548
1.09555
1.09563
1.0957
1.09577
1.09585
1.09592
1.09598
1.09605
1.09611
1.09618
1.09624
1.0963
1.09636
1.09642
1.09648
1.09655
1.09661
1.09668
1.09675
1.09682
1.09689
1.09697
1.09705
1.09714
1.09723
1.09732
1.09742
1.09752
1.09762
1.09773
1.09785
1.09797
1.09809
1.09822
1.09835
1.09849
1.09863
1.09878
1.09894
1.09911
1.09928
1.09946
1.09966
1.09986
1.10008
1.10031
1.10055
1.10081
1.10108
1.10138
1.10169
1.10201
1.10236
1.10272
1.1031
1.1035
1.10391
1.10432
1.10475
1.10517
1.10558
1.10597
1.10633
1.10665
1.10692
1.10713
1.10726
1.1073
1.10725
1.10709
1.10684
1.10648
1.10602
1.10546
1.10481
1.10408
1.10328
1.10242
1.1015
1.10055
1.09957
1.09857
1.09756
1.09654
1.09553
1.09454
1.09357
1.09263
1.09173
1.09087
1.09005
1.08927
1.08853
1.08782
1.08715
1.08649
1.08586
1.08523
1.08461
1.08398
1.08335
1.0827
1.08203
1.08135
1.08064
1.07991
1.07916
1.07839
1.0776
1.07679
1.07597
1.07515
1.07433
1.07351
1.07271
1.07192
1.07115
1.07041
1.0697
1.06902
1.06837
1.06776
1.06719
1.06665
1.06614
1.06567
1.06524
1.06484
1.06447
1.06414
1.06384
1.06357
1.06334
1.06314
1.06298
1.06284
1.06274
1.06268
1.06264
1.06263
1.06265
1.06269
1.06276
1.06285
1.06297
1.0631
1.06326
1.06344
1.06364
1.06387
1.06411
1.06437
1.06466
1.06496
1.06528
1.06563
1.06599
1.06637
1.06677
1.06719
1.06763
1.06808
1.06855
1.06903
1.06953
1.07004
1.07057
1.07111
1.07165
1.08591
1.08593
1.08594
1.08596
1.08596
1.08597
1.08597
1.08597
1.08597
1.08597
1.08596
1.08595
1.08594
1.08593
1.08592
1.0859
1.08589
1.08587
1.08586
1.08584
1.08582
1.08581
1.0858
1.08579
1.08578
1.08577
1.08577
1.08578
1.08578
1.0858
1.08582
1.08585
1.08589
1.08594
1.08599
1.08606
1.08613
1.08622
1.08631
1.08642
1.08653
1.08666
1.0868
1.08695
1.08711
1.08727
1.08745
1.08764
1.08783
1.08803
1.08824
1.08845
1.08867
1.0889
1.08913
1.08936
1.0896
1.08984
1.09009
1.09033
1.09058
1.09083
1.09109
1.09135
1.0916
1.09187
1.09213
1.0924
1.09267
1.09295
1.09323
1.09352
1.09381
1.09411
1.09441
1.09472
1.09503
1.09535
1.09568
1.09601
1.09635
1.09669
1.09704
1.0974
1.09775
1.09811
1.09847
1.09882
1.09918
1.09952
1.09986
1.10018
1.10049
1.10078
1.10105
1.10129
1.10151
1.1017
1.10186
1.10199
1.10209
1.10217
1.10221
1.10223
1.10223
1.10221
1.10216
1.10211
1.10203
1.10195
1.10185
1.10174
1.10163
1.10151
1.10138
1.10125
1.10111
1.10097
1.10082
1.10067
1.10051
1.10035
1.10018
1.10001
1.09984
1.09966
1.09948
1.09929
1.0991
1.09891
1.09871
1.09852
1.09832
1.09812
1.09792
1.09772
1.09752
1.09732
1.09713
1.09693
1.09674
1.09656
1.09637
1.09619
1.09602
1.09584
1.09568
1.09552
1.09536
1.09521
1.09507
1.09494
1.09481
1.09469
1.09458
1.09447
1.09437
1.09429
1.09421
1.09413
1.09407
1.09401
1.09397
1.09393
1.09389
1.09387
1.09385
1.09384
1.09384
1.09384
1.09385
1.09387
1.09388
1.09391
1.09394
1.09397
1.094
1.09404
1.09408
1.09412
1.09416
1.09421
1.09425
1.0943
1.09434
1.09439
1.09443
1.09447
1.09451
1.09455
1.09459
1.09462
1.09466
1.09469
1.09471
1.09474
1.09476
1.09478
1.09479
1.0948
1.09481
1.09482
1.09482
1.09482
1.09482
1.09481
1.09481
1.0948
1.0948
1.09479
1.09478
1.09478
1.09477
1.09477
1.09478
1.09478
1.09479
1.09481
1.09483
1.09486
1.09489
1.09493
1.09497
1.09502
1.09508
1.09513
1.0952
1.09526
1.09533
1.0954
1.09547
1.09554
1.09561
1.09568
1.09575
1.09582
1.09589
1.09596
1.09602
1.09608
1.09615
1.09621
1.09627
1.09633
1.0964
1.09646
1.09653
1.0966
1.09667
1.09674
1.09682
1.0969
1.09698
1.09707
1.09716
1.09726
1.09736
1.09747
1.09758
1.09769
1.09781
1.09793
1.09805
1.09818
1.09832
1.09846
1.0986
1.09875
1.09891
1.09907
1.09924
1.09942
1.09961
1.09981
1.10001
1.10023
1.10046
1.1007
1.10095
1.10122
1.1015
1.1018
1.10211
1.10243
1.10277
1.10312
1.10349
1.10386
1.10424
1.10461
1.10498
1.10534
1.10567
1.10597
1.10622
1.10642
1.10654
1.10659
1.10655
1.10641
1.10617
1.10582
1.10537
1.10482
1.10418
1.10345
1.10264
1.10177
1.10085
1.09988
1.09889
1.09788
1.09686
1.09585
1.09484
1.09387
1.09292
1.09201
1.09115
1.09033
1.08957
1.08885
1.08819
1.08757
1.08699
1.08645
1.08593
1.08543
1.08494
1.08446
1.08397
1.08348
1.08297
1.08244
1.08189
1.08132
1.08071
1.08007
1.0794
1.0787
1.07797
1.07721
1.07644
1.07564
1.07484
1.07404
1.07323
1.07243
1.07165
1.07088
1.07014
1.06943
1.06874
1.06809
1.06747
1.06689
1.06634
1.06584
1.06537
1.06494
1.06455
1.06421
1.0639
1.06363
1.0634
1.06321
1.06305
1.06293
1.06285
1.0628
1.06277
1.06278
1.06281
1.06287
1.06295
1.06306
1.06318
1.06333
1.06351
1.0637
1.06392
1.06415
1.06441
1.06469
1.065
1.06532
1.06566
1.06602
1.0664
1.0668
1.06722
1.06766
1.06811
1.06858
1.06906
1.06956
1.07007
1.07059
1.07113
1.07167
1.08587
1.08589
1.0859
1.08591
1.08592
1.08592
1.08592
1.08593
1.08592
1.08592
1.08591
1.08591
1.0859
1.08589
1.08588
1.08586
1.08585
1.08583
1.08582
1.08581
1.08579
1.08578
1.08577
1.08576
1.08575
1.08575
1.08575
1.08576
1.08577
1.08578
1.08581
1.08584
1.08588
1.08592
1.08598
1.08604
1.08612
1.0862
1.0863
1.0864
1.08651
1.08664
1.08677
1.08692
1.08707
1.08723
1.0874
1.08758
1.08777
1.08796
1.08816
1.08836
1.08857
1.08879
1.08901
1.08923
1.08946
1.08969
1.08992
1.09016
1.0904
1.09064
1.09088
1.09113
1.09138
1.09163
1.09189
1.09215
1.09242
1.09269
1.09296
1.09324
1.09353
1.09382
1.09412
1.09443
1.09474
1.09506
1.09539
1.09572
1.09606
1.0964
1.09675
1.09711
1.09747
1.09783
1.0982
1.09856
1.09892
1.09927
1.09962
1.09995
1.10027
1.10057
1.10085
1.10111
1.10134
1.10154
1.10171
1.10185
1.10196
1.10204
1.10209
1.10212
1.10212
1.1021
1.10205
1.102
1.10192
1.10184
1.10175
1.10164
1.10153
1.10141
1.10129
1.10116
1.10102
1.10088
1.10073
1.10058
1.10043
1.10026
1.1001
1.09993
1.09975
1.09958
1.09939
1.09921
1.09902
1.09882
1.09863
1.09843
1.09823
1.09804
1.09784
1.09764
1.09744
1.09724
1.09705
1.09686
1.09667
1.09648
1.0963
1.09612
1.09595
1.09578
1.09562
1.09546
1.09531
1.09516
1.09502
1.09489
1.09477
1.09465
1.09454
1.09444
1.09434
1.09425
1.09418
1.0941
1.09404
1.09399
1.09394
1.0939
1.09387
1.09384
1.09383
1.09382
1.09381
1.09381
1.09382
1.09384
1.09385
1.09388
1.0939