# vtk DataFile Version 2.0
LBE two cylinders
ASCII
DATASET STRUCTURED_POINTS
DIMENSIONS 400 100 1
ASPECT_RATIO 1 1 1
ORIGIN 0 0 0
POINT_DATA 40000
SCALARS rho double 1
LOOKUP_TABLE default
1.61664
1.61663
1.61662
1.61661
1.61661
1.6166
1.6166
1.6166
1.6166
1.61659
1.61659
1.6166
1.6166
1.6166
1.6166
1.61659
1.61659
1.61658
1.61657
1.61656
1.61654
1.61652
1.61649
1.61646
1.61643
1.61639
1.61635
1.61631
1.61627
1.61622
1.61618
1.61615
1.61612
1.61609
1.61607
1.61607
1.61608
1.6161
1.61613
1.61618
1.61625
1.61634
1.61644
1.61656
1.6167
1.61685
1.61702
1.61721
1.61741
1.61762
1.61784
1.61808
1.61832
1.61857
1.61883
1.6191
1.61937
1.61965
1.61993
1.62021
1.6205
1.62078
1.62107
1.62135
1.62163
1.6219
1.62217
1.62242
1.62267
1.62291
1.62314
1.62335
1.62355
1.62373
1.6239
1.62405
1.62419
1.6243
1.6244
1.62449
1.62456
1.6246
1.62464
1.62465
1.62465
1.62463
1.6246
1.62454
1.62447
1.62439
1.62429
1.62417
1.62403
1.62388
1.62371
1.62353
1.62333
1.62312
1.62289
1.62265
1.6224
1.62213
1.62186
1.62158
1.62129
1.62099
1.62069
1.62039
1.62009
1.61979
1.61949
1.6192
1.61891
1.61863
1.61836
1.61811
1.61786
1.61763
1.61742
1.61722
1.61703
1.61686
1.61671
1.61658
1.61646
1.61635
1.61626
1.61618
1.61611
1.61605
1.616
1.61595
1.61591
1.61587
1.61584
1.6158
1.61577
1.61573
1.61569
1.61565
1.61561
1.61557
1.61552
1.61547
1.61542
1.61537
1.61532
1.61526
1.61521
1.61516
1.6151
1.61505
1.615
1.61495
1.61491
1.61486
1.61482
1.61478
1.61474
1.6147
1.61467
1.61463
1.6146
1.61457
1.61455
1.61452
1.6145
1.61449
1.61448
1.61448
1.61449
1.6145
1.61453
1.61456
1.61461
1.61468
1.61476
1.61485
1.61496
1.61509
1.61524
1.6154
1.61559
1.61579
1.61602
1.61626
1.61652
1.6168
1.61709
1.6174
1.61772
1.61806
1.6184
1.61874
1.61909
1.61943
1.61977
1.6201
1.62042
1.62072
1.621
1.62125
1.62148
1.62167
1.62184
1.62197
1.62206
1.62212
1.62214
1.62214
1.6221
1.62203
1.62194
1.62182
1.62169
1.62155
1.62139
1.62123
1.62107
1.62091
1.62076
1.62061
1.62047
1.62035
1.62023
1.62012
1.62002
1.61993
1.61984
1.61976
1.61967
1.61959
1.6195
1.6194
1.6193
1.6192
1.61909
1.61897
1.61885
1.61872
1.61859
1.61844
1.61829
1.61814
1.61797
1.61779
1.61761
1.61742
1.61722
1.61701
1.61681
1.6166
1.6164
1.6162
1.61602
1.61584
1.61568
1.61555
1.61543
1.61534
1.61528
1.61525
1.61526
1.61531
1.6154
1.61554
1.61572
1.61596
1.61624
1.61659
1.61699
1.61745
1.61798
1.61857
1.61923
1.61996
1.62077
1.62166
1.62262
1.62367
1.62481
1.62603
1.62735
1.62876
1.63026
1.63185
1.63353
1.6353
1.63715
1.63907
1.64105
1.64308
1.64514
1.64721
1.64926
1.65128
1.65322
1.65508
1.65681
1.65839
1.65981
1.66103
1.66205
1.66285
1.66342
1.66376
1.66388
1.66379
1.66349
1.66301
1.66237
1.66161
1.66075
1.65983
1.65888
1.65793
1.657
1.65613
1.65534
1.65464
1.65405
1.65357
1.65321
1.65297
1.65285
1.65284
1.65293
1.65311
1.65336
1.65367
1.65403
1.6544
1.65478
1.65514
1.65546
1.65571
1.65587
1.65592
1.65583
1.65558
1.65516
1.65456
1.65375
1.65274
1.65153
1.65013
1.64856
1.64684
1.64501
1.6431
1.64114
1.63917
1.63722
1.63533
1.63352
1.63181
1.63021
1.62874
1.6274
1.62619
1.6251
1.62414
1.62328
1.62252
1.62185
1.62126
1.62075
1.62029
1.61989
1.61953
1.61921
1.61892
1.61867
1.61844
1.61824
1.61806
1.61789
1.61775
1.61762
1.61751
1.61741
1.61732
1.61724
1.61717
1.6171
1.61705
1.617
1.61695
1.61691
1.61687
1.61684
1.61681
1.61678
1.61676
1.61673
1.61671
1.6167
1.61668
1.61666
1.61665
1.61665
1.61664
1.61663
1.61662
1.61661
1.61661
1.6166
1.6166
1.61659
1.61659
1.61659
1.61658
1.61658
1.61658
1.61658
1.61657
1.61656
1.61655
1.61654
1.61652
1.6165
1.61648
1.61645
1.61642
1.61638
1.61635
1.61631
1.61626
1.61622
1.61618
1.61614
1.61611
1.61608
1.61606
1.61604
1.61604
1.61605
1.61608
1.61611
1.61617
1.61624
1.61633
1.61643
1.61655
1.61669
1.61685
1.61702
1.6172
1.6174
1.61761
1.61784
1.61807
1.61832
1.61857
1.61883
1.6191
1.61937
1.61964
1.61993
1.62021
1.62049
1.62078
1.62106
1.62135
1.62162
1.6219
1.62216
1.62242
1.62267
1.62291
1.62313
1.62335
1.62355
1.62373
1.6239
1.62405
1.62418
1.6243
1.6244
1.62449
1.62456
1.62461
1.62464
1.62466
1.62465
1.62464
1.6246
1.62455
1.62448
1.62439
1.62429
1.62417
1.62403
1.62388
1.62371
1.62353
1.62333
1.62312
1.62289
1.62265
1.6224
1.62213
1.62186
1.62158
1.62129
1.62099
1.62069
1.62039
1.62009
1.61979
1.61949
1.6192
1.61891
1.61863
1.61837
1.61811
1.61787
1.61764
1.61742
1.61722
1.61704
1.61687
1.61672
1.61658
1.61646
1.61635
1.61626
1.61617
1.6161
1.61604
1.61598
1.61594
1.61589
1.61585
1.61582
1.61578
1.61575
1.61571
1.61567
1.61563
1.61559
1.61555
1.61551
1.61546
1.61541
1.61536
1.61531
1.61526
1.61521
1.61516
1.61511
1.61506
1.61502
1.61497
1.61492
1.61488
1.61484
1.6148
1.61476
1.61473
1.61469
1.61466
1.61463
1.6146
1.61458
1.61456
1.61454
1.61452
1.61452
1.61452
1.61452
1.61454
1.61456
1.6146
1.61465
1.61471
1.61479
1.61488
1.61499
1.61512
1.61527
1.61543
1.61562
1.61582
1.61604
1.61628
1.61654
1.61682
1.61711
1.61741
1.61773
1.61806
1.6184
1.61874
1.61908
1.61942
1.61976
1.62008
1.6204
1.62069
1.62097
1.62122
1.62145
1.62164
1.62181
1.62194
1.62203
1.62209
1.62212
1.62212
1.62208
1.62202
1.62193
1.62182
1.62169
1.62155
1.6214
1.62125
1.62109
1.62094
1.62079
1.62064
1.62051
1.62038
1.62027
1.62016
1.62006
1.61997
1.61989
1.6198
1.61972
1.61963
1.61954
1.61945
1.61935
1.61925
1.61914
1.61903
1.61891
1.61878
1.61865
1.61851
1.61836
1.61821
1.61804
1.61787
1.61769
1.6175
1.6173
1.6171
1.6169
1.6167
1.6165
1.61631
1.61613
1.61595
1.6158
1.61566
1.61555
1.61546
1.61541
1.61538
1.61539
1.61544
1.61553
1.61567
1.61585
1.61609
1.61637
1.61672
1.61712
1.61758
1.61811
1.6187
1.61936
1.6201
1.62091
1.6218
1.62277
1.62382
1.62496
1.62619
1.62751
1.62892
1.63042
1.63201
1.63369
1.63546
1.6373
1.63921
1.64119
1.6432
1.64524
1.64729
1.64932
1.65131
1.65323
1.65505
1.65676
1.65832
1.65971
1.66091
1.66191
1.66269
1.66326
1.66359
1.66371
1.66361
1.66332
1.66286
1.66224
1.66149
1.66065
1.65975
1.65882
1.65789
1.65699
1.65613
1.65535
1.65467
1.65409
1.65362
1.65326
1.65303
1.65291
1.6529
1.65299
1.65316
1.65341
1.65372
1.65406
1.65443
1.6548
1.65515
1.65545
1.65569
1.65583
1.65587
1.65577
1.65552
1.65509
1.65448
1.65368
1.65267
1.65148
1.6501
1.64855
1.64686
1.64505
1.64316
1.64122
1.63928
1.63735
1.63548
1.63368
1.63198
1.63039
1.62893
1.62759
1.62638
1.62529
1.62432
1.62346
1.6227
1.62203
1.62144
1.62092
1.62045
1.62005
1.61968
1.61935
1.61906
1.6188
1.61857
1.61836
1.61817
1.618
1.61785
1.61771
1.61759
1.61748
1.61739
1.6173
1.61722
1.61716
1.61709
1.61704
1.61699
1.61694
1.6169
1.61687
1.61683
1.6168
1.61678
1.61675
1.61673
1.61671
1.61669
1.61668
1.61666
1.61667
1.61666
1.61664
1.61663
1.61662
1.61661
1.6166
1.6166
1.61659
1.61658
1.61657
1.61657
1.61656
1.61655
1.61654
1.61653
1.61651
1.61649
1.61648
1.61645
1.61643
1.6164
1.61637
1.61633
1.61629
1.61626
1.61621
1.61617
1.61613
1.61609
1.61606
1.61603
1.616
1.61599
1.61598
1.61598
1.61599
1.61602
1.61607
1.61612
1.6162
1.61629
1.6164
1.61652
1.61666
1.61682
1.61699
1.61718
1.61738
1.61759
1.61782
1.61806
1.6183
1.61855
1.61882
1.61909
1.61936
1.61964
1.61992
1.62021
1.62049
1.62078
1.62107
1.62135
1.62163
1.62191
1.62217
1.62243
1.62268
1.62292
1.62315
1.62336
1.62356
1.62375
1.62392
1.62407
1.62421
1.62433
1.62443
1.62451
1.62458
1.62463
1.62467
1.62468
1.62468
1.62466
1.62463
1.62458
1.62451
1.62442
1.62432
1.6242
1.62406
1.62391
1.62374
1.62355
1.62335
1.62314
1.62291
1.62267
1.62242
1.62216
1.62188
1.6216
1.62131
1.62102
1.62072
1.62042
1.62012
1.61982
1.61952
1.61923
1.61895
1.61867
1.6184
1.61814
1.6179
1.61766
1.61745
1.61724
1.61706
1.61688
1.61673
1.61658
1.61646
1.61635
1.61625
1.61616
1.61608
1.61601
1.61596
1.6159
1.61586
1.61582
1.61578
1.61574
1.6157
1.61567
1.61563
1.6156
1.61556
1.61552
1.61548
1.61544
1.61539
1.61535
1.6153
1.61526
1.61521
1.61517
1.61512
1.61508
1.61504
1.61499
1.61495
1.61492
1.61488
1.61484
1.61481
1.61477
1.61474
1.61471
1.61468
1.61466
1.61463
1.61461
1.6146
1.61458
1.61457
1.61457
1.61458
1.61459
1.61462
1.61465
1.6147
1.61476
1.61484
1.61493
1.61504
1.61516
1.61531
1.61547
1.61565
1.61585
1.61607
1.61631
1.61656
1.61683
1.61712
1.61742
1.61773
1.61806
1.61839
1.61873
1.61906
1.6194
1.61973
1.62006
1.62037
1.62066
1.62093
1.62118
1.62141
1.6216
1.62177
1.6219
1.622
1.62206
1.62209
1.62209
1.62206
1.622
1.62192
1.62182
1.6217
1.62156
1.62142
1.62127
1.62112
1.62097
1.62083
1.62069
1.62056
1.62044
1.62032
1.62022
1.62012
1.62003
1.61995
1.61987
1.61978
1.6197
1.61962
1.61953
1.61943
1.61934
1.61923
1.61913
1.61901
1.61889
1.61877
1.61863
1.61849
1.61834
1.61818
1.61801
1.61783
1.61765
1.61746
1.61727
1.61707
1.61687
1.61668
1.61649
1.61631
1.61614
1.61599
1.61586
1.61575
1.61567
1.61561
1.61559
1.6156
1.61565
1.61574
1.61588
1.61606
1.61629
1.61658
1.61692
1.61732
1.61779
1.61831
1.61891
1.61957
1.62031
1.62112
1.62201
1.62299
1.62405
1.62519
1.62642
1.62774
1.62915
1.63066
1.63225
1.63392
1.63568
1.63752
1.63942
1.64138
1.64338
1.6454
1.64742
1.64942
1.65138
1.65327
1.65507
1.65675
1.65828
1.65965
1.66083
1.66181
1.66257
1.66312
1.66345
1.66356
1.66347
1.66318
1.66272
1.66211
1.66138
1.66056
1.65968
1.65876
1.65785
1.65696
1.65613
1.65537
1.65469
1.65412
1.65367
1.65332
1.65309
1.65298
1.65297
1.65306
1.65324
1.65348
1.65379
1.65413
1.65449
1.65485
1.65519
1.65548
1.65571
1.65585
1.65588
1.65578
1.65552
1.6551
1.6545
1.6537
1.65271
1.65153
1.65016
1.64864
1.64697
1.64518
1.64331
1.6414
1.63947
1.63756
1.6357
1.63391
1.63222
1.63065
1.62919
1.62786
1.62665
1.62556
1.62459
1.62373
1.62297
1.62229
1.6217
1.62117
1.6207
1.62028
1.61991
1.61958
1.61928
1.619
1.61876
1.61854
1.61834
1.61816
1.618
1.61785
1.61772
1.61761
1.6175
1.61741
1.61732
1.61725
1.61718
1.61712
1.61706
1.61701
1.61696
1.61692
1.61688
1.61685
1.61682
1.61679
1.61676
1.61674
1.61672
1.6167
1.61669
1.61671
1.61669
1.61668
1.61666
1.61665
1.61663
1.61662
1.6166
1.61659
1.61657
1.61656
1.61654
1.61652
1.6165
1.61648
1.61646
1.61644
1.61641
1.61638
1.61635
1.61632
1.61628
1.61624
1.6162
1.61616
1.61612
1.61608
1.61604
1.616
1.61596
1.61593
1.61591
1.61589
1.61588
1.61587
1.61588
1.6159
1.61594
1.61599
1.61605
1.61613
1.61623
1.61634
1.61647
1.61661
1.61677
1.61695
1.61714
1.61734
1.61756
1.61778
1.61802
1.61827
1.61853
1.61879
1.61907
1.61935
1.61963
1.61991
1.6202
1.62049
1.62079
1.62107
1.62136
1.62164
1.62192
1.62219
1.62245
1.6227
1.62294
1.62317
1.62339
1.62359
1.62378
1.62395
1.6241
1.62424
1.62436
1.62447
1.62456
1.62462
1.62468
1.62471
1.62473
1.62472
1.62471
1.62467
1.62462
1.62455
1.62446
1.62435
1.62423
1.62409
1.62394
1.62376
1.62358
1.62338
1.62316
1.62293
1.62269
1.62243
1.62216
1.62189
1.6216
1.62131
1.62102
1.62072
1.62042
1.62012
1.61982
1.61952
1.61923
1.61894
1.61866
1.61839
1.61814
1.61789
1.61766
1.61744
1.61723
1.61704
1.61687
1.61671
1.61656
1.61643
1.61631
1.61621
1.61612
1.61603
1.61596
1.6159
1.61585
1.6158
1.61576
1.61572
1.61568
1.61565
1.61561
1.61558
1.61555
1.61552
1.61548
1.61545
1.61542
1.61538
1.61534
1.61531
1.61527
1.61523
1.6152
1.61516
1.61512
1.61509
1.61505
1.61502
1.61499
1.61496
1.61492
1.61489
1.61486
1.61484
1.61481
1.61478
1.61476
1.61474
1.61472
1.6147
1.61469
1.61468
1.61468
1.61468
1.61469
1.61472
1.61475
1.61479
1.61485
1.61492
1.61501
1.61512
1.61524
1.61538
1.61554
1.61571
1.61591
1.61612
1.61636
1.61661
1.61687
1.61715
1.61745
1.61776
1.61808
1.6184
1.61873
1.61906
1.61939
1.61972
1.62004
1.62034
1.62063
1.6209
1.62115
1.62138
1.62157
1.62173
1.62187
1.62197
1.62204
1.62207
1.62208
1.62205
1.622
1.62193
1.62183
1.62172
1.6216
1.62146
1.62132
1.62118
1.62104
1.62091
1.62077
1.62065
1.62054
1.62043
1.62033
1.62024
1.62015
1.62007
1.61999
1.61991
1.61984
1.61976
1.61967
1.61959
1.6195
1.6194
1.6193
1.6192
1.61908
1.61896
1.61883
1.6187
1.61855
1.6184
1.61823
1.61806
1.61788
1.6177
1.61751
1.61732
1.61713
1.61694
1.61676
1.61658
1.61642
1.61627
1.61614
1.61604
1.61596
1.6159
1.61588
1.61589
1.61594
1.61604
1.61617
1.61635
1.61659
1.61687
1.61722
1.61762
1.61808
1.61861
1.6192
1.61987
1.62061
1.62142
1.62232
1.62329
1.62435
1.6255
1.62673
1.62806
1.62947
1.63097
1.63256
1.63423
1.63598
1.6378
1.63969
1.64163
1.6436
1.64559
1.64759
1.64956
1.65148
1.65334
1.65511
1.65675
1.65825
1.65959
1.66075
1.66171
1.66246
1.663
1.66332
1.66343
1.66333
1.66305
1.6626
1.662
1.66129
1.66049
1.65963
1.65873
1.65784
1.65698
1.65616
1.65542
1.65476
1.6542
1.65375
1.65342
1.6532
1.65309
1.65308
1.65317
1.65334
1.65359
1.65388
1.65422
1.65457
1.65493
1.65526
1.65555
1.65577
1.65591
1.65593
1.65583
1.65558
1.65516
1.65457
1.65379
1.65281
1.65165
1.65031
1.6488
1.64715
1.64539
1.64355
1.64165
1.63974
1.63785
1.636
1.63423
1.63255
1.63099
1.62954
1.62821
1.627
1.62592
1.62495
1.62409
1.62332
1.62264
1.62204
1.6215
1.62102
1.62059
1.62021
1.61986
1.61955
1.61926
1.61901
1.61877
1.61856
1.61837
1.6182
1.61804
1.6179
1.61777
1.61766
1.61756
1.61746
1.61738
1.6173
1.61723
1.61717
1.61711
1.61706
1.61701
1.61696
1.61692
1.61689
1.61685
1.61682
1.6168
1.61677
1.61675
1.61673
1.61677
1.61675
1.61672
1.6167
1.61668
1.61666
1.61664
1.61661
1.61659
1.61656
1.61654
1.61651
1.61648
1.61645
1.61641
1.61638
1.61634
1.6163
1.61626
1.61622
1.61618
1.61613
1.61609
1.61604
1.616
1.61595
1.61591
1.61587
1.61583
1.6158
1.61577
1.61575
1.61574
1.61573
1.61574
1.61575
1.61578
1.61583
1.61588
1.61595
1.61604
1.61614
1.61626
1.61639
1.61654
1.61671
1.61689
1.61708
1.61729
1.61751
1.61774
1.61798
1.61824
1.6185
1.61877
1.61905
1.61933
1.61962
1.61991
1.6202
1.6205
1.62079
1.62109
1.62138
1.62167
1.62195
1.62222
1.62249
1.62274
1.62298
1.62322
1.62344
1.62364
1.62383
1.624
1.62416
1.6243
1.62443
1.62453
1.62462
1.62469
1.62474
1.62478
1.62479
1.62479
1.62477
1.62473
1.62468
1.62461
1.62452
1.62441
1.62429
1.62415
1.62399
1.62382
1.62363
1.62343
1.62321
1.62298
1.62274
1.62248
1.62222
1.62194
1.62166
1.62137
1.62108
1.62078
1.62048
1.62018
1.61987
1.61958
1.61928
1.61899
1.61871
1.61844
1.61818
1.61793
1.61769
1.61746
1.61725
1.61705
1.61687
1.6167
1.61655
1.61641
1.61628
1.61617
1.61607
1.61598
1.6159
1.61584
1.61578
1.61572
1.61568
1.61564
1.6156
1.61557
1.61554
1.61551
1.61548
1.61546
1.61543
1.6154
1.61538
1.61535
1.61533
1.6153
1.61527
1.61525
1.61522
1.61519
1.61516
1.61514
1.61511
1.61509
1.61506
1.61504
1.61501
1.61499
1.61496
1.61494
1.61491
1.61489
1.61487
1.61485
1.61483
1.61481
1.6148
1.61479
1.61479
1.61479
1.6148
1.61482
1.61485
1.61489
1.61495
1.61502
1.6151
1.6152
1.61532
1.61545
1.61561
1.61578
1.61597
1.61618
1.6164
1.61665
1.6169
1.61718
1.61747
1.61777
1.61808
1.6184
1.61872
1.61905
1.61937
1.61969
1.62
1.6203
1.62058
1.62085
1.6211
1.62132
1.62151
1.62167
1.62181
1.62191
1.62199
1.62203
1.62204
1.62202
1.62198
1.62192
1.62183
1.62173
1.62162
1.62149
1.62137
1.62123
1.6211
1.62098
1.62085
1.62074
1.62063
1.62053
1.62044
1.62035
1.62027
1.6202
1.62012
1.62005
1.61998
1.61991
1.61984
1.61976
1.61968
1.61959
1.6195
1.6194
1.6193
1.61919
1.61907
1.61894
1.6188
1.61865
1.6185
1.61834
1.61816
1.61799
1.61781
1.61763
1.61744
1.61726
1.61709
1.61692
1.61676
1.61662
1.6165
1.6164
1.61632
1.61627
1.61625
1.61626
1.61631
1.61641
1.61654
1.61673
1.61696
1.61724
1.61759
1.61799
1.61845
1.61898
1.61957
1.62024
1.62098
1.6218
1.62269
1.62367
1.62474
1.62589
1.62712
1.62845
1.62986
1.63136
1.63294
1.6346
1.63634
1.63815
1.64001
1.64193
1.64387
1.64584
1.64779
1.64973
1.65162
1.65344
1.65516
1.65677
1.65824
1.65955
1.66068
1.66162
1.66235
1.66288
1.66319
1.66329
1.6632
1.66292
1.66249
1.66191
1.66121
1.66044
1.6596
1.65873
1.65786
1.65702
1.65623
1.6555
1.65486
1.65432
1.65388
1.65355
1.65334
1.65323
1.65323
1.65331
1.65348
1.65372
1.65402
1.65435
1.65469
1.65504
1.65536
1.65564
1.65586
1.65599
1.65602
1.65592
1.65568
1.65527
1.65469
1.65393
1.65298
1.65184
1.65052
1.64904
1.64742
1.64568
1.64386
1.64198
1.64009
1.63822
1.63639
1.63464
1.63297
1.63141
1.62997
1.62865
1.62745
1.62637
1.6254
1.62453
1.62376
1.62307
1.62245
1.6219
1.62141
1.62097
1.62057
1.62021
1.61988
1.61958
1.61931
1.61906
1.61883
1.61863
1.61844
1.61827
1.61812
1.61798
1.61786
1.61774
1.61764
1.61755
1.61746
1.61738
1.61731
1.61724
1.61718
1.61712
1.61707
1.61703
1.61698
1.61694
1.61691
1.61688
1.61685
1.61682
1.61679
1.61685
1.61682
1.61679
1.61676
1.61673
1.6167
1.61667
1.61663
1.6166
1.61656
1.61652
1.61647
1.61643
1.61638
1.61633
1.61628
1.61623
1.61618
1.61612
1.61607
1.61601
1.61596
1.6159
1.61585
1.6158
1.61575
1.6157
1.61566
1.61563
1.6156
1.61557
1.61556
1.61555
1.61556
1.61557
1.61559
1.61563
1.61568
1.61575
1.61583
1.61592
1.61603
1.61616
1.6163
1.61645
1.61662
1.6168
1.617
1.61721
1.61744
1.61768
1.61793
1.61818
1.61845
1.61873
1.61901
1.6193
1.6196
1.6199
1.6202
1.6205
1.6208
1.6211
1.62139
1.62168
1.62197
1.62225
1.62252
1.62278
1.62303
1.62326
1.62348
1.62369
1.62389
1.62406
1.62422
1.62437
1.62449
1.6246
1.62469
1.62476
1.62482
1.62485
1.62487
1.62486
1.62484
1.62481
1.62475
1.62467
1.62458
1.62447
1.62435
1.6242
1.62404
1.62386
1.62367
1.62346
1.62324
1.62301
1.62276
1.6225
1.62223
1.62195
1.62166
1.62137
1.62107
1.62077
1.62047
1.62017
1.61986
1.61957
1.61927
1.61898
1.6187
1.61843
1.61817
1.61791
1.61767
1.61745
1.61723
1.61703
1.61684
1.61667
1.61651
1.61636
1.61623
1.61611
1.61601
1.61591
1.61583
1.61575
1.61569
1.61564
1.61559
1.61555
1.61551
1.61548
1.61546
1.61544
1.61542
1.6154
1.61538
1.61537
1.61536
1.61534
1.61533
1.61531
1.6153
1.61529
1.61527
1.61526
1.61524
1.61523
1.61521
1.6152
1.61518
1.61516
1.61514
1.61513
1.61511
1.61509
1.61507
1.61505
1.61503
1.61501
1.61499
1.61498
1.61496
1.61495
1.61495
1.61495
1.61496
1.61497
1.615
1.61504
1.61509
1.61515
1.61523
1.61533
1.61544
1.61557
1.61571
1.61588
1.61606
1.61626
1.61648
1.61672
1.61697
1.61723
1.61751
1.61781
1.61811
1.61842
1.61873
1.61905
1.61936
1.61967
1.61998
1.62027
1.62055
1.62081
1.62105
1.62127
1.62146
1.62163
1.62177
1.62187
1.62195
1.622
1.62202
1.62201
1.62198
1.62193
1.62186
1.62177
1.62167
1.62156
1.62145
1.62133
1.62121
1.6211
1.62099
1.62088
1.62079
1.62069
1.62061
1.62053
1.62046
1.62039
1.62032
1.62026
1.6202
1.62014
1.62007
1.62001
1.61993
1.61986
1.61978
1.61969
1.6196
1.61949
1.61938
1.61926
1.61913
1.61899
1.61884
1.61869
1.61853
1.61836
1.61819
1.61801
1.61784
1.61767
1.6175
1.61734
1.61719
1.61706
1.61694
1.61684
1.61677
1.61672
1.6167
1.61672
1.61677
1.61686
1.617
1.61718
1.61741
1.6177
1.61804
1.61844
1.6189
1.61942
1.62002
1.62068
1.62143
1.62225
1.62314
1.62413
1.62519
1.62634
1.62758
1.6289
1.63031
1.63181
1.63338
1.63504
1.63676
1.63855
1.64039
1.64228
1.64419
1.64612
1.64804
1.64994
1.65178
1.65356
1.65525
1.65682
1.65825
1.65953
1.66063
1.66154
1.66226
1.66277
1.66307
1.66317
1.66308
1.66282
1.66239
1.66183
1.66116
1.66041
1.6596
1.65876
1.65792
1.6571
1.65633
1.65562
1.655
1.65447
1.65404
1.65372
1.65351
1.65341
1.6534
1.65349
1.65366
1.65389
1.65418
1.6545
1.65484
1.65518
1.65549
1.65577
1.65598
1.65612
1.65615
1.65605
1.65582
1.65543
1.65487
1.65412
1.6532
1.65208
1.65079
1.64934
1.64775
1.64604
1.64424
1.64239
1.64052
1.63867
1.63686
1.63512
1.63347
1.63192
1.63049
1.62917
1.62798
1.62689
1.62592
1.62505
1.62427
1.62357
1.62294
1.62238
1.62187
1.62141
1.621
1.62061
1.62027
1.61995
1.61966
1.61939
1.61915
1.61893
1.61873
1.61855
1.61839
1.61824
1.6181
1.61797
1.61786
1.61775
1.61766
1.61757
1.61749
1.61741
1.61734
1.61727
1.61721
1.61716
1.61711
1.61706
1.61702
1.61698
1.61695
1.61691
1.61688
1.61696
1.61692
1.61688
1.61684
1.6168
1.61675
1.61671
1.61666
1.61661
1.61656
1.6165
1.61644
1.61638
1.61631
1.61625
1.61618
1.61611
1.61604
1.61597
1.6159
1.61583
1.61576
1.61569
1.61563
1.61557
1.61552
1.61547
1.61543
1.6154
1.61537
1.61535
1.61534
1.61534
1.61535
1.61537
1.61541
1.61546
1.61552
1.61559
1.61568
1.61578
1.6159
1.61603
1.61618
1.61634
1.61652
1.61671
1.61691
1.61713
1.61736
1.6176
1.61786
1.61812
1.6184
1.61868
1.61898
1.61927
1.61958
1.61988
1.62019
1.6205
1.62081
1.62111
1.62142
1.62171
1.62201
1.62229
1.62256
1.62283
1.62308
1.62332
1.62355
1.62376
1.62396
1.62414
1.6243
1.62445
1.62458
1.62469
1.62478
1.62485
1.62491
1.62494
1.62496
1.62496
1.62494
1.6249
1.62484
1.62476
1.62467
1.62456
1.62443
1.62428
1.62412
1.62394
1.62375
1.62354
1.62332
1.62308
1.62284
1.62258
1.62231
1.62203
1.62175
1.62145
1.62116
1.62085
1.62055
1.62024
1.61994
1.61964
1.61934
1.61905
1.61876
1.61848
1.61821
1.61795
1.6177
1.61747
1.61724
1.61703
1.61684
1.61665
1.61648
1.61633
1.61619
1.61606
1.61594
1.61584
1.61575
1.61567
1.6156
1.61554
1.61549
1.61545
1.61541
1.61539
1.61536
1.61535
1.61534
1.61533
1.61532
1.61532
1.61531
1.61531
1.61531
1.61531
1.61531
1.61531
1.61531
1.61531
1.61531
1.6153
1.6153
1.61529
1.61529
1.61528
1.61527
1.61526
1.61525
1.61523
1.61522
1.6152
1.61518
1.61517
1.61515
1.61514
1.61512
1.61511
1.61511
1.6151
1.61511
1.61512
1.61515
1.61518
1.61523
1.61528
1.61536
1.61545
1.61555
1.61567
1.61581
1.61597
1.61614
1.61634
1.61655
1.61677
1.61701
1.61727
1.61754
1.61782
1.61811
1.61841
1.61872
1.61902
1.61933
1.61963
1.61992
1.62021
1.62048
1.62074
1.62097
1.62119
1.62138
1.62155
1.62168
1.6218
1.62188
1.62194
1.62197
1.62197
1.62195
1.62191
1.62185
1.62178
1.6217
1.6216
1.6215
1.6214
1.6213
1.6212
1.6211
1.62101
1.62092
1.62084
1.62076
1.6207
1.62063
1.62057
1.62052
1.62046
1.62041
1.62036
1.62031
1.62025
1.62019
1.62013
1.62006
1.61999
1.61991
1.61982
1.61971
1.61961
1.61949
1.61936
1.61922
1.61908
1.61893
1.61877
1.61861
1.61845
1.61828
1.61812
1.61796
1.61781
1.61767
1.61755
1.61744
1.61734
1.61728
1.61723
1.61722
1.61724
1.61729
1.61739
1.61752
1.6177
1.61793
1.61822
1.61855
1.61895
1.61941
1.61993
1.62053
1.6212
1.62194
1.62276
1.62366
1.62464
1.62571
1.62686
1.6281
1.62942
1.63083
1.63232
1.63388
1.63553
1.63723
1.639
1.64082
1.64268
1.64456
1.64645
1.64832
1.65018
1.65198
1.65371
1.65535
1.65688
1.65828
1.65952
1.6606
1.66149
1.66218
1.66268
1.66297
1.66307
1.66299
1.66273
1.66233
1.66179
1.66114
1.66041
1.65963
1.65881
1.658
1.65721
1.65646
1.65577
1.65517
1.65465
1.65423
1.65392
1.65372
1.65362
1.65361
1.6537
1.65386
1.65409
1.65437
1.65468
1.65501
1.65534
1.65565
1.65592
1.65614
1.65627
1.65631
1.65622
1.656
1.65563
1.65509
1.65437
1.65347
1.65239
1.65113
1.64971
1.64814
1.64646
1.64469
1.64287
1.64103
1.63919
1.6374
1.63568
1.63404
1.6325
1.63108
1.62977
1.62858
1.6275
1.62652
1.62564
1.62485
1.62414
1.6235
1.62292
1.62239
1.62191
1.62148
1.62107
1.62071
1.62037
1.62006
1.61978
1.61952
1.61928
1.61907
1.61887
1.61869
1.61853
1.61838
1.61824
1.61812
1.618
1.61789
1.61779
1.6177
1.61761
1.61753
1.61746
1.61739
1.61733
1.61727
1.61722
1.61717
1.61712
1.61708
1.61704
1.617
1.61709
1.61704
1.61699
1.61694
1.61688
1.61683
1.61677
1.6167
1.61663
1.61656
1.61649
1.61641
1.61632
1.61624
1.61615
1.61606
1.61597
1.61589
1.6158
1.61571
1.61562
1.61554
1.61547
1.6154
1.61533
1.61527
1.61522
1.61518
1.61514
1.61512
1.6151
1.6151
1.6151
1.61512
1.61515
1.6152
1.61525
1.61532
1.61541
1.61551
1.61562
1.61574
1.61588
1.61604
1.61621
1.61639
1.61659
1.6168
1.61702
1.61726
1.61751
1.61777
1.61805
1.61833
1.61862
1.61892
1.61923
1.61954
1.61985
1.62017
1.62049
1.6208
1.62112
1.62143
1.62173
1.62203
1.62232
1.6226
1.62287
1.62313
1.62338
1.62361
1.62382
1.62403
1.62421
1.62438
1.62453
1.62466
1.62478
1.62487
1.62494
1.625
1.62504
1.62505
1.62505
1.62503
1.62499
1.62493
1.62485
1.62475
1.62464
1.6245
1.62435
1.62419
1.624
1.6238
1.62359
1.62336
1.62312
1.62286
1.6226
1.62232
1.62204
1.62175
1.62145
1.62115
1.62084
1.62054
1.62023
1.61993
1.61962
1.61933
1.61903
1.61875
1.61847
1.6182
1.61794
1.61769
1.61745
1.61722
1.61701
1.6168
1.61661
1.61644
1.61627
1.61612
1.61599
1.61586
1.61575
1.61566
1.61557
1.6155
1.61544
1.61539
1.61535
1.61532
1.6153
1.61528
1.61527
1.61527
1.61527
1.61528
1.61529
1.6153
1.61531
1.61533
1.61534
1.61536
1.61537
1.61539
1.6154
1.61541
1.61543
1.61543
1.61544
1.61545
1.61545
1.61545
1.61544
1.61544
1.61543
1.61542
1.61541
1.61539
1.61538
1.61536
1.61534
1.61533
1.61532
1.61531
1.61531
1.61531
1.61532
1.61534
1.61536
1.6154
1.61546
1.61552
1.6156
1.6157
1.61582
1.61595
1.6161
1.61626
1.61645
1.61665
1.61686
1.61709
1.61734
1.6176
1.61787
1.61815
1.61844
1.61873
1.61902
1.61932
1.61961
1.61989
1.62017
1.62043
1.62068
1.62092
1.62113
1.62132
1.62149
1.62163
1.62175
1.62184
1.6219
1.62194
1.62196
1.62196
1.62193
1.62189
1.62184
1.62177
1.62169
1.62161
1.62153
1.62144
1.62136
1.62128
1.6212
1.62112
1.62105
1.62099
1.62093
1.62088
1.62083
1.62078
1.62074
1.6207
1.62066
1.62062
1.62058
1.62053
1.62048
1.62043
1.62036
1.62029
1.62021
1.62012
1.62002
1.61992
1.6198
1.61967
1.61954
1.6194
1.61925
1.6191
1.61895
1.6188
1.61865
1.6185
1.61836
1.61823
1.61811
1.61801
1.61793
1.61786
1.61782
1.61781
1.61783
1.61789
1.61798
1.61812
1.6183
1.61852
1.6188
1.61914
1.61953
1.61999
1.62051
1.6211
1.62177
1.62251
1.62333
1.62423
1.62522
1.62628
1.62744
1.62867
1.62999
1.63139
1.63287
1.63443
1.63606
1.63775
1.6395
1.64129
1.64311
1.64495
1.6468
1.64864
1.65045
1.6522
1.65389
1.65549
1.65698
1.65833
1.65954
1.66058
1.66145
1.66212
1.66261
1.6629
1.663
1.66292
1.66268
1.66228
1.66177
1.66114
1.66044
1.65969
1.65891
1.65812
1.65735
1.65662
1.65596
1.65537
1.65487
1.65446
1.65416
1.65396
1.65385
1.65385
1.65393
1.65409
1.65431
1.65458
1.65488
1.65521
1.65553
1.65584
1.65611
1.65632
1.65646
1.6565
1.65643
1.65622
1.65587
1.65535
1.65466
1.6538
1.65275
1.65152
1.65013
1.6486
1.64695
1.64521
1.64341
1.64159
1.63978
1.63801
1.6363
1.63468
1.63316
1.63174
1.63044
1.62925
1.62817
1.62719
1.6263
1.6255
1.62477
1.62411
1.62351
1.62297
1.62246
1.622
1.62158
1.62119
1.62083
1.6205
1.6202
1.61992
1.61967
1.61944
1.61923
1.61903
1.61886
1.6187
1.61855
1.61841
1.61828
1.61816
1.61805
1.61795
1.61786
1.61777
1.61768
1.61761
1.61753
1.61747
1.6174
1.61735
1.61729
1.61724
1.61719
1.61714
1.61726
1.61719
1.61713
1.61706
1.61699
1.61692
1.61684
1.61676
1.61667
1.61658
1.61648
1.61638
1.61628
1.61617
1.61606
1.61595
1.61584
1.61573
1.61562
1.61552
1.61542
1.61532
1.61523
1.61515
1.61507
1.61501
1.61495
1.61491
1.61487
1.61485
1.61484
1.61484
1.61485
1.61488
1.61492
1.61497
1.61503
1.61511
1.61521
1.61531
1.61543
1.61557
1.61572
1.61588
1.61606
1.61625
1.61645
1.61667
1.61691
1.61715
1.61741
1.61768
1.61796
1.61825
1.61855
1.61886
1.61918
1.6195
1.61982
1.62015
1.62047
1.6208
1.62112
1.62144
1.62175
1.62206
1.62236
1.62264
1.62292
1.62319
1.62344
1.62368
1.6239
1.62411
1.6243
1.62447
1.62462
1.62476
1.62487
1.62497
1.62505
1.62511
1.62514
1.62516
1.62516
1.62514
1.62509
1.62503
1.62495
1.62485
1.62474
1.6246
1.62445
1.62428
1.6241
1.6239
1.62369
1.62346
1.62322
1.62296
1.6227
1.62243
1.62214
1.62185
1.62155
1.62125
1.62094
1.62063
1.62032
1.62001
1.6197
1.6194
1.6191
1.61881
1.61852
1.61824
1.61797
1.61771
1.61747
1.61723
1.617
1.61679
1.61659
1.6164
1.61623
1.61607
1.61592
1.61579
1.61567
1.61557
1.61548
1.6154
1.61534
1.61528
1.61524
1.61521
1.61519
1.61518
1.61518
1.61519
1.6152
1.61522
1.61524
1.61526
1.61529
1.61532
1.61535
1.61538
1.61541
1.61544
1.61547
1.6155
1.61552
1.61555
1.61556
1.61558
1.61559
1.6156
1.61561
1.61561
1.61561
1.6156
1.61559
1.61558
1.61557
1.61555
1.61554
1.61552
1.61551
1.6155
1.61549
1.61549
1.6155
1.61551
1.61553
1.61557
1.61561
1.61567
1.61575
1.61584
1.61594
1.61607
1.61621
1.61636
1.61654
1.61672
1.61693
1.61715
1.61738
1.61763
1.61789
1.61816
1.61843
1.61871
1.61899
1.61927
1.61955
1.61982
1.62009
1.62034
1.62059
1.62081
1.62102
1.62121
1.62138
1.62152
1.62165
1.62175
1.62182
1.62187
1.6219
1.62192
1.62191
1.62189
1.62185
1.6218
1.62175
1.62168
1.62162
1.62155
1.62148
1.62142
1.62135
1.62129
1.62124
1.62119
1.62114
1.6211
1.62106
1.62103
1.621
1.62097
1.62094
1.62092
1.62089
1.62086
1.62083
1.62078
1.62074
1.62068
1.62062
1.62054
1.62045
1.62036
1.62026
1.62014
1.62002
1.6199
1.61977
1.61963
1.61949
1.61935
1.61922
1.61908
1.61895
1.61883
1.61873
1.61863
1.61855
1.6185
1.61846
1.61845
1.61848
1.61853
1.61863
1.61876
1.61894
1.61916
1.61944
1.61977
1.62016
1.62062
1.62114
1.62173
1.62239
1.62313
1.62395
1.62485
1.62584
1.6269
1.62805
1.62928
1.6306
1.63199
1.63347
1.63501
1.63662
1.6383
1.64002
1.64178
1.64357
1.64538
1.64719
1.64898
1.65074
1.65245
1.65409
1.65564
1.65709
1.65841
1.65958
1.66059
1.66143
1.66209
1.66256
1.66284
1.66294
1.66287
1.66264
1.66227
1.66178
1.66118
1.66051
1.65978
1.65903
1.65827
1.65753
1.65682
1.65618
1.6556
1.65511
1.65472
1.65442
1.65422
1.65412
1.65411
1.65418
1.65433
1.65455
1.65481
1.65511
1.65542
1.65574
1.65604
1.65631
1.65652
1.65666
1.65671
1.65666
1.65647
1.65614
1.65565
1.65499
1.65416
1.65315
1.65196
1.65061
1.64911
1.64749
1.64578
1.64402
1.64222
1.64043
1.63868
1.63699
1.63539
1.63387
1.63247
1.63117
1.62998
1.6289
1.62791
1.62701
1.6262
1.62545
1.62477
1.62415
1.62358
1.62306
1.62257
1.62212
1.62171
1.62133
1.62098
1.62065
1.62036
1.62009
1.61984
1.61962
1.61941
1.61922
1.61905
1.61889
1.61874
1.6186
1.61847
1.61835
1.61824
1.61814
1.61804
1.61795
1.61786
1.61778
1.6177
1.61763
1.61756
1.6175
1.61744
1.61738
1.61732
1.61745
1.61738
1.6173
1.61721
1.61713
1.61703
1.61693
1.61683
1.61672
1.61661
1.61649
1.61636
1.61623
1.6161
1.61597
1.61583
1.6157
1.61557
1.61544
1.61532
1.6152
1.61509
1.61499
1.61489
1.61481
1.61474
1.61467
1.61463
1.61459
1.61457
1.61456
1.61456
1.61458
1.61461
1.61466
1.61472
1.61479
1.61488
1.61498
1.6151
1.61523
1.61537
1.61553
1.6157
1.61589
1.61609
1.6163
1.61653
1.61677
1.61702
1.61729
1.61757
1.61786
1.61816
1.61847
1.61878
1.61911
1.61944
1.61977
1.62011
1.62044
1.62078
1.62111
1.62143
1.62175
1.62207
1.62237
1.62267
1.62296
1.62323
1.62349
1.62373
1.62396
1.62417
1.62437
1.62455
1.62471
1.62484
1.62496
1.62507
1.62514
1.6252
1.62524
1.62526
1.62526
1.62524
1.62519
1.62513
1.62505
1.62495
1.62483
1.62469
1.62453
1.62436
1.62417
1.62396
1.62374
1.6235
1.62325
1.62299
1.62272
1.62244
1.62215
1.62185
1.62155
1.62124
1.62093
1.62062
1.62031
1.62
1.61969
1.61939
1.61909
1.6188
1.61851
1.61823
1.61796
1.6177
1.61745
1.61721
1.61698
1.61676
1.61656
1.61636
1.61618
1.61602
1.61586
1.61572
1.6156
1.61549
1.61539
1.61531
1.61525
1.61519
1.61515
1.61513
1.61511
1.61511
1.61512
1.61513
1.61516
1.61519
1.61522
1.61526
1.61531
1.61536
1.6154
1.61545
1.6155
1.61555
1.61559
1.61564
1.61567
1.61571
1.61574
1.61577
1.61579
1.61581
1.61582
1.61583
1.61583
1.61583
1.61583
1.61582
1.61581
1.61579
1.61578
1.61576
1.61575
1.61573
1.61572
1.61572
1.61572
1.61573
1.61574
1.61577
1.61581
1.61586
1.61593
1.61601
1.61611