# vtk DataFile Version 2.0
LBE two cylinders
ASCII
DATASET STRUCTURED_POINTS
DIMENSIONS 400 100 1
ASPECT_RATIO 1 1 1
ORIGIN 0 0 0
POINT_DATA 40000
SCALARS rho double 1
LOOKUP_TABLE default
1.09241
1.09243
1.09245
1.09247
1.09249
1.0925
1.09252
1.09254
1.09255
1.09256
1.09258
1.09259
1.0926
1.09261
1.09262
1.09263
1.09264
1.09265
1.09266
1.09267
1.09268
1.09268
1.09269
1.09269
1.0927
1.0927
1.09271
1.09271
1.09271
1.09271
1.09271
1.09271
1.09271
1.0927
1.0927
1.09269
1.09268
1.09268
1.09267
1.09266
1.09265
1.09264
1.09264
1.09263
1.09263
1.09262
1.09262
1.09263
1.09263
1.09264
1.09265
1.09267
1.09269
1.09271
1.09275
1.09278
1.09283
1.09288
1.09294
1.09301
1.09308
1.09317
1.09326
1.09337
1.09349
1.09361
1.09375
1.0939
1.09407
1.09424
1.09443
1.09463
1.09485
1.09508
1.09532
1.09558
1.09585
1.09613
1.09642
1.09673
1.09704
1.09737
1.0977
1.09804
1.09838
1.09872
1.09907
1.09941
1.09974
1.10007
1.10038
1.10068
1.10097
1.10123
1.10148
1.1017
1.10189
1.10206
1.1022
1.10232
1.10241
1.10248
1.10252
1.10254
1.10254
1.10253
1.1025
1.10245
1.1024
1.10233
1.10226
1.10218
1.1021
1.10202
1.10194
1.10185
1.10177
1.10168
1.1016
1.10152
1.10144
1.10136
1.10127
1.10119
1.1011
1.10101
1.10091
1.1008
1.10068
1.10054
1.10039
1.10022
1.10003
1.09981
1.09956
1.09928
1.09896
1.09861
1.09822
1.09779
1.09732
1.09681
1.09627
1.09569
1.09507
1.09443
1.09376
1.09308
1.09238
1.09168
1.09098
1.09029
1.08961
1.08895
1.08832
1.08773
1.08717
1.08665
1.08618
1.08575
1.08537
1.08504
1.08475
1.0845
1.08428
1.08409
1.08393
1.08379
1.08367
1.08355
1.08344
1.08333
1.08322
1.08311
1.08298
1.08286
1.08272
1.08257
1.08242
1.08226
1.08209
1.08192
1.08174
1.08156
1.08138
1.0812
1.08101
1.08082
1.08064
1.08045
1.08026
1.08007
1.07989
1.0797
1.07951
1.07932
1.07913
1.07894
1.07875
1.07857
1.07838
1.0782
1.07802
1.07784
1.07768
1.07752
1.07737
1.07723
1.0771
1.07699
1.07689
1.0768
1.07674
1.07668
1.07665
1.07663
1.07662
1.07663
1.07665
1.07669
1.07673
1.07679
1.07686
1.07693
1.07702
1.07711
1.0772
1.07729
1.07739
1.07749
1.07759
1.07769
1.07778
1.07788
1.07796
1.07804
1.07811
1.07818
1.07824
1.07828
1.07832
1.07835
1.07836
1.07837
1.07836
1.07835
1.07833
1.07829
1.07825
1.07821
1.07816
1.0781
1.07804
1.07797
1.07791
1.07784
1.07777
1.0777
1.07763
1.07757
1.0775
1.07744
1.07737
1.07731
1.07725
1.0772
1.07714
1.07708
1.07702
1.07697
1.07691
1.07685
1.07679
1.07672
1.07665
1.07658
1.0765
1.07642
1.07633
1.07624
1.07614
1.07603
1.07591
1.07578
1.07564
1.0755
1.07534
1.07518
1.075
1.07482
1.07462
1.07442
1.0742
1.07398
1.07374
1.0735
1.07324
1.07298
1.07272
1.07244
1.07216
1.07187
1.07157
1.07127
1.07097
1.07066
1.07036
1.07005
1.06974
1.06943
1.06912
1.06881
1.0685
1.0682
1.0679
1.06761
1.06732
1.06703
1.06674
1.06646
1.06618
1.06591
1.06564
1.06537
1.0651
1.06484
1.06458
1.06432
1.06406
1.0638
1.06354
1.06329
1.06304
1.0628
1.06255
1.06232
1.06208
1.06186
1.06164
1.06142
1.06122
1.06102
1.06084
1.06066
1.06049
1.06034
1.06019
1.06006
1.05993
1.05982
1.05972
1.05963
1.05956
1.05949
1.05944
1.05939
1.05936
1.05934
1.05933
1.05933
1.05934
1.05936
1.05939
1.05943
1.05948
1.05954
1.0596
1.05968
1.05976
1.05984
1.05993
1.06003
1.06013
1.06024
1.06035
1.06047
1.06058
1.0607
1.06082
1.06094
1.06106
1.06119
1.06131
1.06143
1.06155
1.06167
1.06179
1.0619
1.06202
1.06213
1.06223
1.06234
1.06243
1.06253
1.06262
1.06271
1.06279
1.06287
1.06295
1.06302
1.09238
1.0924
1.09242
1.09244
1.09245
1.09247
1.09249
1.0925
1.09252
1.09253
1.09255
1.09256
1.09257
1.09258
1.09259
1.0926
1.09261
1.09262
1.09263
1.09264
1.09265
1.09266
1.09266
1.09267
1.09268
1.09268
1.09268
1.09269
1.09269
1.09269
1.09269
1.09269
1.09268
1.09268
1.09268
1.09267
1.09267
1.09266
1.09265
1.09265
1.09264
1.09263
1.09263
1.09262
1.09262
1.09262
1.09262
1.09262
1.09263
1.09264
1.09265
1.09267
1.09269
1.09272
1.09275
1.09279
1.09284
1.09289
1.09295
1.09302
1.0931
1.09318
1.09328
1.09338
1.0935
1.09363
1.09376
1.09391
1.09408
1.09425
1.09444
1.09464
1.09485
1.09508
1.09532
1.09557
1.09584
1.09611
1.0964
1.0967
1.09701
1.09733
1.09766
1.09799
1.09832
1.09866
1.099
1.09933
1.09966
1.09998
1.10029
1.10058
1.10086
1.10112
1.10136
1.10158
1.10177
1.10194
1.10208
1.1022
1.1023
1.10236
1.10241
1.10244
1.10244
1.10243
1.1024
1.10236
1.10231
1.10225
1.10219
1.10211
1.10204
1.10196
1.10188
1.1018
1.10172
1.10164
1.10155
1.10147
1.10139
1.10131
1.10123
1.10115
1.10106
1.10096
1.10086
1.10075
1.10063
1.1005
1.10034
1.10017
1.09997
1.09975
1.0995
1.09922
1.0989
1.09855
1.09815
1.09772
1.09725
1.09674
1.0962
1.09562
1.09501
1.09437
1.09371
1.09303
1.09233
1.09164
1.09094
1.09025
1.08958
1.08893
1.08831
1.08772
1.08716
1.08665
1.08619
1.08576
1.08539
1.08505
1.08476
1.08451
1.0843
1.08411
1.08395
1.0838
1.08368
1.08356
1.08344
1.08333
1.08322
1.0831
1.08297
1.08284
1.0827
1.08256
1.0824
1.08224
1.08207
1.0819
1.08172
1.08154
1.08136
1.08118
1.08099
1.0808
1.08061
1.08043
1.08024
1.08005
1.07986
1.07967
1.07948
1.07929
1.0791
1.07891
1.07872
1.07854
1.07835
1.07817
1.07799
1.07782
1.07765
1.07749
1.07734
1.0772
1.07708
1.07697
1.07687
1.07678
1.07672
1.07666
1.07663
1.0766
1.0766
1.07661
1.07663
1.07666
1.07671
1.07676
1.07683
1.0769
1.07698
1.07707
1.07716
1.07726
1.07735
1.07745
1.07755
1.07764
1.07773
1.07782
1.07791
1.07798
1.07805
1.07812
1.07817
1.07821
1.07825
1.07827
1.07828
1.07829
1.07828
1.07827
1.07824
1.07821
1.07816
1.07812
1.07806
1.078
1.07794
1.07787
1.07781
1.07774
1.07767
1.0776
1.07753
1.07746
1.0774
1.07733
1.07727
1.0772
1.07714
1.07708
1.07702
1.07697
1.07691
1.07685
1.07679
1.07673
1.07666
1.0766
1.07653
1.07646
1.07638
1.07629
1.07621
1.07611
1.07601
1.0759
1.07578
1.07565
1.07552
1.07537
1.07522
1.07506
1.07488
1.0747
1.07451
1.07431
1.07409
1.07387
1.07364
1.0734
1.07316
1.0729
1.07264
1.07237
1.07209
1.07181
1.07152
1.07123
1.07093
1.07064
1.07034
1.07003
1.06973
1.06943
1.06913
1.06883
1.06853
1.06824
1.06795
1.06766
1.06737
1.06709
1.06682
1.06654
1.06627
1.066
1.06573
1.06547
1.06521
1.06495
1.06469
1.06443
1.06417
1.06392
1.06366
1.06341
1.06317
1.06292
1.06268
1.06244
1.06221
1.06198
1.06176
1.06155
1.06134
1.06114
1.06095
1.06077
1.06061
1.06045
1.0603
1.06016
1.06004
1.05992
1.05982
1.05973
1.05965
1.05958
1.05952
1.05948
1.05944
1.05942
1.0594
1.0594
1.05941
1.05943
1.05945
1.05949
1.05953
1.05959
1.05965
1.05972
1.0598
1.05988
1.05997
1.06006
1.06016
1.06027
1.06038
1.06049
1.0606
1.06072
1.06084
1.06096
1.06108
1.0612
1.06132
1.06144
1.06156
1.06168
1.06179
1.06191
1.06202
1.06213
1.06223
1.06233
1.06243
1.06253
1.06262
1.06271
1.06279
1.06287
1.06295
1.06302
1.09231
1.09233
1.09235
1.09237
1.09239
1.09241
1.09243
1.09244
1.09246
1.09247
1.09249
1.0925
1.09251
1.09252
1.09253
1.09254
1.09255
1.09256
1.09257
1.09258
1.09259
1.0926
1.09261
1.09261
1.09262
1.09262
1.09263
1.09263
1.09263
1.09263
1.09263
1.09263
1.09263
1.09263
1.09262
1.09262
1.09262
1.09261
1.09261
1.0926
1.0926
1.09259
1.09259
1.09258
1.09258
1.09258
1.09259
1.09259
1.0926
1.09261
1.09263
1.09265
1.09267
1.0927
1.09274
1.09278
1.09283
1.09288
1.09294
1.09301
1.09309
1.09318
1.09327
1.09338
1.0935
1.09362
1.09376
1.09391
1.09407
1.09425
1.09443
1.09463
1.09484
1.09507
1.0953
1.09555
1.09581
1.09609
1.09637
1.09667
1.09697
1.09729
1.09761
1.09793
1.09826
1.09859
1.09892
1.09925
1.09958
1.09989
1.10019
1.10049
1.10076
1.10102
1.10126
1.10147
1.10166
1.10183
1.10197
1.10209
1.10219
1.10226
1.10231
1.10233
1.10234
1.10234
1.10231
1.10228
1.10223
1.10217
1.10211
1.10204
1.10197
1.10189
1.10181
1.10173
1.10165
1.10157
1.1015
1.10142
1.10134
1.10126
1.10117
1.10109
1.101
1.10091
1.10081
1.1007
1.10057
1.10044
1.10028
1.10011
1.09991
1.09969
1.09943
1.09915
1.09883
1.09847
1.09808
1.09765
1.09717
1.09667
1.09612
1.09554
1.09493
1.09429
1.09363
1.09295
1.09226
1.09157
1.09088
1.09019
1.08953
1.08888
1.08826
1.08768
1.08713
1.08662
1.08616
1.08574
1.08537
1.08504
1.08475
1.0845
1.08429
1.0841
1.08394
1.08379
1.08366
1.08354
1.08342
1.08331
1.08319
1.08307
1.08295
1.08281
1.08267
1.08252
1.08237
1.0822
1.08203
1.08186
1.08168
1.0815
1.08132
1.08113
1.08094
1.08076
1.08057
1.08038
1.08019
1.08
1.07981
1.07962
1.07943
1.07924
1.07905
1.07886
1.07867
1.07848
1.07829
1.07811
1.07793
1.07776
1.07759
1.07743
1.07728
1.07714
1.07702
1.07691
1.07681
1.07673
1.07666
1.0766
1.07657
1.07654
1.07654
1.07654
1.07656
1.0766
1.07664
1.07669
1.07676
1.07683
1.07691
1.07699
1.07708
1.07717
1.07726
1.07736
1.07745
1.07754
1.07763
1.07772
1.07779
1.07787
1.07793
1.07799
1.07804
1.07808
1.07811
1.07813
1.07814
1.07814
1.07813
1.07811
1.07808
1.07804
1.07799
1.07794
1.07789
1.07782
1.07776
1.07769
1.07762
1.07755
1.07747
1.0774
1.07733
1.07726
1.07719
1.07712
1.07706
1.07699
1.07693
1.07686
1.0768
1.07674
1.07668
1.07662
1.07656
1.07649
1.07643
1.07636
1.07629
1.07621
1.07613
1.07605
1.07596
1.07586
1.07576
1.07565
1.07553
1.07541
1.07528
1.07513
1.07498
1.07482
1.07465
1.07448
1.07429
1.07409
1.07389
1.07368
1.07345
1.07322
1.07298
1.07274
1.07249
1.07223
1.07196
1.07169
1.07142
1.07114
1.07086
1.07058
1.07029
1.07
1.06972
1.06943
1.06914
1.06886
1.06858
1.0683
1.06802
1.06775
1.06748
1.06721
1.06694
1.06668
1.06642
1.06616
1.0659
1.06565
1.0654
1.06514
1.06489
1.06464
1.06439
1.06414
1.06389
1.06364
1.06339
1.06315
1.06291
1.06267
1.06244
1.06221
1.06199
1.06177
1.06157
1.06137
1.06117
1.06099
1.06082
1.06066
1.0605
1.06036
1.06023
1.06011
1.06
1.05991
1.05982
1.05975
1.05968
1.05963
1.05959
1.05956
1.05954
1.05953
1.05953
1.05954
1.05957
1.0596
1.05964
1.05968
1.05974
1.0598
1.05988
1.05995
1.06004
1.06013
1.06022
1.06032
1.06043
1.06053
1.06064
1.06075
1.06087
1.06099
1.0611
1.06122
1.06134
1.06146
1.06158
1.06169
1.06181
1.06192
1.06203
1.06214
1.06224
1.06234
1.06244
1.06253
1.06262
1.06271
1.06279
1.06287
1.06295
1.06302
1.09221
1.09223
1.09225
1.09227
1.09229
1.09231
1.09233
1.09235
1.09236
1.09238
1.09239
1.09241
1.09242
1.09243
1.09244
1.09245
1.09246
1.09247
1.09248
1.09249
1.0925
1.09251
1.09252
1.09252
1.09253
1.09253
1.09254
1.09254
1.09254
1.09254
1.09254
1.09254
1.09254
1.09254
1.09254
1.09253
1.09253
1.09253
1.09252
1.09252
1.09252
1.09252
1.09251
1.09251
1.09252
1.09252
1.09253
1.09253
1.09255
1.09256
1.09258
1.0926
1.09263
1.09266
1.0927
1.09274
1.09279
1.09285
1.09291
1.09299
1.09307
1.09315
1.09325
1.09336
1.09348
1.0936
1.09374
1.09389
1.09405
1.09422
1.09441
1.0946
1.09481
1.09504
1.09527
1.09552
1.09577
1.09604
1.09632
1.09661
1.09692
1.09722
1.09754
1.09786
1.09819
1.09851
1.09884
1.09916
1.09948
1.09979
1.10009
1.10038
1.10066
1.10091
1.10115
1.10136
1.10155
1.10172
1.10187
1.10199
1.10208
1.10215
1.1022
1.10223
1.10224
1.10223
1.10221
1.10218
1.10213
1.10208
1.10202
1.10195
1.10188
1.10181
1.10173
1.10165
1.10157
1.1015
1.10142
1.10134
1.10126
1.10118
1.1011
1.10102
1.10093
1.10083
1.10073
1.10062
1.1005
1.10036
1.10021
1.10003
1.09983
1.0996
1.09935
1.09906
1.09874
1.09838
1.09799
1.09756
1.09708
1.09657
1.09603
1.09545
1.09484
1.0942
1.09354
1.09286
1.09217
1.09148
1.09079
1.09011
1.08945
1.08881
1.08819
1.08761
1.08707
1.08657
1.08611
1.0857
1.08533
1.085
1.08471
1.08446
1.08425
1.08406
1.0839
1.08375
1.08362
1.0835
1.08338
1.08326
1.08315
1.08302
1.08289
1.08276
1.08261
1.08246
1.08231
1.08214
1.08197
1.0818
1.08162
1.08143
1.08125
1.08106
1.08087
1.08068
1.08049
1.0803
1.08011
1.07992
1.07973
1.07954
1.07935
1.07915
1.07896
1.07877
1.07858
1.07839
1.0782
1.07802
1.07784
1.07766
1.0775
1.07734
1.07719
1.07705
1.07693
1.07681
1.07671
1.07663
1.07656
1.07651
1.07647
1.07645
1.07644
1.07644
1.07646
1.07649
1.07653
1.07658
1.07664
1.07671
1.07679
1.07687
1.07695
1.07704
1.07713
1.07722
1.0773
1.07739
1.07747
1.07755
1.07763
1.07769
1.07775
1.0778
1.07785
1.07788
1.0779
1.07792
1.07792
1.07792
1.0779
1.07787
1.07784
1.0778
1.07775
1.07769
1.07763
1.07756
1.07749
1.07742
1.07734
1.07727
1.07719
1.07712
1.07704
1.07697
1.07689
1.07682
1.07675
1.07668
1.07661
1.07654
1.07648
1.07641
1.07635
1.07628
1.07622
1.07615
1.07608
1.07601
1.07594
1.07586
1.07578
1.07569
1.0756
1.07551
1.07541
1.0753
1.07518
1.07506
1.07493
1.07479
1.07465
1.07449
1.07433
1.07416
1.07398
1.07379
1.0736
1.07339
1.07318
1.07297
1.07274
1.07251
1.07227
1.07203
1.07178
1.07153
1.07127
1.07101
1.07075
1.07048
1.07022
1.06995
1.06969
1.06942
1.06915
1.06889
1.06863
1.06837
1.06811
1.06786
1.06761
1.06736
1.06711
1.06687
1.06662
1.06638
1.06614
1.0659
1.06566
1.06541
1.06517
1.06493
1.06469
1.06445
1.0642
1.06396
1.06372
1.06348
1.06324
1.06301
1.06277
1.06255
1.06232
1.0621
1.06189
1.06169
1.06149
1.06131
1.06113
1.06096
1.0608
1.06065
1.06051
1.06039
1.06027
1.06017
1.06007
1.05999
1.05992
1.05986
1.05981
1.05977
1.05974
1.05972
1.05972
1.05972
1.05973
1.05975
1.05979
1.05983
1.05987
1.05993
1.05999
1.06007
1.06014
1.06022
1.06031
1.06041
1.0605
1.0606
1.06071
1.06082
1.06093
1.06104
1.06115
1.06126
1.06138
1.06149
1.06161
1.06172
1.06183
1.06194
1.06205
1.06215
1.06226
1.06235
1.06245
1.06254
1.06263
1.06272
1.0628
1.06288
1.06296
1.06303
1.09207
1.09209
1.09212
1.09214
1.09216
1.09218
1.0922
1.09222
1.09224
1.09225
1.09227
1.09228
1.09229
1.09231
1.09232
1.09233
1.09234
1.09235
1.09236
1.09237
1.09238
1.09238
1.09239
1.0924
1.0924
1.09241
1.09241
1.09241
1.09242
1.09242
1.09242
1.09242
1.09242
1.09242
1.09242
1.09242
1.09241
1.09241
1.09241
1.09241
1.09241
1.09241
1.09241
1.09241
1.09242
1.09242
1.09243
1.09244
1.09246
1.09248
1.0925
1.09253
1.09256
1.09259
1.09263
1.09268
1.09273
1.09279
1.09286
1.09294
1.09302
1.09311
1.09321
1.09332
1.09343
1.09356
1.0937
1.09385
1.09401
1.09418
1.09437
1.09456
1.09477
1.09499
1.09522
1.09546
1.09572
1.09598
1.09626
1.09654
1.09684
1.09714
1.09745
1.09777
1.09809
1.09841
1.09874
1.09906
1.09937
1.09968
1.09998
1.10027
1.10054
1.1008
1.10103
1.10125
1.10144
1.10161
1.10175
1.10187
1.10197
1.10204
1.10209
1.10212
1.10213
1.10213
1.1021
1.10207
1.10203
1.10197
1.10191
1.10185
1.10178
1.10171
1.10163
1.10156
1.10148
1.1014
1.10133
1.10125
1.10117
1.10109
1.10101
1.10093
1.10084
1.10074
1.10064
1.10053
1.10041
1.10027
1.10011
1.09994
1.09973
1.09951
1.09925
1.09896
1.09864
1.09828
1.09788
1.09745
1.09698
1.09646
1.09592
1.09534
1.09472
1.09409
1.09343
1.09275
1.09206
1.09138
1.09069
1.09001
1.08935
1.08871
1.0881
1.08752
1.08698
1.08649
1.08603
1.08562
1.08525
1.08493
1.08465
1.0844
1.08418
1.084
1.08383
1.08369
1.08356
1.08343
1.08331
1.08319
1.08307
1.08295
1.08282
1.08268
1.08253
1.08238
1.08222
1.08206
1.08188
1.08171
1.08153
1.08134
1.08116
1.08097
1.08078
1.08059
1.08039
1.0802
1.08001
1.07981
1.07962
1.07943
1.07923
1.07904
1.07884
1.07865
1.07846
1.07826
1.07807
1.07789
1.07771
1.07753
1.07737
1.07721
1.07706
1.07692
1.07679
1.07668
1.07658
1.0765
1.07643
1.07637
1.07633
1.07631
1.0763
1.0763
1.07632
1.07634
1.07638
1.07643
1.07648
1.07655
1.07662
1.07669
1.07677
1.07685
1.07694
1.07702
1.0771
1.07718
1.07726
1.07733
1.0774
1.07746
1.07751
1.07756
1.07759
1.07762
1.07763
1.07764
1.07764
1.07762
1.0776
1.07757
1.07753
1.07748
1.07742
1.07736
1.07729
1.07722
1.07714
1.07707
1.07699
1.07691
1.07682
1.07674
1.07666
1.07658
1.07651
1.07643
1.07635
1.07628
1.07621
1.07613
1.07606
1.07599
1.07592
1.07585
1.07578
1.07571
1.07564
1.07557
1.07549
1.07541
1.07533
1.07525
1.07515
1.07506
1.07496
1.07485
1.07474
1.07462
1.0745
1.07436
1.07422
1.07408
1.07392
1.07376
1.07359
1.07341
1.07323
1.07304
1.07285
1.07264
1.07243
1.07222
1.072
1.07178
1.07155
1.07132
1.07108
1.07085
1.07061
1.07037
1.07012
1.06988
1.06964
1.0694
1.06916
1.06892
1.06869
1.06845
1.06822
1.06799
1.06776
1.06754
1.06731
1.06709
1.06687
1.06664
1.06642
1.0662
1.06597
1.06575
1.06552
1.06529
1.06506
1.06483
1.0646
1.06436
1.06413
1.06389
1.06366
1.06343
1.0632
1.06297
1.06274
1.06252
1.06231
1.0621
1.0619
1.06171
1.06152
1.06135
1.06118
1.06103
1.06088
1.06074
1.06062
1.0605
1.0604
1.06031
1.06023
1.06015
1.06009
1.06004
1.06001
1.05998
1.05996
1.05995
1.05996
1.05997
1.05999
1.06002
1.06006
1.0601
1.06016
1.06022
1.06028
1.06036
1.06044
1.06052
1.06061
1.0607
1.0608
1.0609
1.061
1.06111
1.06122
1.06132
1.06143
1.06154
1.06165
1.06176
1.06187
1.06197
1.06208
1.06218
1.06228
1.06238
1.06247
1.06256
1.06265
1.06273
1.06282
1.06289
1.06297
1.06304
1.09189
1.09192
1.09194
1.09197
1.09199
1.09201
1.09204
1.09205
1.09207
1.09209
1.09211
1.09212
1.09213
1.09215
1.09216
1.09217
1.09218
1.09219
1.0922
1.09221
1.09222
1.09223
1.09223
1.09224
1.09224
1.09225
1.09225
1.09226
1.09226
1.09226
1.09226
1.09226
1.09226
1.09226
1.09226
1.09226
1.09226
1.09226
1.09226
1.09226
1.09227
1.09227
1.09227
1.09228
1.09229
1.0923
1.09231
1.09233
1.09235
1.09237
1.09239
1.09242
1.09246
1.0925
1.09254
1.09259
1.09265
1.09271
1.09278
1.09286
1.09295
1.09304
1.09314
1.09325
1.09337
1.0935
1.09364
1.09379
1.09395
1.09412
1.0943
1.09449
1.0947
1.09491
1.09514
1.09538
1.09563
1.09589
1.09616
1.09645
1.09674
1.09703
1.09734
1.09765
1.09797
1.09829
1.09861
1.09892
1.09924
1.09955
1.09984
1.10013
1.1004
1.10066
1.1009
1.10111
1.10131
1.10148
1.10162
1.10174
1.10184
1.10191
1.10197
1.102
1.10201
1.102
1.10198
1.10195
1.1019
1.10185
1.10179
1.10173
1.10166
1.10159
1.10152
1.10144
1.10137
1.10129
1.10122
1.10114
1.10106
1.10098
1.1009
1.10082
1.10073
1.10064
1.10053
1.10042
1.1003
1.10016
1.1
1.09982
1.09962
1.09939
1.09913
1.09884
1.09852
1.09816
1.09776
1.09732
1.09685
1.09634
1.09579
1.0952
1.09459
1.09395
1.09329
1.09262
1.09193
1.09125
1.09056
1.08989
1.08923
1.08859
1.08798
1.08741
1.08687
1.08638
1.08593
1.08552
1.08516
1.08483
1.08455
1.08431
1.08409
1.08391
1.08374
1.0836
1.08346
1.08334
1.08322
1.08309
1.08297
1.08284
1.08271
1.08257
1.08242
1.08227
1.08211
1.08194
1.08177
1.08159
1.08141
1.08122
1.08103
1.08084
1.08065
1.08046
1.08026
1.08007
1.07987
1.07968
1.07948
1.07928
1.07909
1.07889
1.07869
1.07849
1.0783
1.0781
1.07791
1.07773
1.07754
1.07737
1.0772
1.07704
1.07689
1.07675
1.07663
1.07651
1.07641
1.07633
1.07626
1.0762
1.07616
1.07613
1.07612
1.07612
1.07613
1.07615
1.07618
1.07623
1.07628
1.07634
1.0764
1.07647
1.07654
1.07662
1.0767
1.07677
1.07685
1.07692
1.07699
1.07705
1.07711
1.07717
1.07721
1.07725
1.07727
1.07729
1.0773
1.0773
1.07729
1.07726
1.07723
1.07719
1.07714
1.07709
1.07702
1.07696
1.07688
1.0768
1.07672
1.07664
1.07655
1.07647
1.07638
1.07629
1.07621
1.07612
1.07604
1.07596
1.07588
1.0758
1.07572
1.07564
1.07557
1.07549
1.07542
1.07535
1.07527
1.0752
1.07512
1.07505
1.07497
1.07489
1.0748
1.07472
1.07463
1.07453
1.07444
1.07433
1.07422
1.07411
1.07399
1.07386
1.07373
1.07359
1.07345
1.0733
1.07314
1.07298
1.07281
1.07264
1.07246
1.07227
1.07208
1.07189
1.07169
1.07149
1.07128
1.07107
1.07086
1.07065
1.07044
1.07022
1.07001
1.0698
1.06958
1.06937
1.06916
1.06895
1.06874
1.06854
1.06833
1.06813
1.06793
1.06773
1.06753
1.06734
1.06714
1.06694
1.06674
1.06654
1.06633
1.06613
1.06592
1.0657
1.06549
1.06527
1.06505
1.06483
1.0646
1.06437
1.06415
1.06392
1.06369
1.06347
1.06324
1.06302
1.06281
1.0626
1.06239
1.06219
1.062
1.06182
1.06165
1.06148
1.06133
1.06118
1.06104
1.06092
1.0608
1.0607
1.06061
1.06052
1.06045
1.06039
1.06034
1.0603
1.06027
1.06025
1.06024
1.06023
1.06024
1.06026
1.06029
1.06032
1.06036
1.06041
1.06047
1.06053
1.0606
1.06067
1.06075
1.06083
1.06092
1.06101
1.06111
1.0612
1.0613
1.0614
1.06151
1.06161
1.06171
1.06182
1.06192
1.06202
1.06212
1.06222
1.06231
1.06241
1.0625
1.06259
1.06267
1.06276
1.06283
1.06291
1.06299
1.06306
1.09167
1.0917
1.09173
1.09176
1.09178
1.09181
1.09183
1.09185
1.09187
1.09189
1.09191
1.09192
1.09194
1.09195
1.09197
1.09198
1.09199
1.092
1.09201
1.09202
1.09203
1.09203
1.09204
1.09205
1.09205
1.09206
1.09206
1.09206
1.09207
1.09207
1.09207
1.09207
1.09207
1.09208
1.09208
1.09208
1.09208
1.09208
1.09209
1.09209
1.09209
1.0921
1.09211
1.09212
1.09213
1.09214
1.09216
1.09218
1.0922
1.09223
1.09226
1.09229
1.09233
1.09238
1.09242
1.09248
1.09254
1.09261
1.09268
1.09276
1.09285
1.09294
1.09305
1.09316
1.09328
1.09341
1.09355
1.0937
1.09386
1.09403
1.09421
1.0944
1.0946
1.09482
1.09504
1.09528
1.09552
1.09578
1.09605
1.09632
1.09661
1.0969
1.0972
1.09751
1.09782
1.09813
1.09845
1.09877
1.09908
1.09938
1.09968
1.09997
1.10024
1.1005
1.10074
1.10096
1.10116
1.10133
1.10148
1.1016
1.1017
1.10177
1.10182
1.10185
1.10187
1.10186
1.10184
1.10181
1.10176
1.10171
1.10165
1.10159
1.10152
1.10145
1.10138
1.10131
1.10123
1.10116
1.10109
1.10101
1.10093
1.10086
1.10078
1.10069
1.1006
1.10051
1.10041
1.10029
1.10017
1.10003
1.09987
1.09969
1.09949
1.09926
1.099
1.0987
1.09838
1.09802
1.09762
1.09718
1.0967
1.09618
1.09563
1.09505
1.09444
1.0938
1.09314
1.09246
1.09178
1.09109
1.09041
1.08973
1.08908
1.08844
1.08784
1.08727
1.08674
1.08624
1.0858
1.08539
1.08503
1.08471
1.08443
1.08418
1.08397
1.08379
1.08362
1.08347
1.08334
1.08321
1.08309
1.08297
1.08284
1.08271
1.08258
1.08243
1.08229
1.08213
1.08197
1.0818
1.08162
1.08144
1.08126
1.08107
1.08088
1.08069
1.08049
1.0803
1.0801
1.0799
1.0797
1.0795
1.0793
1.0791
1.0789
1.0787
1.0785
1.0783
1.0781
1.07791
1.07771
1.07752
1.07734
1.07716
1.07699
1.07683
1.07668
1.07654
1.07641
1.0763
1.0762
1.07611
1.07604
1.07598
1.07594
1.07591
1.07589
1.07589
1.07589
1.07591
1.07594
1.07598
1.07603
1.07608
1.07614
1.0762
1.07627
1.07633
1.0764
1.07647
1.07654
1.0766
1.07666
1.07672
1.07677
1.07681
1.07685
1.07688
1.07689
1.0769
1.0769
1.07689
1.07687
1.07684
1.0768
1.07675
1.07669
1.07663
1.07656
1.07648
1.0764
1.07632
1.07623
1.07614
1.07605
1.07596
1.07587
1.07578
1.07569
1.0756
1.07551
1.07542
1.07533
1.07525
1.07517
1.07509
1.07501
1.07493
1.07485
1.07477
1.07469
1.07462
1.07454
1.07446
1.07438
1.0743
1.07422
1.07413
1.07404
1.07395
1.07386
1.07376
1.07365
1.07354
1.07343
1.07331
1.07319
1.07306
1.07293
1.07279
1.07265
1.0725
1.07235
1.07219
1.07203
1.07186
1.07169
1.07152
1.07135
1.07117
1.07099
1.0708
1.07062
1.07044
1.07025
1.07006
1.06988
1.0697
1.06951
1.06933
1.06915
1.06897
1.06879
1.06862
1.06845
1.06827
1.0681
1.06793
1.06776
1.06759
1.06742
1.06725
1.06707
1.0669
1.06671
1.06653
1.06634
1.06615
1.06595
1.06575
1.06555
1.06534
1.06512
1.06491
1.06469
1.06447
1.06425
1.06403
1.06381
1.06359
1.06337
1.06316
1.06295
1.06275
1.06255
1.06237
1.06218
1.06201
1.06185
1.06169
1.06154
1.06141
1.06128
1.06117
1.06106
1.06096
1.06088
1.0608
1.06074
1.06068
1.06064
1.0606
1.06057
1.06056
1.06055
1.06056
1.06057
1.06059
1.06061
1.06065
1.06069
1.06074
1.0608
1.06086
1.06092
1.061
1.06107
1.06115
1.06124
1.06133
1.06142
1.06151
1.0616
1.0617
1.06179
1.06189
1.06199
1.06208
1.06218
1.06227
1.06236
1.06245
1.06254
1.06262
1.0627
1.06278
1.06286
1.06294
1.06301
1.06308
1.09141
1.09144
1.09148
1.09151
1.09153
1.09156
1.09159
1.09161
1.09163
1.09165
1.09167
1.09169
1.0917
1.09172
1.09173
1.09175
1.09176
1.09177
1.09178
1.09179
1.0918
1.0918
1.09181
1.09182
1.09182
1.09183
1.09183
1.09184
1.09184
1.09185
1.09185
1.09185
1.09185
1.09186
1.09186
1.09186
1.09187
1.09187
1.09188
1.09188
1.09189
1.0919
1.09191
1.09193
1.09194
1.09196
1.09198
1.092
1.09203
1.09206
1.09209
1.09213
1.09218
1.09222
1.09228
1.09233
1.0924
1.09247
1.09255
1.09263
1.09272
1.09282
1.09292
1.09304
1.09316
1.09329
1.09343
1.09358
1.09374
1.09391
1.09409
1.09428
1.09448
1.09469
1.09491
1.09514
1.09538
1.09563
1.0959
1.09617
1.09645
1.09673
1.09703
1.09733
1.09764
1.09795
1.09826
1.09857
1.09888
1.09919
1.09949
1.09978
1.10005
1.10031
1.10056
1.10078
1.10098
1.10116
1.10131
1.10143
1.10153
1.10161
1.10166
1.10169
1.10171
1.1017
1.10168
1.10165
1.1016
1.10155
1.10149
1.10143
1.10137
1.1013
1.10123
1.10115
1.10108
1.10101
1.10093
1.10086
1.10078
1.10071
1.10063
1.10054
1.10046
1.10036
1.10026
1.10014
1.10002
1.09987
1.09971
1.09953
1.09933
1.0991
1.09884
1.09854
1.09821
1.09785
1.09745
1.09701
1.09653
1.09601
1.09546
1.09487
1.09426
1.09362
1.09296
1.09228
1.0916
1.09091
1.09023
1.08956
1.0889
1.08827
1.08767
1.0871
1.08657
1.08608
1.08564
1.08523
1.08487
1.08456
1.08428
1.08403
1.08382
1.08363
1.08347
1.08332
1.08318
1.08306
1.08293
1.08281
1.08268
1.08255
1.08241
1.08227
1.08212
1.08196
1.08179
1.08162
1.08144
1.08126
1.08108
1.08089
1.08069
1.0805
1.0803
1.0801
1.0799
1.0797
1.0795
1.0793
1.07909
1.07889
1.07868
1.07848
1.07827
1.07807
1.07787
1.07767
1.07747
1.07728
1.0771
1.07692
1.07674
1.07658
1.07643
1.07629
1.07616
1.07605
1.07594
1.07585
1.07578
1.07572
1.07567
1.07564
1.07562
1.07561
1.07561
1.07563
1.07565
1.07568
1.07572
1.07577
1.07582
1.07588
1.07593
1.076
1.07606
1.07612
1.07617
1.07623
1.07628
1.07633
1.07637
1.0764
1.07643
1.07644
1.07645
1.07645
1.07644
1.07642
1.07639
1.07635
1.0763
1.07624
1.07618
1.07611
1.07603
1.07595
1.07586
1.07577
1.07568
1.07559
1.07549
1.07539
1.0753
1.0752
1.0751
1.07501
1.07492
1.07483
1.07474
1.07465
1.07456
1.07447
1.07439
1.07431
1.07423
1.07415
1.07407
1.07399
1.07391
1.07383
1.07375
1.07367
1.07359
1.0735
1.07342
1.07333
1.07324
1.07314
1.07305
1.07295
1.07284
1.07273
1.07262
1.0725
1.07238
1.07226
1.07213
1.072
1.07186
1.07172
1.07158
1.07143
1.07129
1.07114
1.07098
1.07083
1.07067
1.07052
1.07036
1.0702
1.07005
1.06989
1.06973
1.06958
1.06943
1.06928
1.06913
1.06898
1.06883
1.06869
1.06855
1.06841
1.06827
1.06813
1.06799
1.06785
1.0677
1.06756
1.06741
1.06726
1.06711
1.06695
1.06678
1.06661
1.06643
1.06625
1.06607
1.06587
1.06567
1.06547
1.06527
1.06506
1.06484
1.06463
1.06442
1.0642
1.06399
1.06378
1.06357
1.06336
1.06317
1.06297
1.06279
1.06261
1.06243
1.06227
1.06211
1.06196
1.06183
1.0617
1.06158
1.06147
1.06137
1.06128
1.0612
1.06113
1.06107
1.06102
1.06097
1.06094
1.06092
1.06091
1.0609
1.0609
1.06092
1.06094
1.06096
1.061
1.06104
1.06108
1.06114
1.0612
1.06126
1.06133
1.0614
1.06148
1.06156
1.06164
1.06172
1.06181
1.0619
1.06198
1.06207
1.06216
1.06225
1.06234
1.06242
1.06251
1.06259
1.06267
1.06275
1.06282
1.0629
1.06297
1.06304
1.06311
1.0911
1.09114
1.09118
1.09121
1.09124
1.09127
1.0913
1.09133
1.09135
1.09137
1.09139
1.09141
1.09143
1.09145
1.09146
1.09148
1.09149
1.0915
1.09151
1.09152
1.09153
1.09154
1.09155
1.09156
1.09156
1.09157
1.09158
1.09158
1.09159
1.09159
1.09159
1.0916
1.0916
1.09161
1.09161
1.09162
1.09163
1.09163
1.09164
1.09165
1.09166
1.09167
1.09169
1.09171
1.09173
1.09175
1.09177
1.0918
1.09183
1.09186
1.0919
1.09195
1.09199
1.09204
1.0921
1.09216
1.09223
1.0923
1.09238
1.09247
1.09256
1.09266
1.09277
1.09289
1.09301
1.09315
1.09329
1.09344
1.0936
1.09376
1.09394
1.09413
1.09433
1.09454
1.09475
1.09498
1.09522
1.09546
1.09572
1.09598
1.09626
1.09654
1.09683
1.09712
1.09742
1.09773
1.09804
1.09835
1.09866
1.09896
1.09926
1.09955
1.09983
1.1001
1.10034
1.10057
1.10078
1.10096
1.10111
1.10124
1.10135
1.10142
1.10148
1.10151
1.10152
1.10152
1.1015
1.10147
1.10142
1.10137
1.10132
1.10125
1.10119
1.10112
1.10105
1.10098
1.10091
1.10084
1.10077
1.10069
1.10062
1.10054
1.10046
1.10038
1.10029
1.10019
1.10009
1.09997
1.09984
1.0997
1.09954
1.09936
1.09915
1.09892
1.09865
1.09836
1.09803
1.09766
1.09725
1.09681
1.09633
1.09581
1.09526
1.09467
1.09405
1.09341
1.09275
1.09207
1.09139
1.0907
1.09002
1.08935
1.0887
1.08807
1.08747
1.0869
1.08638
1.08589
1.08545
1.08505
1.08469
1.08437
1.08409
1.08385
1.08364
1.08345
1.08329
1.08314
1.083
1.08287
1.08274
1.08261
1.08248
1.08235
1.08221
1.08206
1.08191
1.08175
1.08158
1.08141
1.08123
1.08105
1.08086
1.08067
1.08047
1.08027
1.08007
1.07987
1.07967
1.07946
1.07926
1.07905
1.07884
1.07863
1.07842
1.07822
1.07801
1.0778
1.07759
1.07739
1.07719
1.077
1.07681
1.07663
1.07645
1.07629
1.07614
1.07599
1.07586
1.07575
1.07564
1.07555
1.07548
1.07541
1.07536
1.07533
1.0753
1.07529
1.07529
1.0753
1.07531
1.07534
1.07537
1.07541
1.07546
1.0755
1.07555
1.07561
1.07566
1.07571
1.07576
1.0758
1.07585
1.07588
1.07591
1.07594
1.07595
1.07596
1.07596
1.07594
1.07592
1.07589
1.07585
1.0758
1.07575
1.07568
1.07561
1.07553
1.07545
1.07536
1.07527
1.07518
1.07508
1.07498
1.07488
1.07478
1.07468
1.07458
1.07448
1.07438
1.07428
1.07419
1.0741
1.074
1.07391
1.07383
1.07374
1.07365
1.07357
1.07349
1.07341
1.07333
1.07325
1.07317
1.07309
1.07301
1.07293
1.07285
1.07277
1.07269
1.0726
1.07251
1.07242
1.07233
1.07224
1.07214
1.07204
1.07193
1.07183
1.07172
1.0716
1.07149
1.07137
1.07125
1.07112
1.071
1.07087
1.07074
1.07061
1.07048
1.07035
1.07022
1.07009
1.06996
1.06983
1.0697
1.06958
1.06945
1.06933
1.06921
1.06909
1.06897
1.06886
1.06875
1.06864
1.06853
1.06842
1.06831
1.0682
1.06809
1.06797
1.06786
1.06774
1.06762
1.06749
1.06735
1.06721
1.06707
1.06692
1.06676
1.06659
1.06642
1.06624
1.06605
1.06586
1.06566
1.06546
1.06526
1.06505
1.06485
1.06464
1.06443
1.06423
1.06402
1.06382
1.06363
1.06344
1.06325
1.06308
1.0629
1.06274
1.06258
1.06243
1.06229
1.06216
1.06204
1.06193
1.06182
1.06172
1.06164
1.06156
1.06149
1.06144
1.06139
1.06135
1.06131
1.06129
1.06128
1.06127
1.06127
1.06128
1.0613
1.06132
1.06135
1.06139
1.06143
1.06148
1.06154
1.0616
1.06166
1.06173
1.0618
1.06187
1.06194
1.06202
1.0621
1.06218
1.06226
1.06234
1.06242
1.0625
1.06257
1.06265
1.06273
1.0628
1.06287
1.06294
1.06301
1.06308
1.06314
1.09075
1.09079
1.09084
1.09087
1.09091
1.09094
1.09097
1.091
1.09103
1.09106
1.09108
1.0911
1.09112
1.09114
1.09116
1.09117
1.09119
1.0912
1.09121
1.09123
1.09124
1.09125
1.09126
1.09126
1.09127
1.09128
1.09129
1.09129
1.0913
1.09131
1.09131
1.09132
1.09132
1.09133
1.09134
1.09135
1.09136
1.09137
1.09138
1.09139
1.09141
1.09142
1.09144
1.09146
1.09148
1.09151
1.09154
1.09157
1.0916
1.09164
1.09168
1.09173
1.09178
1.09184
1.0919
1.09196
1.09203
1.09211
1.09219
1.09228
1.09238
1.09248
1.09259
1.09271
1.09283
1.09297
1.09311
1.09326
1.09342
1.09359
1.09377
1.09395
1.09415
1.09435
1.09456
1.09479
1.09502
1.09526
1.09551
1.09577
1.09603
1.09631
1.09659
1.09688
1.09718
1.09748
1.09778
1.09809
1.0984
1.0987
1.099
1.0993
1.09958
1.09985
1.1001
1.10033
1.10054
1.10073
1.10089
1.10103
1.10113
1.10121
1.10127
1.10131
1.10132
1.10132
1.1013
1.10126
1.10122
1.10117
1.10112
1.10105
1.10099
1.10092
1.10086
1.10079
1.10072
1.10065
1.10057
1.1005
1.10043
1.10035
1.10027
1.10019
1.1001
1.1
1.0999
1.09978
1.09965
1.09951
1.09934
1.09916
1.09895
1.09871
1.09845
1.09815
1.09781
1.09744
1.09704
1.09659
1.09611
1.09559
1.09503
1.09444
1.09382
1.09318
1.09252
1.09184
1.09115
1.09047
1.08979
1.08912
1.08847
1.08784
1.08724
1.08668
1.08615
1.08567
1.08523
1.08483
1.08447
1.08416
1.08388
1.08364
1.08342
1.08323
1.08307
1.08292
1.08278
1.08264
1.08251
1.08238
1.08225
1.08212
1.08197
1.08183
1.08167