# vtk DataFile Version 2.0
LBE two cylinders
ASCII
DATASET STRUCTURED_POINTS
DIMENSIONS 400 100 1
ASPECT_RATIO 1 1 1
ORIGIN 0 0 0
POINT_DATA 40000
SCALARS rho double 1
LOOKUP_TABLE default
1.07468
1.07471
1.07475
1.07479
1.07485
1.0749
1.07497
1.07504
1.07512
1.0752
1.07529
1.07538
1.07548
1.07558
1.07569
1.07581
1.07593
1.07605
1.07618
1.07631
1.07644
1.07658
1.07672
1.07687
1.07701
1.07717
1.07732
1.07748
1.07764
1.07781
1.07798
1.07815
1.07833
1.07851
1.0787
1.07889
1.07908
1.07928
1.07948
1.07968
1.07989
1.08011
1.08032
1.08054
1.08077
1.08099
1.08123
1.08146
1.0817
1.08194
1.08218
1.08243
1.08268
1.08293
1.08319
1.08345
1.08372
1.084
1.08428
1.08456
1.08485
1.08515
1.08546
1.08577
1.08609
1.08642
1.08676
1.08711
1.08746
1.08783
1.0882
1.08859
1.08899
1.08939
1.08981
1.09023
1.09067
1.09111
1.09155
1.09201
1.09247
1.09293
1.0934
1.09386
1.09432
1.09478
1.09522
1.09566
1.09608
1.09649
1.09687
1.09724
1.09757
1.09788
1.09816
1.09841
1.09862
1.0988
1.09894
1.09905
1.09912
1.09916
1.09917
1.09914
1.09909
1.09902
1.09892
1.0988
1.09866
1.0985
1.09833
1.09815
1.09796
1.09776
1.09755
1.09734
1.09712
1.09689
1.09667
1.09643
1.0962
1.09596
1.09572
1.09548
1.09524
1.095
1.09476
1.09451
1.09427
1.09402
1.09377
1.09353
1.09328
1.09304
1.09279
1.09255
1.09231
1.09207
1.09184
1.0916
1.09137
1.09115
1.09093
1.09071
1.09049
1.09029
1.09008
1.08988
1.08969
1.0895
1.08931
1.08913
1.08895
1.08878
1.08861
1.08845
1.08829
1.08813
1.08798
1.08783
1.08768
1.08754
1.0874
1.08726
1.08713
1.087
1.08687
1.08674
1.08662
1.0865
1.08638
1.08627
1.08615
1.08604
1.08594
1.08583
1.08573
1.08563
1.08554
1.08544
1.08536
1.08527
1.08519
1.08511
1.08504
1.08497
1.08491
1.08485
1.0848
1.08475
1.08471
1.08468
1.08465
1.08463
1.08461
1.0846
1.0846
1.0846
1.08461
1.08463
1.08465
1.08467
1.08471
1.08474
1.08478
1.08483
1.08488
1.08493
1.08499
1.08505
1.08512
1.08518
1.08525
1.08532
1.08539
1.08546
1.08554
1.08561
1.08568
1.08575
1.08583
1.08589
1.08596
1.08603
1.08609
1.08614
1.0862
1.08625
1.08629
1.08632
1.08635
1.08637
1.08639
1.0864
1.0864
1.08639
1.08638
1.08636
1.08634
1.08631
1.08627
1.08624
1.0862
1.08617
1.08613
1.0861
1.08607
1.08605
1.08603
1.08602
1.08601
1.08602
1.08603
1.08606
1.08609
1.08612
1.08617
1.08621
1.08626
1.08631
1.08636
1.0864
1.08643
1.08644
1.08644
1.0864
1.08634
1.08623
1.08608
1.08588
1.08562
1.0853
1.08491
1.08445
1.08393
1.08333
1.08267
1.08195
1.08118
1.08036
1.07951
1.07862
1.07772
1.07681
1.07589
1.07499
1.07411
1.07325
1.07244
1.07167
1.07096
1.07031
1.06974
1.06923
1.06881
1.06847
1.0682
1.06801
1.0679
1.06785
1.06785
1.0679
1.068
1.06812
1.06828
1.06845
1.06864
1.06884
1.06905
1.06927
1.0695
1.06975
1.07
1.07027
1.07056
1.07086
1.07119
1.07153
1.07189
1.07228
1.07269
1.07311
1.07356
1.07403
1.07451
1.07501
1.07553
1.07605
1.07659
1.07714
1.07769
1.07825
1.07883
1.07941
1.08
1.0806
1.08121
1.08183
1.08247
1.08312
1.08378
1.08445
1.08513
1.08583
1.08652
1.08722
1.08792
1.08861
1.08929
1.08997
1.09064
1.09129
1.09193
1.09255
1.09315
1.09373
1.09429
1.09483
1.09535
1.09584
1.0963
1.09672
1.09711
1.09746
1.09776
1.09801
1.0982
1.09833
1.09838
1.09837
1.09826
1.09807
1.09778
1.09739
1.09689
1.09627
1.09554
1.0947
1.09374
1.09267
1.09149
1.0902
1.08883
1.08738
1.08587
1.0843
1.0827
1.08109
1.07948
1.07788
1.07632
1.0748
1.07334
1.07196
1.07065
1.06944
1.06832
1.0673
1.06637
1.06558
1.07469
1.07472
1.07476
1.07481
1.07486
1.07492
1.07499
1.07506
1.07513
1.07522
1.0753
1.0754
1.0755
1.0756
1.07571
1.07583
1.07594
1.07607
1.07619
1.07632
1.07646
1.0766
1.07674
1.07688
1.07703
1.07718
1.07734
1.0775
1.07766
1.07783
1.078
1.07817
1.07835
1.07853
1.07872
1.0789
1.0791
1.0793
1.0795
1.0797
1.07991
1.08013
1.08034
1.08056
1.08079
1.08102
1.08125
1.08148
1.08172
1.08196
1.0822
1.08245
1.0827
1.08295
1.08321
1.08348
1.08375
1.08402
1.0843
1.08459
1.08488
1.08518
1.08548
1.08579
1.08611
1.08644
1.08678
1.08713
1.08748
1.08785
1.08822
1.08861
1.089
1.08941
1.08982
1.09024
1.09067
1.09111
1.09155
1.092
1.09246
1.09291
1.09337
1.09383
1.09428
1.09473
1.09517
1.0956
1.09602
1.09642
1.09679
1.09715
1.09748
1.09779
1.09806
1.09831
1.09852
1.09869
1.09883
1.09894
1.09902
1.09906
1.09907
1.09905
1.09901
1.09894
1.09884
1.09873
1.09859
1.09844
1.09828
1.0981
1.09791
1.09772
1.09751
1.0973
1.09708
1.09686
1.09664
1.09641
1.09617
1.09594
1.0957
1.09546
1.09522
1.09498
1.09474
1.0945
1.09425
1.09401
1.09376
1.09352
1.09328
1.09303
1.09279
1.09255
1.09231
1.09208
1.09184
1.09161
1.09138
1.09116
1.09094
1.09072
1.09051
1.0903
1.0901
1.0899
1.0897
1.08951
1.08933
1.08915
1.08897
1.0888
1.08863
1.08847
1.08831
1.08815
1.088
1.08785
1.0877
1.08756
1.08742
1.08728
1.08715
1.08702
1.08689
1.08676
1.08664
1.08652
1.0864
1.08628
1.08617
1.08606
1.08596
1.08585
1.08575
1.08565
1.08556
1.08546
1.08537
1.08529
1.08521
1.08513
1.08506
1.08499
1.08493
1.08487
1.08482
1.08477
1.08473
1.0847
1.08467
1.08465
1.08463
1.08462
1.08462
1.08462
1.08463
1.08464
1.08467
1.08469
1.08472
1.08476
1.0848
1.08485
1.0849
1.08495
1.08501
1.08507
1.08513
1.08519
1.08526
1.08533
1.0854
1.08547
1.08554
1.08562
1.08569
1.08576
1.08583
1.0859
1.08596
1.08603
1.08609
1.08615
1.0862
1.08624
1.08629
1.08632
1.08635
1.08637
1.08639
1.0864
1.0864
1.08639
1.08638
1.08636
1.08634
1.08631
1.08628
1.08625
1.08621
1.08618
1.08614
1.08611
1.08608
1.08606
1.08604
1.08603
1.08603
1.08604
1.08605
1.08607
1.0861
1.08614
1.08618
1.08622
1.08627
1.08632
1.08636
1.0864
1.08642
1.08643
1.08642
1.08638
1.08631
1.0862
1.08605
1.08584
1.08557
1.08524
1.08485
1.08438
1.08385
1.08326
1.0826
1.08188
1.08111
1.08029
1.07944
1.07856
1.07766
1.07675
1.07584
1.07495
1.07407
1.07323
1.07243
1.07167
1.07097
1.07033
1.06976
1.06927
1.06885
1.06852
1.06826
1.06808
1.06796
1.06791
1.06791
1.06796
1.06805
1.06818
1.06833
1.0685
1.06868
1.06888
1.06909
1.06931
1.06954
1.06979
1.07004
1.07031
1.0706
1.0709
1.07122
1.07157
1.07193
1.07231
1.07271
1.07314
1.07358
1.07404
1.07452
1.07502
1.07552
1.07605
1.07658
1.07712
1.07767
1.07823
1.0788
1.07938
1.07997
1.08057
1.08119
1.08181
1.08245
1.0831
1.08376
1.08444
1.08512
1.08581
1.0865
1.0872
1.08789
1.08858
1.08927
1.08994
1.0906
1.09125
1.09188
1.0925
1.0931
1.09367
1.09423
1.09476
1.09526
1.09574
1.09619
1.0966
1.09697
1.0973
1.09759
1.09782
1.09799
1.0981
1.09814
1.0981
1.09798
1.09777
1.09747
1.09707
1.09656
1.09594
1.09522
1.09438
1.09344
1.09239
1.09123
1.08999
1.08865
1.08725
1.08578
1.08427
1.08272
1.08115
1.07958
1.07803
1.0765
1.07502
1.07359
1.07222
1.07093
1.06972
1.0686
1.06758
1.06665
1.06583
1.07471
1.07475
1.07479
1.07484
1.07489
1.07495
1.07502
1.07509
1.07516
1.07524
1.07533
1.07543
1.07552
1.07563
1.07574
1.07585
1.07597
1.07609
1.07622
1.07635
1.07648
1.07662
1.07676
1.07691
1.07705
1.07721
1.07736
1.07752
1.07768
1.07785
1.07802
1.07819
1.07837
1.07855
1.07874
1.07893
1.07912
1.07932
1.07952
1.07973
1.07994
1.08015
1.08037
1.08059
1.08081
1.08104
1.08127
1.0815
1.08174
1.08198
1.08222
1.08247
1.08272
1.08298
1.08324
1.0835
1.08377
1.08404
1.08432
1.08461
1.0849
1.0852
1.0855
1.08582
1.08614
1.08646
1.0868
1.08715
1.0875
1.08787
1.08824
1.08863
1.08902
1.08942
1.08983
1.09025
1.09068
1.09111
1.09155
1.092
1.09245
1.0929
1.09335
1.09381
1.09426
1.0947
1.09514
1.09556
1.09597
1.09637
1.09674
1.0971
1.09743
1.09773
1.098
1.09824
1.09845
1.09863
1.09877
1.09888
1.09896
1.099
1.09901
1.099
1.09895
1.09888
1.09879
1.09868
1.09855
1.0984
1.09824
1.09807
1.09788
1.09769
1.09749
1.09728
1.09706
1.09684
1.09662
1.09639
1.09616
1.09593
1.09569
1.09545
1.09521
1.09497
1.09473
1.09449
1.09425
1.094
1.09376
1.09352
1.09328
1.09303
1.09279
1.09256
1.09232
1.09208
1.09185
1.09162
1.0914
1.09117
1.09095
1.09074
1.09053
1.09032
1.09012
1.08992
1.08973
1.08954
1.08936
1.08918
1.089
1.08883
1.08866
1.0885
1.08834
1.08818
1.08803
1.08788
1.08773
1.08759
1.08745
1.08731
1.08718
1.08705
1.08692
1.08679
1.08667
1.08655
1.08643
1.08631
1.0862
1.08609
1.08598
1.08588
1.08578
1.08568
1.08558
1.08549
1.0854
1.08532
1.08524
1.08516
1.08509
1.08502
1.08496
1.0849
1.08485
1.0848
1.08476
1.08473
1.0847
1.08468
1.08466
1.08465
1.08465
1.08465
1.08466
1.08467
1.08469
1.08472
1.08475
1.08479
1.08483
1.08487
1.08492
1.08497
1.08503
1.08509
1.08515
1.08522
1.08528
1.08535
1.08542
1.08549
1.08556
1.08563
1.0857
1.08577
1.08584
1.08591
1.08598
1.08604
1.0861
1.08615
1.0862
1.08625
1.08629
1.08633
1.08635
1.08638
1.08639
1.0864
1.0864
1.0864
1.08639
1.08637
1.08635
1.08632
1.08629
1.08626
1.08623
1.08619
1.08616
1.08613
1.0861
1.08608
1.08607
1.08606
1.08605
1.08606
1.08607
1.08609
1.08612
1.08615
1.08619
1.08624
1.08628
1.08633
1.08637
1.0864
1.08642
1.08643
1.08642
1.08637
1.0863
1.08618
1.08602
1.08581
1.08553
1.0852
1.0848
1.08433
1.08379
1.08319
1.08253
1.08181
1.08103
1.08022
1.07936
1.07848
1.07759
1.07669
1.07578
1.0749
1.07403
1.07319
1.0724
1.07165
1.07096
1.07033
1.06978
1.06929
1.06889
1.06856
1.06831
1.06813
1.06802
1.06797
1.06798
1.06803
1.06812
1.06824
1.06839
1.06855
1.06874
1.06893
1.06914
1.06936
1.06959
1.06984
1.07009
1.07036
1.07065
1.07095
1.07127
1.07161
1.07197
1.07235
1.07275
1.07317
1.07361
1.07406
1.07454
1.07503
1.07553
1.07605
1.07657
1.07711
1.07766
1.07822
1.07879
1.07937
1.07996
1.08056
1.08117
1.0818
1.08244
1.08309
1.08376
1.08443
1.08511
1.0858
1.0865
1.08719
1.08788
1.08857
1.08925
1.08992
1.09057
1.09121
1.09184
1.09244
1.09303
1.09359
1.09413
1.09465
1.09514
1.0956
1.09602
1.09641
1.09676
1.09706
1.09732
1.09752
1.09766
1.09773
1.09774
1.09767
1.09752
1.09728
1.09695
1.09653
1.09601
1.09539
1.09466
1.09384
1.09292
1.0919
1.09079
1.0896
1.08833
1.08699
1.0856
1.08416
1.08269
1.08121
1.07971
1.07823
1.07676
1.07533
1.07395
1.07261
1.07135
1.07015
1.06904
1.068
1.06707
1.06621
1.07475
1.07479
1.07483
1.07488
1.07493
1.07499
1.07505
1.07512
1.0752
1.07528
1.07537
1.07546
1.07556
1.07566
1.07577
1.07588
1.076
1.07612
1.07625
1.07638
1.07651
1.07665
1.07679
1.07693
1.07708
1.07723
1.07739
1.07755
1.07771
1.07788
1.07805
1.07822
1.0784
1.07858
1.07876
1.07895
1.07915
1.07935
1.07955
1.07975
1.07996
1.08018
1.08039
1.08061
1.08084
1.08106
1.08129
1.08153
1.08176
1.082
1.08224
1.08249
1.08274
1.083
1.08326
1.08352
1.08379
1.08406
1.08434
1.08463
1.08492
1.08522
1.08552
1.08583
1.08615
1.08648
1.08682
1.08717
1.08752
1.08788
1.08826
1.08864
1.08903
1.08943
1.08984
1.09026
1.09068
1.09111
1.09155
1.09199
1.09244
1.09289
1.09334
1.09379
1.09423
1.09468
1.09511
1.09553
1.09594
1.09633
1.09671
1.09706
1.09739
1.09769
1.09796
1.0982
1.09841
1.09859
1.09873
1.09884
1.09892
1.09896
1.09898
1.09896
1.09892
1.09885
1.09876
1.09865
1.09852
1.09838
1.09822
1.09805
1.09787
1.09767
1.09747
1.09726
1.09705
1.09683
1.09661
1.09638
1.09615
1.09592
1.09569
1.09545
1.09521
1.09497
1.09473
1.09449
1.09425
1.09401
1.09376
1.09352
1.09328
1.09304
1.0928
1.09257
1.09233
1.0921
1.09187
1.09164
1.09141
1.09119
1.09098
1.09076
1.09055
1.09035
1.09015
1.08995
1.08976
1.08957
1.08939
1.08921
1.08903
1.08886
1.0887
1.08853
1.08837
1.08822
1.08807
1.08792
1.08777
1.08763
1.08749
1.08735
1.08721
1.08708
1.08695
1.08683
1.0867
1.08658
1.08646
1.08635
1.08623
1.08612
1.08602
1.08591
1.08581
1.08571
1.08562
1.08552
1.08544
1.08535
1.08527
1.08519
1.08512
1.08506
1.08499
1.08494
1.08489
1.08484
1.0848
1.08477
1.08474
1.08472
1.0847
1.08469
1.08469
1.08469
1.0847
1.08472
1.08474
1.08476
1.08479
1.08483
1.08487
1.08491
1.08496
1.08501
1.08507
1.08513
1.08519
1.08525
1.08532
1.08538
1.08545
1.08552
1.08559
1.08566
1.08573
1.0858
1.08586
1.08593
1.08599
1.08605
1.08611
1.08617
1.08622
1.08626
1.0863
1.08633
1.08636
1.08638
1.0864
1.08641
1.08641
1.08641
1.0864
1.08638
1.08636
1.08633
1.08631
1.08628
1.08624
1.08621
1.08618
1.08615
1.08613
1.08611
1.08609
1.08608
1.08608
1.08609
1.0861
1.08612
1.08615
1.08618
1.08622
1.08626
1.0863
1.08634
1.08638
1.08641
1.08643
1.08644
1.08642
1.08637
1.08629
1.08617
1.08601
1.08579
1.08551
1.08517
1.08476
1.08429
1.08375
1.08314
1.08247
1.08174
1.08097
1.08015
1.07929
1.07842
1.07752
1.07662
1.07572
1.07484
1.07398
1.07315
1.07236
1.07162
1.07094
1.07033
1.06978
1.06931
1.06892
1.0686
1.06836
1.06819
1.06808
1.06804
1.06805
1.0681
1.06819
1.06831
1.06845
1.06862
1.0688
1.06899
1.0692
1.06942
1.06965
1.06989
1.07015
1.07042
1.07071
1.07101
1.07133
1.07166
1.07202
1.0724
1.07279
1.07321
1.07364
1.07409
1.07456
1.07505
1.07555
1.07606
1.07658
1.07712
1.07766
1.07822
1.07879
1.07937
1.07996
1.08056
1.08118
1.08181
1.08245
1.0831
1.08377
1.08444
1.08513
1.08582
1.08651
1.0872
1.08789
1.08857
1.08924
1.0899
1.09055
1.09118
1.09179
1.09238
1.09295
1.0935
1.09402
1.09451
1.09498
1.09541
1.0958
1.09616
1.09647
1.09673
1.09695
1.0971
1.0972
1.09723
1.09719
1.09708
1.09688
1.09661
1.09624
1.09579
1.09525
1.09462
1.0939
1.09309
1.0922
1.09122
1.09017
1.08904
1.08785
1.08661
1.08531
1.08398
1.08262
1.08124
1.07984
1.07845
1.07708
1.07572
1.0744
1.07311
1.07188
1.07071
1.06961
1.06857
1.06761
1.06673
1.0748
1.07484
1.07488
1.07493
1.07498
1.07504
1.0751
1.07517
1.07524
1.07533
1.07541
1.0755
1.0756
1.0757
1.07581
1.07592
1.07604
1.07616
1.07628
1.07641
1.07654
1.07668
1.07682
1.07697
1.07711
1.07726
1.07742
1.07758
1.07774
1.07791
1.07808
1.07825
1.07843
1.07861
1.07879
1.07898
1.07918
1.07938
1.07958
1.07978
1.07999
1.0802
1.08042
1.08064
1.08086
1.08109
1.08132
1.08155
1.08179
1.08202
1.08227
1.08251
1.08276
1.08302
1.08328
1.08354
1.08381
1.08408
1.08436
1.08464
1.08493
1.08523
1.08554
1.08585
1.08617
1.0865
1.08683
1.08718
1.08753
1.08789
1.08827
1.08865
1.08904
1.08943
1.08984
1.09026
1.09068
1.09111
1.09154
1.09198
1.09243
1.09288
1.09332
1.09377
1.09421
1.09465
1.09509
1.09551
1.09591
1.09631
1.09668
1.09703
1.09736
1.09766
1.09794
1.09818
1.09839
1.09857
1.09871
1.09882
1.0989
1.09895
1.09896
1.09895
1.09891
1.09884
1.09875
1.09864
1.09851
1.09837
1.09821
1.09804
1.09786
1.09767
1.09747
1.09726
1.09705
1.09683
1.09661
1.09638
1.09615
1.09592
1.09569
1.09545
1.09521
1.09498
1.09474
1.09449
1.09425
1.09401
1.09377
1.09353
1.09329
1.09305
1.09281
1.09258
1.09234
1.09211
1.09189
1.09166
1.09144
1.09122
1.091
1.09079
1.09058
1.09038
1.09018
1.08999
1.0898
1.08961
1.08943
1.08925
1.08908
1.08891
1.08874
1.08858
1.08842
1.08826
1.08811
1.08796
1.08782
1.08767
1.08753
1.08739
1.08726
1.08713
1.087
1.08687
1.08675
1.08663
1.08651
1.08639
1.08628
1.08617
1.08606
1.08595
1.08585
1.08575
1.08566
1.08557
1.08548
1.08539
1.08531
1.08524
1.08517
1.0851
1.08504
1.08498
1.08493
1.08489
1.08485
1.08481
1.08479
1.08477
1.08475
1.08474
1.08474
1.08474
1.08475
1.08477
1.08479
1.08481
1.08484
1.08488
1.08492
1.08496
1.08501
1.08506
1.08512
1.08517
1.08523
1.0853
1.08536
1.08542
1.08549
1.08556
1.08563
1.08569
1.08576
1.08583
1.08589
1.08596
1.08602
1.08608
1.08613
1.08619
1.08623
1.08628
1.08631
1.08635
1.08637
1.08639
1.08641
1.08642
1.08642
1.08642
1.08641
1.08639
1.08637
1.08635
1.08633
1.0863
1.08627
1.08624
1.08621
1.08618
1.08616
1.08614
1.08613
1.08612
1.08612
1.08612
1.08614
1.08615
1.08618
1.08621
1.08625
1.08629
1.08633
1.08637
1.0864
1.08643
1.08645
1.08645
1.08643
1.08638
1.08629
1.08617
1.086
1.08577
1.08549
1.08514
1.08473
1.08425
1.0837
1.08309
1.08242
1.08169
1.08091
1.08008
1.07923
1.07835
1.07745
1.07655
1.07566
1.07478
1.07392
1.0731
1.07232
1.07159
1.07093
1.07032
1.06979
1.06933
1.06895
1.06864
1.06841
1.06825
1.06815
1.06811
1.06812
1.06817
1.06826
1.06838
1.06852
1.06868
1.06886
1.06906
1.06926
1.06948
1.06971
1.06995
1.07021
1.07048
1.07077
1.07107
1.07139
1.07172
1.07208
1.07245
1.07284
1.07325
1.07368
1.07413
1.0746
1.07507
1.07557
1.07608
1.0766
1.07713
1.07768
1.07823
1.0788
1.07938
1.07998
1.08058
1.0812
1.08183
1.08248
1.08313
1.0838
1.08448
1.08516
1.08585
1.08653
1.08722
1.0879
1.08858
1.08924
1.08989
1.09052
1.09114
1.09173
1.09231
1.09286
1.09338
1.09387
1.09434
1.09477
1.09516
1.09552
1.09583
1.09609
1.09631
1.09647
1.09657
1.09661
1.09659
1.09649
1.09632
1.09608
1.09576
1.09535
1.09487
1.09431
1.09368
1.09296
1.09217
1.09132
1.09039
1.08941
1.08836
1.08727
1.08613
1.08495
1.08374
1.0825
1.08124
1.07997
1.07869
1.07742
1.07616
1.07491
1.07369
1.07251
1.07137
1.07028
1.06925
1.06828
1.06737
1.07485
1.07489
1.07494
1.07498
1.07504
1.07509
1.07516
1.07522
1.0753
1.07538
1.07546
1.07555
1.07565
1.07575
1.07585
1.07597
1.07608
1.0762
1.07632
1.07645
1.07658
1.07672
1.07686
1.077
1.07715
1.0773
1.07746
1.07761
1.07778
1.07794
1.07811
1.07828
1.07846
1.07864
1.07883
1.07902
1.07921
1.07941
1.07961
1.07981
1.08002
1.08023
1.08045
1.08067
1.08089
1.08111
1.08134
1.08157
1.08181
1.08205
1.08229
1.08253
1.08278
1.08304
1.08329
1.08356
1.08382
1.0841
1.08437
1.08466
1.08495
1.08525
1.08555
1.08586
1.08618
1.08651
1.08684
1.08719
1.08754
1.0879
1.08827
1.08865
1.08904
1.08943
1.08984
1.09025
1.09067
1.0911
1.09153
1.09197
1.09241
1.09285
1.0933
1.09374
1.09418
1.09462
1.09505
1.09547
1.09588
1.09627
1.09665
1.097
1.09734
1.09764
1.09792
1.09816
1.09837
1.09855
1.0987
1.09881
1.09889
1.09894
1.09895
1.09894
1.0989
1.09883
1.09874
1.09863
1.09851
1.09836
1.0982
1.09803
1.09785
1.09766
1.09746
1.09726
1.09705
1.09683
1.09661
1.09639
1.09616
1.09593
1.09569
1.09546
1.09522
1.09498
1.09474
1.0945
1.09426
1.09402
1.09378
1.09354
1.0933
1.09306
1.09283
1.09259
1.09236
1.09213
1.09191
1.09168
1.09146
1.09125
1.09103
1.09082
1.09062
1.09042
1.09022
1.09003
1.08984
1.08965
1.08947
1.0893
1.08912
1.08895
1.08879
1.08863
1.08847
1.08831
1.08816
1.08801
1.08787
1.08772
1.08758
1.08745
1.08731
1.08718
1.08705
1.08692
1.0868
1.08668
1.08656
1.08644
1.08633
1.08622
1.08611
1.086
1.0859
1.0858
1.08571
1.08562
1.08553
1.08545
1.08537
1.08529
1.08522
1.08515
1.08509
1.08504
1.08499
1.08494
1.08491
1.08487
1.08485
1.08483
1.08481
1.0848
1.0848
1.0848
1.08481
1.08483
1.08485
1.08487
1.08491
1.08494
1.08498
1.08502
1.08507
1.08512
1.08517
1.08523
1.08529
1.08535
1.08541
1.08548
1.08554
1.08561
1.08567
1.08574
1.0858
1.08587
1.08593
1.08599
1.08605
1.08611
1.08616
1.08621
1.08626
1.0863
1.08633
1.08636
1.08639
1.08641
1.08642
1.08643
1.08643
1.08643
1.08642
1.08641
1.08639
1.08637
1.08635
1.08632
1.0863
1.08627
1.08624
1.08622
1.0862
1.08618
1.08617
1.08616
1.08616
1.08617
1.08618
1.0862
1.08622
1.08625
1.08628
1.08632
1.08636
1.0864
1.08643
1.08645
1.08647
1.08646
1.08644
1.08639
1.0863
1.08617
1.08599
1.08576
1.08547
1.08512
1.0847
1.08422
1.08367
1.08305
1.08237
1.08163
1.08084
1.08002
1.07916
1.07827
1.07738
1.07648
1.07559
1.07471
1.07386
1.07305
1.07228
1.07156
1.07091
1.07032
1.0698
1.06935
1.06898
1.06869
1.06847
1.06831
1.06822
1.06818
1.06819
1.06825
1.06834
1.06845
1.06859
1.06875
1.06893
1.06912
1.06933
1.06955
1.06978
1.07002
1.07028
1.07055
1.07083
1.07113
1.07145
1.07179
1.07214
1.07251
1.0729
1.07331
1.07373
1.07417
1.07463
1.07511
1.0756
1.0761
1.07662
1.07715
1.0777
1.07825
1.07883
1.07941
1.08001
1.08062
1.08124
1.08188
1.08252
1.08318
1.08385
1.08453
1.08521
1.08589
1.08657
1.08725
1.08793
1.08859
1.08924
1.08988
1.09049
1.09109
1.09167
1.09222
1.09274
1.09323
1.09369
1.09412
1.09451
1.09486
1.09516
1.09542
1.09563
1.09578
1.09588
1.09592
1.0959
1.09581
1.09565
1.09542
1.09512
1.09475
1.09431
1.0938
1.09322
1.09258
1.09188
1.09112
1.09031
1.08945
1.08854
1.08759
1.0866
1.08558
1.08453
1.08345
1.08234
1.08122
1.08008
1.07893
1.07777
1.07662
1.07547
1.07433
1.0732
1.07211
1.07105
1.07002
1.06905
1.06812
1.07492
1.07496
1.075
1.07505
1.0751
1.07516
1.07522
1.07529
1.07536
1.07544
1.07552
1.07561
1.0757
1.0758
1.07591
1.07602
1.07613
1.07625
1.07637
1.0765
1.07663
1.07677
1.0769
1.07705
1.07719
1.07734
1.0775
1.07766
1.07782
1.07798
1.07815
1.07833
1.0785
1.07868
1.07887
1.07906
1.07925
1.07945
1.07965
1.07985
1.08006
1.08027
1.08048
1.0807
1.08092
1.08114
1.08137
1.0816
1.08183
1.08207
1.08231
1.08256
1.0828
1.08306
1.08331
1.08357
1.08384
1.08411
1.08439
1.08467
1.08496
1.08525
1.08556
1.08587
1.08618
1.08651
1.08684
1.08719
1.08754
1.0879
1.08827
1.08864
1.08903
1.08942
1.08982
1.09023
1.09065
1.09107
1.0915
1.09194
1.09238
1.09282
1.09326
1.0937
1.09414
1.09458
1.09501
1.09543
1.09584
1.09624
1.09661
1.09697
1.0973
1.09761
1.09789
1.09814
1.09836
1.09854
1.09869
1.0988
1.09888
1.09893
1.09895
1.09893
1.09889
1.09883
1.09874
1.09863
1.0985
1.09836
1.0982
1.09803
1.09785
1.09766
1.09746
1.09726
1.09705
1.09684
1.09662
1.09639
1.09616
1.09593
1.0957
1.09547
1.09523
1.09499
1.09475
1.09451
1.09427
1.09403
1.09379
1.09355
1.09332
1.09308
1.09285
1.09261
1.09238
1.09215
1.09193
1.09171
1.09149
1.09128
1.09106
1.09086
1.09065
1.09045
1.09026
1.09007
1.08988
1.0897
1.08952
1.08935
1.08917
1.08901
1.08884
1.08868
1.08853
1.08837
1.08822
1.08807
1.08793
1.08778
1.08764
1.08751
1.08737
1.08724
1.08711
1.08698
1.08686
1.08674
1.08662
1.0865
1.08639
1.08628
1.08617
1.08606
1.08596
1.08586
1.08577
1.08568
1.08559
1.0855
1.08543
1.08535
1.08528
1.08522
1.08516
1.0851
1.08505
1.08501
1.08497
1.08494
1.08491
1.08489
1.08488
1.08487
1.08487
1.08488
1.08489
1.0849
1.08492
1.08495
1.08498
1.08501
1.08505
1.08509
1.08514
1.08519
1.08524
1.0853
1.08535
1.08541
1.08547
1.08553
1.0856
1.08566
1.08572
1.08579
1.08585
1.08591
1.08597
1.08603
1.08609
1.08614
1.08619
1.08624
1.08628
1.08632
1.08636
1.08639
1.08641
1.08643
1.08644
1.08645
1.08645
1.08645
1.08644
1.08643
1.08642
1.0864
1.08638
1.08635
1.08633
1.0863
1.08628
1.08626
1.08624
1.08623
1.08622
1.08621
1.08621
1.08621
1.08623
1.08624
1.08627
1.08629
1.08633
1.08636
1.0864
1.08643
1.08646
1.08648
1.08649
1.08649
1.08646
1.0864
1.08631
1.08618
1.08599
1.08576
1.08547
1.08511
1.08468
1.08419
1.08363
1.08301
1.08232
1.08158
1.08078
1.07995
1.07909
1.0782
1.0773
1.0764
1.07551
1.07464
1.0738
1.07299
1.07223
1.07153
1.07089
1.07031
1.06981
1.06938
1.06902
1.06874
1.06853
1.06838
1.0683
1.06827
1.06828
1.06833
1.06842
1.06854
1.06868
1.06883
1.06901
1.0692
1.0694
1.06962
1.06985
1.07009
1.07035
1.07062
1.0709
1.0712
1.07152
1.07185
1.0722
1.07257
1.07296
1.07336
1.07378
1.07422
1.07468
1.07515
1.07563
1.07613
1.07665
1.07718
1.07773
1.07829
1.07886
1.07945
1.08005
1.08066
1.08129
1.08193
1.08259
1.08325
1.08392
1.08459
1.08527
1.08595
1.08662
1.08729
1.08796
1.08861
1.08924
1.08986
1.09046
1.09103
1.09158
1.0921
1.09259
1.09304
1.09346
1.09384
1.09418
1.09448
1.09472
1.09492
1.09507
1.09515
1.09518
1.09515
1.09505
1.09489
1.09467
1.09438
1.09403
1.09361
1.09314
1.0926
1.09202
1.09138
1.0907
1.08998
1.08922
1.08843
1.0876
1.08675
1.08588
1.08498
1.08406
1.08312
1.08216
1.08117
1.08017
1.07916
1.07812
1.07708
1.07603
1.07498
1.07393
1.07289
1.07186
1.07086
1.06989
1.06895
1.07499
1.07503
1.07508
1.07512
1.07517
1.07523
1.07529
1.07536
1.07543
1.07551
1.07559
1.07568
1.07577
1.07587
1.07597
1.07608
1.07619
1.07631
1.07643
1.07655
1.07668
1.07682
1.07696
1.0771
1.07724
1.07739
1.07755
1.0777
1.07787
1.07803
1.0782
1.07837
1.07855
1.07873
1.07891
1.0791
1.07929
1.07949
1.07969
1.07989
1.0801
1.08031
1.08052
1.08073
1.08095
1.08118
1.0814
1.08163
1.08186
1.0821
1.08234
1.08258
1.08282
1.08307
1.08333
1.08359
1.08385
1.08412
1.0844
1.08468
1.08497
1.08526
1.08556
1.08587
1.08619
1.08651
1.08684
1.08718
1.08753
1.08789
1.08825
1.08863
1.08901
1.0894
1.0898
1.09021
1.09062
1.09104
1.09146
1.09189
1.09233
1.09277
1.09321
1.09365
1.09408
1.09452
1.09495
1.09537
1.09578
1.09618
1.09656
1.09692
1.09726
1.09757
1.09785
1.09811
1.09833
1.09852
1.09867
1.09878
1.09887
1.09892
1.09893
1.09892
1.09888
1.09882
1.09873
1.09862
1.09849
1.09835
1.09819
1.09802
1.09784
1.09765
1.09746
1.09726
1.09705
1.09683
1.09662
1.09639
1.09617
1.09594
1.09571
1.09547
1.09524
1.095
1.09476
1.09452
1.09428
1.09404
1.09381
1.09357
1.09333
1.0931
1.09286
1.09263
1.0924
1.09218
1.09196
1.09174
1.09152
1.09131
1.0911
1.09089
1.09069
1.0905
1.0903
1.09012
1.08993
1.08975
1.08957
1.0894
1.08923
1.08907
1.0889
1.08875
1.08859
1.08844
1.08829
1.08814
1.088
1.08785
1.08771
1.08758
1.08744
1.08731
1.08718
1.08705
1.08693
1.08681
1.08669
1.08657
1.08645
1.08634
1.08624
1.08613
1.08603
1.08593
1.08583
1.08574
1.08566
1.08557
1.08549
1.08542
1.08535
1.08529
1.08523
1.08517
1.08513
1.08508
1.08505
1.08502
1.08499
1.08497
1.08496
1.08495
1.08495
1.08496
1.08497
1.08498
1.085
1.08503
1.08506
1.08509
1.08513
1.08517
1.08521
1.08526
1.08531
1.08537
1.08542
1.08548
1.08554
1.0856
1.08566
1.08572
1.08578
1.08585
1.08591
1.08596
1.08602
1.08608
1.08613
1.08618
1.08623
1.08628
1.08632
1.08635
1.08639
1.08641
1.08644
1.08645
1.08647
1.08647
1.08648
1.08647
1.08647
1.08646
1.08644
1.08643
1.08641
1.08639
1.08637
1.08635
1.08633
1.08631
1.08629
1.08628
1.08627
1.08626
1.08626
1.08627
1.08628
1.0863
1.08632
1.08634
1.08637
1.08641
1.08644
1.08647
1.0865
1.08652
1.08652
1.08651
1.08648
1.08642
1.08632
1.08619
1.086
1.08576
1.08546
1.0851
1.08467
1.08417
1.0836
1.08297
1.08227
1.08152
1.08072
1.07988
1.07901
1.07812
1.07722
1.07632
1.07544
1.07457
1.07373
1.07293
1.07219
1.07149
1.07087
1.07031
1.06982
1.06941
1.06907
1.0688
1.0686
1.06847
1.06839
1.06836
1.06838
1.06843
1.06852
1.06863
1.06877
1.06892
1.06909
1.06928
1.06948
1.0697
1.06993
1.07017
1.07042
1.07069
1.07098
1.07128
1.07159
1.07192
1.07227
1.07264
1.07302
1.07342
1.07384
1.07427
1.07472
1.07519
1.07567
1.07617
1.07669
1.07722
1.07777
1.07833
1.0789
1.0795
1.0801
1.08073
1.08136
1.082
1.08266
1.08332
1.08399
1.08466
1.08534
1.08601
1.08668
1.08734
1.08799
1.08862
1.08923
1.08983
1.0904
1.09095
1.09146
1.09194
1.09239
1.0928
1.09317
1.0935
1.09378
1.09402
1.0942
1.09433
1.0944
1.09441
1.09436
1.09426
1.09409
1.09386
1.09357
1.09322
1.09282
1.09237
1.09186
1.09132
1.09073
1.09011
1.08946
1.08878
1.08809
1.08737
1.08664
1.08589
1.08513
1.08436
1.08357
1.08276
1.08194
1.0811
1.08024
1.07936
1.07845
1.07753
1.07659
1.07563
1.07466
1.07368
1.07271
1.07174
1.07078
1.06984
1.07508
1.07512
1.07516
1.07521
1.07526
1.07531
1.07537
1.07544
1.07551
1.07558
1.07566
1.07575
1.07584
1.07594
1.07604
1.07614
1.07626
1.07637
1.07649
1.07662
1.07674
1.07688
1.07701
1.07716
1.0773
1.07745
1.0776
1.07776
1.07792
1.07809
1.07825
1.07843
1.0786
1.07878
1.07896
1.07915
1.07934
1.07954
1.07974
1.07994
1.08014
1.08035
1.08056
1.08077
1.08099
1.08121
1.08144
1.08166
1.08189
1.08212
1.08236
1.0826
1.08285
1.08309
1.08335
1.0836
1.08387
1.08413
1.08441
1.08469
1.08497
1.08526
1.08556
1.08587
1.08618
1.0865
1.08683
1.08717
1.08752
1.08787
1.08823
1.08861
1.08898
1.08937
1.08977
1.09017
1.09058
1.09099
1.09141
1.09184
1.09227
1.0927
1.09314
1.09357
1.09401
1.09444
1.09487
1.09529
1.0957
1.0961
1.09648
1.09685
1.09719
1.09751
1.0978
1.09806
1.09829
1.09848
1.09864
1.09876
1.09884
1.09889
1.09891
1.0989
1.09886
1.0988
1.09871
1.0986
1.09847
1.09833
1.09817
1.09801
1.09783
1.09764
1.09745
1.09725
1.09704
1.09683
1.09661
1.09639
1.09617
1.09594
1.09571
1.09548
1.09524
1.09501
1.09477
1.09453
1.09429
1.09406
1.09382
1.09358
1.09335
1.09311
1.09288
1.09265
1.09243
1.0922
1.09198
1.09177
1.09155
1.09134
1.09114
1.09093
1.09074
1.09054
1.09035
1.09017
1.08999
1.08981
1.08963
1.08946
1.0893
1.08913
1.08897
1.08882
1.08866
1.08851
1.08836
1.08821
1.08807
1.08793
1.08779
1.08765
1.08752
1.08739
1.08726
1.08713
1.08701
1.08688
1.08676
1.08665
1.08653
1.08642
1.08631
1.08621
1.08611
1.08601
1.08591
1.08582
1.08573
1.08565
1.08557
1.0855
1.08543
1.08537
1.08531
1.08526
1.08521
1.08517
1.08513
1.0851
1.08508
1.08506
1.08505
1.08504
1.08504
1.08504
1.08505
1.08507
1.08509
1.08511
1.08514
1.08518
1.08521
1.08525
1.0853
1.08535
1.0854
1.08545
1.0855
1.08556
1.08561
1.08567
1.08573
1.08579
1.08585
1.08591
1.08596
1.08602
1.08608
1.08613
1.08618
1.08623
1.08627
1.08632
1.08635
1.08639
1.08642
1.08644
1.08646
1.08648
1.08649
1.0865
1.0865
1.0865
1.0865
1.08649
1.08648
1.08646
1.08645
1.08643
1.08641
1.08639
1.08637
1.08636
1.08634
1.08633
1.08633
1.08632
1.08632
1.08633
1.08634
1.08636
1.08638
1.0864
1.08643
1.08646
1.08649
1.08652
1.08654
1.08656
1.08656
1.08655
1.08651
1.08644
1.08634
1.0862
1.08601
1.08577
1.08546
1.08509
1.08465
1.08415
1.08357
1.08293
1.08223
1.08147
1.08066
1.07982
1.07894
1.07805
1.07714
1.07624
1.07536
1.07449
1.07366
1.07287
1.07214
1.07146
1.07085
1.07031
1.06984
1.06944
1.06912
1.06887
1.06868
1.06856
1.06849
1.06846
1.06848
1.06854
1.06862
1.06873
1.06887
1.06902
1.06919
1.06937
1.06957
1.06978
1.07001
1.07025
1.0705
1.07077
1.07106
1.07136
1.07167
1.072
1.07235
1.07271
1.07309
1.07348
1.0739
1.07433
1.07477
1.07524
1.07572
1.07621
1.07673
1.07726
1.07781
1.07838
1.07896
1.07956
1.08017
1.0808
1.08143
1.08208
1.08274
1.08341
1.08408
1.08475
1.08541
1.08608
1.08673
1.08738
1.08801
1.08862
1.08921
1.08978
1.09032
1.09083
1.0913
1.09174
1.09214
1.0925
1.09282
1.09308
1.0933
1.09346
1.09357
1.09362
1.09362
1.09355
1.09343
1.09325
1.09301
1.09271
1.09236
1.09197
1.09152
1.09104
1.09052
1.08997
1.08939
1.0888
1.08819
1.08757
1.08694
1.08631
1.08567
1.08503
1.08438
1.08373
1.08307
1.0824
1.08171
1.081
1.08027
1.07952
1.07875
1.07794
1.07711
1.07625
1.07537
1.07447
1.07355
1.07262
1.07169
1.07076
1.07517
1.07521
1.07525
1.0753
1.07535
1.0754
1.07546
1.07553
1.0756
1.07567
1.07575
1.07583
1.07592
1.07602
1.07612
1.07622
1.07633
1.07645
1.07656
1.07669
1.07682
1.07695
1.07708
1.07723
1.07737
1.07752
1.07767
1.07783
1.07799
1.07815
1.07832
1.07849
1.07866
1.07884
1.07902
1.07921
1.0794
1.07959
1.07979
1.07999
1.08019
1.0804
1.08061
1.08082
1.08103
1.08125
1.08147
1.0817
1.08193
1.08216
1.08239
1.08263
1.08287
1.08311
1.08336
1.08362
1.08388
1.08414
1.08441
1.08469
1.08497
1.08526
1.08556
1.08586
1.08617
1.08649
1.08682
1.08715
1.08749
1.08785
1.0882
1.08857
1.08895
1.08933
1.08972
1.09011
1.09052
1.09093
1.09134
1.09176
1.09219
1.09261
1.09305
1.09348
1.09391
1.09434
1.09476
1.09518
1.0956
1.096
1.09638
1.09675
1.0971
1.09743
1.09772
1.09799
1.09822
1.09842
1.09858
1.09871
1.0988
1.09886
1.09888
1.09887
1.09883
1.09876
1.09868
1.09857
1.09844
1.0983
1.09815
1.09798
1.0978
1.09762
1.09743
1.09723
1.09703
1.09682
1.0966
1.09639
1.09616
1.09594
1.09571
1.09548
1.09525
1.09501
1.09478
1.09454
1.0943
1.09407
1.09383
1.0936
1.09336
1.09313
1.0929
1.09267
1.09245
1.09223
1.09201
1.0918
1.09159
1.09138
1.09118
1.09098
1.09078
1.09059
1.09041
1.09022
1.09004
1.08987
1.0897
1.08953
1.08937
1.08921
1.08905
1.08889
1.08874
1.08859
1.08844
1.0883
1.08816
1.08802
1.08788
1.08774
1.08761
1.08748
1.08735
1.08722
1.0871
1.08698
1.08686
1.08674
1.08662
1.08651
1.0864
1.0863
1.0862
1.0861
1.086
1.08591