# vtk DataFile Version 2.0
LBE two cylinders
ASCII
DATASET STRUCTURED_POINTS
DIMENSIONS 400 100 1
ASPECT_RATIO 1 1 1
ORIGIN 0 0 0
POINT_DATA 40000
SCALARS rho double 1
LOOKUP_TABLE default
1.0556
1.05737
1.05968
1.06247
1.06563
1.06913
1.07294
1.07701
1.08128
1.08568
1.09015
1.09461
1.09898
1.10319
1.10718
1.1109
1.11429
1.11733
1.11999
1.12226
1.12414
1.12564
1.12676
1.12754
1.12799
1.12814
1.12803
1.12768
1.12712
1.12638
1.12549
1.12447
1.12336
1.12217
1.12094
1.11967
1.11839
1.11711
1.11586
1.11463
1.11345
1.11232
1.11126
1.11026
1.10934
1.1085
1.10776
1.10711
1.10658
1.10616
1.10588
1.10576
1.10583
1.1061
1.10658
1.1073
1.10822
1.10933
1.11058
1.1119
1.11324
1.11454
1.11574
1.1168
1.11771
1.11846
1.11907
1.11955
1.11993
1.12026
1.12056
1.12085
1.12116
1.1215
1.12188
1.1223
1.12275
1.12324
1.12376
1.1243
1.12485
1.1254
1.12595
1.12649
1.12702
1.12752
1.12801
1.12846
1.12889
1.12929
1.12966
1.12999
1.13029
1.13056
1.13079
1.13099
1.13115
1.13127
1.13136
1.13141
1.13143
1.1314
1.13134
1.13124
1.1311
1.13093
1.13072
1.13048
1.1302
1.12989
1.12954
1.12916
1.12875
1.12831
1.12784
1.12735
1.12683
1.1263
1.12575
1.12519
1.12463
1.12407
1.12353
1.123
1.12251
1.12206
1.12166
1.12131
1.12103
1.12081
1.12066
1.12057
1.12056
1.12061
1.12073
1.1209
1.12112
1.1214
1.12172
1.12207
1.12247
1.12289
1.12334
1.12383
1.12433
1.12487
1.12543
1.12603
1.12665
1.12731
1.12801
1.12875
1.12953
1.13036
1.13125
1.13219
1.13318
1.13424
1.13535
1.13652
1.13774
1.13901
1.14031
1.14164
1.14299
1.14434
1.14567
1.14696
1.1482
1.14937
1.15042
1.15136
1.15214
1.15274
1.15314
1.15331
1.15322
1.15283
1.15214
1.15111
1.14973
1.14797
1.14584
1.14333
1.14045
1.13721
1.13364
1.12978
1.12568
1.1214
1.117
1.11255
1.10814
1.10382
1.09968
1.09578
1.09215
1.08885
1.08589
1.08328
1.08103
1.07911
1.07751
1.07621
1.07518
1.07438
1.07378
1.07336
1.07308
1.07293
1.07289
1.07292
1.07302
1.07317
1.07337
1.0736
1.07386
1.07413
1.07443
1.07474
1.07506
1.07539
1.07573
1.07608
1.07644
1.0768
1.07717
1.07755
1.07794
1.07834
1.07874
1.07915
1.07958
1.08001
1.08045
1.0809
1.08137
1.08184
1.08232
1.08281
1.08331
1.08382
1.08433
1.08485
1.08538
1.08592
1.08647
1.08704
1.08762
1.08822
1.08885
1.08951
1.09019
1.09089
1.0916
1.09231
1.09299
1.09358
1.09399
1.09407
1.09357
1.09219
1.08955
1.08529
1.07917
1.0712
1.06169
1.05131
1.04087
1.03118
1.02282
1.01608
1.01094
1.00721
1.00462
1.00288
1.00175
1.00104
1.00061
1.00034
1.00019
1.0001
1.00006
1.00003
1.00001
1.00001
1
1
1
1
1
1
1
1
1
1
1
1
1
1
1
1
1
1
1
1
1
1
1
1
1
1
1
1
1
1
1
1
1
1
1
1
1
1
1
1
1
1
1
1
1
1
1
1
1
1
1
1
1
1
1
1
1
1
1
1
1
1
1
1
1
1
1
1
1
1
1
1
1
1
1
1
1
1
1
1
1
1
1
1
1
1
1
1
1
1
1
1
1
1
1
1
1
1
1
1
1
1
1
1
1
1
1
1
1
1
1
1
1
1
1.05668
1.05869
1.06113
1.06394
1.06706
1.07049
1.07416
1.07803
1.08204
1.08615
1.09028
1.09439
1.09841
1.10229
1.10599
1.10946
1.11266
1.11556
1.11815
1.1204
1.1223
1.12386
1.12508
1.12598
1.12656
1.12685
1.12687
1.12666
1.12623
1.12561
1.12484
1.12393
1.12292
1.12182
1.12067
1.11948
1.11826
1.11705
1.11585
1.11467
1.11352
1.11243
1.11139
1.11041
1.1095
1.10867
1.10794
1.10729
1.10676
1.10634
1.10606
1.10594
1.106
1.10625
1.10671
1.10739
1.10827
1.10933
1.11053
1.11181
1.11312
1.11439
1.11558
1.11665
1.11758
1.11836
1.11899
1.1195
1.11992
1.12027
1.12058
1.12088
1.1212
1.12153
1.1219
1.12231
1.12275
1.12322
1.12372
1.12424
1.12477
1.12531
1.12584
1.12637
1.12688
1.12738
1.12786
1.12831
1.12873
1.12913
1.12949
1.12983
1.13013
1.1304
1.13063
1.13083
1.13099
1.13111
1.1312
1.13125
1.13126
1.13124
1.13118
1.13108
1.13094
1.13077
1.13056
1.13031
1.13004
1.12972
1.12938
1.129
1.12859
1.12815
1.12769
1.1272
1.1267
1.12617
1.12563
1.12509
1.12455
1.12401
1.12349
1.12298
1.12251
1.12208
1.12169
1.12136
1.12108
1.12087
1.12072
1.12064
1.12062
1.12067
1.12078
1.12094
1.12117
1.12144
1.12175
1.1221
1.1225
1.12292
1.12338
1.12386
1.12437
1.12492
1.12549
1.12609
1.12672
1.12739
1.1281
1.12885
1.12964
1.13048
1.13136
1.1323
1.1333
1.13434
1.13544
1.13658
1.13778
1.13901
1.14027
1.14155
1.14284
1.14413
1.14539
1.14661
1.14776
1.14883
1.14979
1.15062
1.15129
1.15177
1.15204
1.15207
1.15184
1.15133
1.15052
1.14938
1.14791
1.14611
1.14397
1.14151
1.13873
1.13565
1.1323
1.12871
1.12493
1.12099
1.11694
1.11285
1.10876
1.10473
1.10082
1.09709
1.09357
1.09031
1.08735
1.08469
1.08234
1.08032
1.07859
1.07716
1.07599
1.07507
1.07435
1.07383
1.07346
1.07324
1.07312
1.0731
1.07316
1.07327
1.07344
1.07365
1.07389
1.07415
1.07444
1.07474
1.07506
1.07538
1.07572
1.07607
1.07642
1.07678
1.07715
1.07753
1.07792
1.07831
1.07871
1.07912
1.07954
1.07998
1.08042
1.08087
1.08133
1.0818
1.08227
1.08276
1.08326
1.08376
1.08427
1.08478
1.08531
1.08584
1.08639
1.08695
1.08753
1.08812
1.08874
1.08938
1.09004
1.09071
1.09139
1.09205
1.09266
1.09316
1.09345
1.09334
1.09264
1.09106
1.08832
1.08415
1.07835
1.07092
1.06207
1.05229
1.04227
1.03275
1.02434
1.0174
1.01199
1.008
1.00518
1.00327
1.00201
1.0012
1.00071
1.0004
1.00023
1.00012
1.00007
1.00004
1.00002
1.00001
1
1
1
1
1
1
1
1
1
1
1
1
1
1
1
1
1
1
1
1
1
1
1
1
1
1
1
1
1
1
1
1
1
1
1
1
1
1
1
1
1
1
1
1
1
1
1
1
1
1
1
1
1
1
1
1
1
1
1
1
1
1
1
1
1
1
1
1
1
1
1
1
1
1
1
1
1
1
1
1
1
1
1
1
1
1
1
1
1
1
1
1
1
1
1
1
1
1
1
1
1
1
1
1
1
1
1
1
1
1
1
1
1
1
1.05865
1.06091
1.06346
1.06627
1.06932
1.07258
1.07599
1.07951
1.08309
1.08671
1.09031
1.09386
1.09734
1.10072
1.10396
1.10704
1.10993
1.11262
1.11507
1.11728
1.11921
1.12086
1.12222
1.1233
1.12408
1.1246
1.12485
1.12487
1.12466
1.12426
1.12368
1.12297
1.12213
1.1212
1.12019
1.11913
1.11804
1.11693
1.11582
1.11472
1.11364
1.1126
1.1116
1.11065
1.10977
1.10895
1.10822
1.10758
1.10704
1.10662
1.10633
1.10619
1.10623
1.10645
1.10687
1.10751
1.10834
1.10935
1.1105
1.11175
1.11303
1.1143
1.11549
1.11657
1.11752
1.11832
1.11898
1.11952
1.11995
1.12032
1.12064
1.12095
1.12125
1.12158
1.12193
1.12231
1.12273
1.12317
1.12364
1.12413
1.12463
1.12514
1.12565
1.12616
1.12666
1.12715
1.12761
1.12806
1.12848
1.12888
1.12924
1.12958
1.12988
1.13015
1.13039
1.13059
1.13075
1.13088
1.13097
1.13102
1.13103
1.13101
1.13094
1.13084
1.1307
1.13053
1.13032
1.13007
1.12979
1.12947
1.12912
1.12874
1.12834
1.1279
1.12745
1.12697
1.12647
1.12596
1.12544
1.12492
1.1244
1.12389
1.1234
1.12293
1.12249
1.12208
1.12172
1.12141
1.12115
1.12094
1.1208
1.12072
1.12071
1.12075
1.12086
1.12102
1.12124
1.1215
1.12182
1.12217
1.12256
1.12299
1.12345
1.12394
1.12447
1.12502
1.1256
1.12622
1.12687
1.12756
1.12828
1.12904
1.12985
1.13069
1.13158
1.13252
1.1335
1.13453
1.1356
1.13671
1.13785
1.13902
1.14021
1.1414
1.1426
1.14377
1.1449
1.14598
1.14698
1.14789
1.14867
1.14931
1.14977
1.15004
1.15009
1.1499
1.14944
1.14872
1.14771
1.14641
1.14482
1.14296
1.14083
1.13845
1.13584
1.13302
1.13002
1.12686
1.12356
1.12016
1.11668
1.11314
1.10958
1.10603
1.10252
1.0991
1.0958
1.09267
1.08973
1.08702
1.08457
1.08238
1.08047
1.07882
1.07744
1.07631
1.0754
1.07469
1.07417
1.0738
1.07357
1.07345
1.07342
1.07348
1.07359
1.07376
1.07396
1.0742
1.07447
1.07476
1.07506
1.07538
1.07571
1.07605
1.07641
1.07677
1.07713
1.07751
1.07789
1.07828
1.07869
1.07909
1.07951
1.07994
1.08038
1.08083
1.08128
1.08175
1.08222
1.08271
1.0832
1.08369
1.0842
1.08471
1.08523
1.08576
1.0863
1.08685
1.08742
1.088
1.0886
1.08922
1.08985
1.09049
1.09112
1.09173
1.09228
1.09269
1.09286
1.09263
1.0918
1.09014
1.08739
1.08335
1.07785
1.07085
1.0625
1.05318
1.04349
1.03411
1.02566
1.01855
1.01292
1.0087
1.00569
1.00361
1.00224
1.00135
1.0008
1.00046
1.00026
1.00014
1.00008
1.00004
1.00002
1.00001
1.00001
1
1
1
1
1
1
1
1
1
1
1
1
1
1
1
1
1
1
1
1
1
1
1
1
1
1
1
1
1
1
1
1
1
1
1
1
1
1
1
1
1
1
1
1
1
1
1
1
1
1
1
1
1
1
1
1
1
1
1
1
1
1
1
1
1
1
1
1
1
1
1
1
1
1
1
1
1
1
1
1
1
1
1
1
1
1
1
1
1
1
1
1
1
1
1
1
1
1
1
1
1
1
1
1
1
1
1
1
1
1
1
1
1
1.06143
1.06385
1.06646
1.06923
1.07213
1.07511
1.07814
1.08119
1.08422
1.08722
1.09017
1.09306
1.0959
1.09866
1.10136
1.10397
1.10648
1.10887
1.11113
1.11323
1.11515
1.11687
1.11836
1.11963
1.12065
1.12143
1.12197
1.12227
1.12236
1.12225
1.12196
1.1215
1.12092
1.12022
1.11942
1.11856
1.11764
1.11668
1.1157
1.11472
1.11374
1.11278
1.11184
1.11094
1.11009
1.1093
1.10858
1.10794
1.1074
1.10697
1.10667
1.10652
1.10653
1.10672
1.1071
1.10769
1.10848
1.10944
1.11055
1.11176
1.11302
1.11426
1.11545
1.11655
1.11751
1.11833
1.11901
1.11957
1.12003
1.1204
1.12073
1.12103
1.12132
1.12163
1.12195
1.1223
1.12268
1.12308
1.12351
1.12396
1.12443
1.12491
1.12539
1.12587
1.12635
1.12682
1.12728
1.12772
1.12814
1.12854
1.12891
1.12925
1.12956
1.12984
1.13008
1.13028
1.13045
1.13058
1.13068
1.13073
1.13074
1.13072
1.13065
1.13055
1.1304
1.13022
1.13
1.12975
1.12946
1.12914
1.12878
1.1284
1.12799
1.12756
1.12711
1.12664
1.12616
1.12567
1.12518
1.12469
1.1242
1.12373
1.12327
1.12284
1.12244
1.12207
1.12174
1.12146
1.12122
1.12104
1.12091
1.12084
1.12083
1.12087
1.12098
1.12113
1.12135
1.12161
1.12192
1.12227
1.12267
1.1231
1.12357
1.12408
1.12461
1.12518
1.12579
1.12642
1.12709
1.1278
1.12854
1.12932
1.13014
1.13099
1.13188
1.13281
1.13378
1.13477
1.1358
1.13685
1.13791
1.13899
1.14007
1.14113
1.14218
1.14318
1.14413
1.14501
1.14579
1.14645
1.14698
1.14734
1.14753
1.1475
1.14726
1.14678
1.14606
1.14508
1.14386
1.1424
1.14072
1.13883
1.13676
1.13452
1.13216
1.12969
1.12712
1.12448
1.12178
1.11902
1.1162
1.11334
1.11043
1.10748
1.1045
1.10152
1.09855
1.09564
1.09281
1.0901
1.08756
1.08521
1.08309
1.08119
1.07954
1.07813
1.07696
1.076
1.07525
1.07469
1.07428
1.07401
1.07386
1.07381
1.07384
1.07395
1.0741
1.0743
1.07454
1.0748
1.07509
1.07539
1.07572
1.07605
1.0764
1.07675
1.07712
1.07749
1.07787
1.07826
1.07866
1.07907
1.07948
1.07991
1.08034
1.08079
1.08124
1.0817
1.08217
1.08265
1.08313
1.08363
1.08413
1.08463
1.08515
1.08567
1.08621
1.08675
1.08731
1.08788
1.08846
1.08906
1.08967
1.09028
1.09088
1.09145
1.09193
1.09227
1.09235
1.09202
1.09109
1.08934
1.08656
1.08257
1.07724
1.07055
1.06263
1.05378
1.04447
1.03532
1.02692
1.01971
1.01389
1.00946
1.00624
1.004
1.0025
1.00152
1.0009
1.00052
1.0003
1.00017
1.00009
1.00005
1.00002
1.00001
1.00001
1
1
1
1
1
1
1
1
1
1
1
1
1
1
1
1
1
1
1
1
1
1
1
1
1
1
1
1
1
1
1
1
1
1
1
1
1
1
1
1
1
1
1
1
1
1
1
1
1
1
1
1
1
1
1
1
1
1
1
1
1
1
1
1
1
1
1
1
1
1
1
1
1
1
1
1
1
1
1
1
1
1
1
1
1
1
1
1
1
1
1
1
1
1
1
1
1
1
1
1
1
1
1
1
1
1
1
1
1
1
1
1
1
1.06479
1.0673
1.06988
1.07252
1.07515
1.07777
1.08033
1.08283
1.08525
1.0876
1.08988
1.09211
1.09429
1.09644
1.09857
1.10067
1.10275
1.10479
1.10677
1.10869
1.11051
1.11221
1.11377
1.11517
1.11639
1.11741
1.11823
1.11885
1.11926
1.11948
1.11952
1.1194
1.11913
1.11872
1.11821
1.1176
1.11691
1.11616
1.11537
1.11455
1.11371
1.11286
1.11202
1.11119
1.1104
1.10965
1.10896
1.10834
1.10781
1.10738
1.10708
1.10692
1.10691
1.10707
1.10742
1.10797
1.1087
1.10961
1.11067
1.11183
1.11306
1.11429
1.11547
1.11656
1.11754
1.11838
1.11908
1.11966
1.12013
1.12051
1.12084
1.12113
1.1214
1.12168
1.12197
1.12228
1.12261
1.12297
1.12335
1.12375
1.12417
1.12461
1.12505
1.1255
1.12596
1.1264
1.12685
1.12727
1.12769
1.12808
1.12845
1.12879
1.12911
1.12939
1.12964
1.12985
1.13002
1.13016
1.13026
1.13031
1.13032
1.1303
1.13023
1.13012
1.12997
1.12978
1.12956
1.1293
1.129
1.12868
1.12832
1.12794
1.12753
1.12711
1.12667
1.12622
1.12576
1.1253
1.12484
1.12439
1.12394
1.12352
1.12311
1.12272
1.12237
1.12205
1.12176
1.12151
1.1213
1.12115
1.12104
1.12098
1.12097
1.12102
1.12113
1.12128
1.1215
1.12176
1.12207
1.12243
1.12283
1.12327
1.12375
1.12427
1.12482
1.12541
1.12603
1.12669
1.12738
1.12811
1.12887
1.12966
1.13048
1.13133
1.13221
1.13312
1.13405
1.13499
1.13594
1.1369
1.13786
1.1388
1.13972
1.1406
1.14144
1.14222
1.14292
1.14352
1.14401
1.14436
1.14457
1.1446
1.14445
1.1441
1.14354
1.14276
1.14178
1.14059
1.13921
1.13766
1.13596
1.13413
1.13221
1.13022
1.12818
1.12611
1.12403
1.12193
1.11984
1.11772
1.11559
1.11341
1.11118
1.10887
1.10648
1.10402
1.10148
1.09888
1.09626
1.09365
1.0911
1.08864
1.08633
1.08419
1.08225
1.08054
1.07905
1.07779
1.07676
1.07593
1.07529
1.07483
1.07451
1.07432
1.07423
1.07424
1.07432
1.07446
1.07465
1.07488
1.07514
1.07543
1.07573
1.07606
1.07639
1.07674
1.0771
1.07747
1.07785
1.07824
1.07864
1.07904
1.07946
1.07988
1.08031
1.08075
1.0812
1.08166
1.08213
1.0826
1.08308
1.08357
1.08406
1.08457
1.08508
1.0856
1.08613
1.08666
1.08721
1.08778
1.08835
1.08893
1.08952
1.0901
1.09067
1.09119
1.09162
1.09188
1.09186
1.09141
1.09034
1.08847
1.08562
1.08165
1.07649
1.07012
1.06263
1.05424
1.04535
1.03647
1.02816
1.02089
1.01491
1.01026
1.00684
1.00442
1.00278
1.00171
1.00102
1.0006
1.00034
1.00019
1.0001
1.00006
1.00003
1.00001
1.00001
1
1
1
1
1
1
1
1
1
1
1
1
1
1
1
1
1
1
1
1
1
1
1
1
1
1
1
1
1
1
1
1
1
1
1
1
1
1
1
1
1
1
1
1
1
1
1
1
1
1
1
1
1
1
1
1
1
1
1
1
1
1
1
1
1
1
1
1
1
1
1
1
1
1
1
1
1
1
1
1
1
1
1
1
1
1
1
1
1
1
1
1
1
1
1
1
1
1
1
1
1
1
1
1
1
1
1
1
1
1
1
1
1
1.06846
1.07095
1.07341
1.07579
1.07808
1.08025
1.08231
1.08424
1.08607
1.08781
1.08947
1.09109
1.09269
1.09428
1.09587
1.09748
1.09912
1.10076
1.10242
1.10407
1.1057
1.10728
1.1088
1.11023
1.11155
1.11273
1.11378
1.11466
1.11538
1.11593
1.11632
1.11655
1.11663
1.11657
1.11638
1.11608
1.11568
1.1152
1.11465
1.11404
1.11338
1.1127
1.11199
1.11128
1.11058
1.10991
1.10927
1.1087
1.1082
1.10781
1.10752
1.10736
1.10734
1.10749
1.10781
1.10831
1.10899
1.10984
1.11085
1.11197
1.11315
1.11436
1.11553
1.11662
1.11761
1.11847
1.11919
1.11978
1.12026
1.12064
1.12096
1.12124
1.12149
1.12174
1.12199
1.12225
1.12254
1.12284
1.12317
1.12351
1.12388
1.12426
1.12466
1.12507
1.12549
1.12591
1.12632
1.12673
1.12713
1.12752
1.12789
1.12823
1.12855
1.12883
1.12909
1.12931
1.12949
1.12963
1.12973
1.12979
1.1298
1.12977
1.1297
1.12959
1.12943
1.12924
1.12901
1.12874
1.12844
1.12811
1.12775
1.12737
1.12698
1.12656
1.12614
1.12571
1.12529
1.12486
1.12444
1.12404
1.12364
1.12327
1.12292
1.12259
1.12229
1.12201
1.12177
1.12157
1.1214
1.12127
1.12118
1.12114
1.12115
1.1212
1.12131
1.12147
1.12168
1.12195
1.12226
1.12262
1.12303
1.12349
1.12398
1.12451
1.12508
1.12569
1.12633
1.12701
1.12771
1.12845
1.12921
1.13
1.13081
1.13164
1.13249
1.13334
1.1342
1.13506
1.1359
1.13673
1.13752
1.13828
1.13899
1.13964
1.14021
1.1407
1.14109
1.14136
1.1415
1.1415
1.14135
1.14103
1.14053
1.13986
1.13902
1.13801
1.13684
1.13552
1.13409
1.13256
1.13096
1.12931
1.12764
1.12596
1.1243
1.12266
1.12106
1.1195
1.11796
1.11643
1.11491
1.11335
1.11174
1.11005
1.10825
1.10632
1.10426
1.10207
1.09976
1.09736
1.09491
1.09244
1.09003
1.0877
1.08551
1.0835
1.08168
1.0801
1.07873
1.0776
1.07668
1.07596
1.07542
1.07504
1.0748
1.07467
1.07465
1.07471
1.07483
1.07501
1.07523
1.07549
1.07577
1.07608
1.0764
1.07675
1.0771
1.07746
1.07784
1.07822
1.07862
1.07902
1.07943
1.07986
1.08028
1.08072
1.08117
1.08162
1.08209
1.08256
1.08303
1.08352
1.08401
1.08451
1.08502
1.08553
1.08606
1.08659
1.08713
1.08768
1.08824
1.08881
1.08937
1.08993
1.09046
1.09093
1.09129
1.09147
1.09135
1.09077
1.08957
1.08757
1.08465
1.08069
1.07565
1.06956
1.06248
1.05456
1.04611
1.03755
1.02939
1.02209
1.01596
1.01112
1.00748
1.00488
1.0031
1.00191
1.00115
1.00068
1.00039
1.00022
1.00012
1.00006
1.00003
1.00002
1.00001
1
1
1
1
1
1
1
1
1
1
1
1
1
1
1
1
1
1
1
1
1
1
1
1
1
1
1
1
1
1
1
1
1
1
1
1
1
1
1
1
1
1
1
1
1
1
1
1
1
1
1
1
1
1
1
1
1
1
1
1
1
1
1
1
1
1
1
1
1
1
1
1
1
1
1
1
1
1
1
1
1
1
1
1
1
1
1
1
1
1
1
1
1
1
1
1
1
1
1
1
1
1
1
1
1
1
1
1
1
1
1
1
1
1.07217
1.07453
1.07674
1.07879
1.08067
1.08238
1.08393
1.08534
1.08663
1.08784
1.08899
1.0901
1.0912
1.09231
1.09345
1.09461
1.09582
1.09708
1.09837
1.0997
1.10106
1.10243
1.10379
1.10514
1.10644
1.10768
1.10884
1.1099
1.11085
1.11168
1.11237
1.11294
1.11336
1.11366
1.11382
1.11387
1.1138
1.11363
1.11336
1.11301
1.1126
1.11212
1.1116
1.11106
1.11049
1.10994
1.1094
1.10891
1.10849
1.10815
1.1079
1.10777
1.10777
1.10791
1.10821
1.10868
1.10931
1.11012
1.11107
1.11214
1.11329
1.11446
1.11562
1.11671
1.1177
1.11857
1.11931
1.11991
1.1204
1.12078
1.12109
1.12135
1.12158
1.12179
1.122
1.12221
1.12244
1.12268
1.12295
1.12324
1.12354
1.12387
1.12421
1.12457
1.12493
1.12531
1.12569
1.12607
1.12645
1.12681
1.12716
1.1275
1.12781
1.12809
1.12835
1.12856
1.12875
1.12889
1.12899
1.12905
1.12906
1.12904
1.12896
1.12885
1.12869
1.12849
1.12826
1.12799
1.1277
1.12737
1.12703
1.12666
1.12628
1.1259
1.12551
1.12512
1.12473
1.12435
1.12399
1.12363
1.1233
1.12299
1.1227
1.12243
1.12218
1.12197
1.12178
1.12162
1.12149
1.12139
1.12133
1.12131
1.12134
1.1214
1.12152
1.12169
1.1219
1.12217
1.12249
1.12286
1.12328
1.12374
1.12424
1.12479
1.12537
1.12599
1.12664
1.12732
1.12802
1.12875
1.1295
1.13026
1.13103
1.13181
1.13258
1.13335
1.1341
1.13482
1.1355
1.13614
1.13673
1.13725
1.1377
1.13805
1.13831
1.13847
1.1385
1.13841
1.13819
1.13783
1.13732
1.13668
1.13589
1.13497
1.13393
1.13278
1.13154
1.13024
1.12888
1.12749
1.1261
1.12472
1.12337
1.12206
1.12079
1.11959
1.11843
1.11733
1.11627
1.11524
1.11422
1.11318
1.11209
1.11093
1.10966
1.10826
1.10669
1.10495
1.10303
1.10093
1.0987
1.09636
1.09396
1.09155
1.08919
1.08694
1.08483
1.08291
1.08121
1.07973
1.07849
1.07747
1.07665
1.07604
1.07559
1.0753
1.07513
1.07507
1.07511
1.07521
1.07538
1.07559
1.07584
1.07613
1.07643
1.07676
1.07711
1.07746
1.07783
1.07822
1.07861
1.07901
1.07942
1.07984
1.08026
1.0807
1.08114
1.08159
1.08205
1.08252
1.08299
1.08347
1.08396
1.08445
1.08496
1.08547
1.08599
1.08652
1.08705
1.08759
1.08814
1.08868
1.08922
1.08975
1.09024
1.09066
1.09096
1.09105
1.09081
1.09011
1.08877
1.08665
1.08363
1.07966
1.07474
1.06891
1.06221
1.05476
1.04677
1.03856
1.03059
1.0233
1.01705
1.01201
1.00817
1.00538
1.00344
1.00214
1.0013
1.00077
1.00044
1.00025
1.00014
1.00008
1.00004
1.00002
1.00001
1.00001
1
1
1
1
1
1
1
1
1
1
1
1
1
1
1
1
1
1
1
1
1
1
1
1
1
1
1
1
1
1
1
1
1
1
1
1
1
1
1
1
1
1
1
1
1
1
1
1
1
1
1
1
1
1
1
1
1
1
1
1
1
1
1
1
1
1
1
1
1
1
1
1
1
1
1
1
1
1
1
1
1
1
1
1
1
1
1
1
1
1
1
1
1
1
1
1
1
1
1
1
1
1
1
1
1
1
1
1
1
1
1
1
1.07565
1.07777
1.07966
1.08133
1.08278
1.08404
1.08514
1.08609
1.08695
1.08773
1.08847
1.08918
1.08989
1.09062
1.09137
1.09216
1.09299
1.09388
1.09481
1.0958
1.09685
1.09793
1.09906
1.10022
1.10139
1.10257
1.10372
1.10485
1.10592
1.10692
1.10784
1.10867
1.10939
1.11
1.1105
1.11088
1.11115
1.11131
1.11136
1.11131
1.11117
1.11096
1.11067
1.11034
1.10996
1.10957
1.10919
1.10883
1.10852
1.10827
1.10811
1.10805
1.10809
1.10826
1.10856
1.10901
1.10961
1.11037
1.11128
1.11231
1.11342
1.11457
1.11571
1.1168
1.1178
1.11868
1.11942
1.12004
1.12053
1.12092
1.12122
1.12145
1.12165
1.12182
1.12199
1.12215
1.12232
1.12251
1.12271
1.12293
1.12317
1.12343
1.1237
1.124
1.12431
1.12463
1.12497
1.1253
1.12564
1.12598
1.12631
1.12662
1.12692
1.12719
1.12743
1.12765
1.12783
1.12797
1.12807
1.12813
1.12814
1.12811
1.12804
1.12793
1.12777
1.12758
1.12735
1.12709
1.1268
1.12649
1.12617
1.12583
1.12548
1.12513
1.12478
1.12444
1.1241
1.12378
1.12348
1.12319
1.12292
1.12267
1.12245
1.12224
1.12206
1.1219
1.12176
1.12165
1.12157
1.12151
1.12148
1.12149
1.12153
1.12161
1.12174
1.12191
1.12213
1.12241
1.12273
1.1231
1.12352
1.12398
1.12449
1.12504
1.12562
1.12623
1.12687
1.12753
1.12822
1.12891
1.12961
1.13031
1.131
1.13168
1.13234
1.13297
1.13356
1.13409
1.13457
1.13497
1.1353
1.13553
1.13567
1.1357
1.13562
1.13543
1.13511
1.13467
1.1341
1.13343
1.13263
1.13174
1.13076
1.1297
1.12859
1.12743
1.12625
1.12507
1.1239
1.12276
1.12166
1.12061
1.11961
1.11867
1.1178
1.11698
1.11622
1.11551
1.11484
1.1142
1.11357
1.11293
1.11226
1.11153
1.11071
1.10975
1.10864
1.10735
1.10585
1.10414
1.10223
1.10013
1.09788
1.09552
1.09312
1.09073
1.0884
1.08621
1.08418
1.08236
1.08077
1.07941
1.07828
1.07738
1.07668
1.07616
1.07581
1.0756
1.07551
1.07552
1.07561
1.07576
1.07596
1.07621
1.07649
1.0768
1.07713
1.07748
1.07784
1.07821
1.0786
1.079
1.07941
1.07982
1.08025
1.08068
1.08112
1.08156
1.08202
1.08248
1.08295
1.08343
1.08391
1.0844
1.0849
1.08541
1.08592
1.08644
1.08697
1.0875
1.08803
1.08855
1.08907
1.08956
1.09001
1.09038
1.09061
1.09061
1.09027
1.08943
1.08794
1.08568
1.08257
1.07858
1.07376
1.06816
1.06183
1.05485
1.04732
1.0395
1.03175
1.02451
1.01817
1.01295
1.0089
1.00592
1.00382
1.00239
1.00146
1.00087
1.00051
1.00029
1.00016
1.00009
1.00005
1.00002
1.00001
1.00001
1
1
1
1
1
1
1
1
1
1
1
1
1
1
1
1
1
1
1
1
1
1
1
1
1
1
1
1
1
1
1
1
1
1
1
1
1
1
1
1
1
1
1
1
1
1
1
1
1
1
1
1
1
1
1
1
1
1
1
1
1
1
1
1
1
1
1
1
1
1
1
1
1
1
1
1
1
1
1
1
1
1
1
1
1
1
1
1
1
1
1
1
1
1
1
1
1
1
1
1
1
1
1
1
1
1
1
1
1
1
1
1
1.07869
1.08049
1.08202
1.0833
1.08436
1.08523
1.08595
1.08655
1.08706
1.08752
1.08795
1.08836
1.08878
1.0892
1.08965
1.09013
1.09065
1.0912
1.09181
1.09247
1.09319
1.09398
1.09483
1.09573
1.0967
1.09771
1.09875
1.09982
1.10089
1.10195
1.10298
1.10396
1.10489
1.10574
1.1065
1.10717
1.10774
1.10821
1.10857
1.10883
1.10899
1.10905
1.10904
1.10896
1.10882
1.10864
1.10846
1.10828
1.10813
1.10803
1.108
1.10804
1.10816
1.10839
1.10872
1.10918
1.10978
1.11052
1.1114
1.11239
1.11348
1.11461
1.11574
1.11683
1.11784
1.11873
1.11949
1.12012
1.12061
1.121
1.12129
1.1215
1.12167
1.12181
1.12192
1.12203
1.12215
1.12227
1.12241
1.12256
1.12273
1.12291
1.12312
1.12335
1.12359
1.12384
1.12411
1.12439
1.12468
1.12496
1.12525
1.12552
1.12579
1.12603
1.12626
1.12645
1.12662
1.12675
1.12684
1.1269
1.12691
1.12688
1.12682
1.12671
1.12656
1.12638
1.12617
1.12593
1.12568
1.1254
1.12511
1.12482
1.12452
1.12422
1.12393
1.12365
1.12338
1.12313
1.12289
1.12268
1.12248
1.1223
1.12214
1.122
1.12188
1.12178
1.1217
1.12164
1.1216
1.12158
1.12158
1.12162
1.12168
1.12178
1.12192
1.1221
1.12232
1.1226
1.12292
1.12328
1.1237
1.12415
1.12465
1.12518
1.12573
1.12632
1.12692
1.12754
1.12816
1.12878
1.12939
1.12998
1.13055
1.13109
1.13158
1.13201
1.13239
1.13269
1.13291
1.13304
1.13307
1.133
1.13282
1.13252
1.13211
1.13159
1.13097
1.13024
1.12941
1.12851
1.12754
1.12652
1.12547
1.1244
1.12334
1.12229
1.12128
1.12032
1.11942
1.11858
1.1178
1.11709
1.11645
1.11587
1.11534
1.11486
1.11443
1.11403
1.11366
1.11332
1.11299
1.11265
1.11229
1.11188
1.1114
1.11082
1.1101
1.10922
1.10813
1.10683
1.1053
1.10354
1.10156
1.09939
1.09708
1.09469
1.09226
1.08988
1.0876
1.08547
1.08353
1.08182
1.08035
1.07912
1.07812
1.07734
1.07675
1.07634
1.07609
1.07596
1.07594
1.07601
1.07614
1.07634
1.07658
1.07686
1.07717
1.0775
1.07785
1.07822
1.0786
1.079
1.0794
1.07981
1.08023
1.08066
1.0811
1.08154
1.08199
1.08245
1.08291
1.08338
1.08386
1.08435
1.08485
1.08535
1.08586
1.08637
1.08689
1.08741
1.08792
1.08843
1.08892
1.08938
1.08979
1.0901
1.09026
1.09016
1.0897
1.08872
1.08708
1.08468
1.08146
1.07744
1.07271
1.06733
1.06136
1.05483
1.04778
1.04036
1.03287
1.02572
1.01932
1.01393
1.00968
1.00649
1.00422
1.00266
1.00164
1.00098
1.00057
1.00033
1.00018
1.0001
1.00005
1.00003
1.00001
1.00001
1
1
1
1
1
1
1
1
1
1
1
1
1
1
1
1
1
1
1
1
1
1
1
1
1
1
1
1
1
1
1
1
1
1
1
1
1
1
1
1
1
1
1
1
1
1
1
1
1
1
1
1
1
1
1
1
1
1
1
1
1
1
1
1
1
1
1
1
1
1
1
1
1
1
1
1
1
1
1
1
1
1
1
1
1
1
1
1
1
1
1
1
1
1
1
1
1
1
1
1
1
1
1
1
1
1
1
1
1
1
1
1
1.08118
1.08262
1.08378
1.08471
1.08543
1.08599
1.08642
1.08675
1.08702
1.08725
1.08745
1.08765
1.08785
1.08805
1.08826
1.08849
1.08875
1.08903
1.08935
1.08972
1.09014
1.09063
1.09119
1.09183
1.09255
1.09333
1.09419
1.09511
1.09608
1.09709
1.09811
1.09913
1.10014
1.10112
1.10204
1.10291
1.1037
1.10441
1.10503
1.10556
1.106
1.10635
1.10661
1.10679
1.10692
1.10699
1.10704
1.10709
1.10715
1.10724
1.10738
1.10757
1.10783
1.10815
1.10855
1.10906
1.10968
1.11042
1.11129
1.11228
1.11335
1.11448
1.11562
1.11672
1.11774
1.11865
1.11943
1.12007
1.12058
1.12097
1.12125
1.12145
1.12159
1.12169
1.12177
1.12183
1.12189
1.12195
1.12202
1.1221
1.12219
1.12231
1.12244
1.12259
1.12275
1.12293
1.12313
1.12334
1.12356
1.12378
1.12401
1.12424
1.12445
1.12466
1.12485
1.12502
1.12516
1.12528
1.12536
1.12541
1.12542
1.12539
1.12533
1.12524
1.12511
1.12495
1.12477
1.12457
1.12435
1.12412
1.12388
1.12364
1.1234
1.12317
1.12295
1.12274
1.12255
1.12237
1.12221
1.12207
1.12195
1.12184
1.12175
1.12168
1.12162
1.12158
1.12155
1.12154
1.12154
1.12156
1.12159
1.12165
1.12173
1.12184
1.12199
1.12217
1.12239
1.12266
1.12296
1.12331
1.1237
1.12412
1.12458
1.12507
1.12558
1.1261
1.12663
1.12715
1.12767
1.12818
1.12865
1.12909
1.12949
1.12983
1.13011
1.13031
1.13044
1.13047
1.13042
1.13026
1.13
1.12963
1.12916
1.12858
1.1279
1.12714
1.12629
1.12538
1.12441
1.12341
1.12239
1.12137
1.12036
1.1194
1.11849
1.11764
1.11686
1.11617
1.11556
1.11503
1.11458
1.1142
1.11387
1.1136
1.11337
1.11317
1.113
1.11285
1.11272
1.11259
1.11248
1.11235
1.11221
1.11204
1.11182
1.11152
1.11111
1.11057
1.10985
1.10894
1.10781
1.10643
1.1048
1.10293
1.10085
1.09859
1.09621
1.09377
1.09134
1.08898
1.08675
1.08471
1.08289
1.0813
1.07997
1.07887
1.07801
1.07735
1.07689
1.07658
1.07642
1.07637
1.07642
1.07654
1.07673
1.07696
1.07724
1.07755
1.07788
1.07824
1.07861
1.079
1.0794
1.0798
1.08022
1.08065
1.08108
1.08152
1.08196
1.08242
1.08288
1.08334
1.08382
1.0843
1.0848
1.08529
1.0858
1.0863
1.08681
1.08732
1.08782
1.0883
1.08877
1.08919
1.08956
1.08981
1.08989
1.0897
1.08911
1.08798
1.08619
1.08363
1.0803
1.07625
1.07159
1.06643
1.06081
1.05473
1.04815
1.04115
1.03395
1.02692
1.02048
1.01494
1.01049
1.0071
1.00465
1.00296
1.00183
1.0011
1.00065
1.00037
1.00021
1.00011
1.00006
1.00003
1.00002
1.00001
1
1
1
1
1
1
1
1
1
1
1
1
1
1
1
1
1
1
1
1
1
1
1
1
1
1
1
1
1
1
1
1
1
1
1
1
1
1
1
1
1
1
1
1
1
1
1
1
1
1
1
1
1
1
1
1
1
1
1
1
1
1
1
1
1
1
1
1
1
1
1
1
1
1
1
1
1
1
1
1
1
1
1
1
1
1
1
1
1
1
1
1
1
1
1
1
1
1
1
1
1
1
1
1
1
1
1
1
1
1
1
1
1.08307
1.08415
1.08498
1.08561
1.08607
1.08639
1.08661
1.08676
1.08686
1.08694
1.08699
1.08703
1.08707
1.08711
1.08714
1.08718
1.08723
1.08729
1.08737
1.08749
1.08766
1.08789
1.08819
1.08857
1.08903
1.08958
1.09022
1.09095
1.09175
1.09261
1.09353
1.09449
1.09547
1.09645
1.09743
1.09837
1.09928
1.10014
1.10094
1.10167
1.10232
1.1029
1.10341
1.10384
1.10422
1.10455
1.10485
1.10514
1.10544
1.10576
1.10611
1.10649
1.1069
1.10736
1.10788
1.10846
1.10914
1.10992
1.11081
1.11181
1.1129
1.11404
1.1152
1.11633
1.11738
1.11832
1.11914
1.11981
1.12033
1.12073
1.12101
1.1212
1.12132
1.1214
1.12143
1.12145
1.12145
1.12146
1.12147
1.12148
1.12151
1.12154
1.1216
1.12166
1.12175
1.12185
1.12196
1.12209
1.12223
1.12238
1.12253
1.12269
1.12285
1.123
1.12314
1.12327
1.12337
1.12346
1.12353
1.12356
1.12357
1.12355
1.1235
1.12343
1.12333
1.1232
1.12306
1.12291
1.12275
1.12258
1.12241
1.12224
1.12208
1.12193
1.12179
1.12167
1.12155
1.12146
1.12138
1.12132
1.12127
1.12123
1.12121
1.1212
1.1212
1.12121
1.12123
1.12126
1.1213
1.12135
1.12141
1.12149
1.12159
1.1217
1.12185
1.12202
1.12222
1.12246
1.12273
1.12304
1.12338
1.12375
1.12414
1.12455
1.12497
1.12539
1.12581
1.12621
1.12658
1.12693
1.12722
1.12747
1.12766
1.12777
1.12781
1.12777
1.12764
1.12741
1.12709
1.12667
1.12616
1.12556
1.12486
1.12409
1.12325
1.12235
1.1214
1.12043
1.11944
1.11846
1.1175
1.11659
1.11573
1.11494
1.11424
1.11363
1.11312
1.1127
1.11238
1.11214
1.11197
1.11187
1.11182
1.1118
1.11182
1.11184
1.11188
1.11192
1.11196
1.112
1.11203
1.11206
1.11207
1.11207
1.11202
1.11193
1.11175
1.11148
1.11107
1.11049
1.10972
1.10873
1.10749
1.10599
1.10423
1.10224
1.10004
1.09768
1.09524
1.09277
1.09034
1.08803
1.08589
1.08396
1.08226
1.08082
1.07964
1.07869
1.07796
1.07744
1.07708
1.07688
1.07681
1.07683
1.07694
1.07712
1.07735
1.07763
1.07794
1.07828
1.07863
1.07901
1.0794
1.0798
1.08021
1.08063
1.08106
1.0815
1.08194
1.08239
1.08284
1.08331
1.08378
1.08426
1.08475
1.08524
1.08574
1.08624
1.08674
1.08723
1.08771
1.08818
1.08861
1.08901
1.08932
1.08952
1.08952
1.08922
1.0885
1.08721
1.08525
1.08254
1.07909
1.07501
1.07042
1.06547
1.06019
1.05454
1.04844
1.04188
1.03499
1.02811
1.02165
1.01598
1.01133
1.00774
1.00511
1.00327
1.00204
1.00123
1.00073
1.00042
1.00024
1.00013
1.00007
1.00004
1.00002
1.00001
1
1
1
1
1
1
1
1
1
1
1
1
1
1
1
1
1
1
1
1
1
1
1
1
1
1
1
1
1
1
1
1
1
1
1
1
1
1
1
1
1
1
1
1
1
1
1
1
1
1
1
1
1
1
1
1
1
1
1
1
1
1
1
1
1
1
1
1
1
1
1
1
1
1
1
1
1
1
1
1
1
1
1
1
1
1
1
1
1
1
1
1
1
1
1
1
1
1
1
1
1
1
1
1
1
1
1
1
1
1
1
1
1.0844
1.08514
1.0857
1.08609
1.08636
1.08652
1.08661
1.08664
1.08664
1.08661
1.08656
1.0865
1.08642
1.08633
1.08623
1.08612
1.08601
1.08589
1.08579
1.08572
1.08568
1.08569
1.08577
1.08592
1.08616
1.08649
1.08691
1.08743
1.08803
1.08872
1.08947
1.09029
1.09116
1.09205
1.09297
1.09389
1.09481
1.09571
1.09657
1.0974
1.09818
1.09892
1.09959
1.10022
1.10081
1.10136
1.10189
1.10242
1.10296
1.10351
1.10408
1.10467
1.10527
1.1059
1.10655
1.10724
1.108
1.10885
1.10979
1.11084
1.11196
1.11315
1.11435
1.11553
1.11663
1.11762
1.11848
1.11919
1.11975
1.12017
1.12047
1.12066
1.12078
1.12083
1.12084
1.12082
1.12078
1.12073
1.12069
1.12064
1.1206
1.12057
1.12055
1.12054
1.12054
1.12056
1.12059
1.12064
1.1207
1.12076
1.12084
1.12093
1.12102
1.12111
1.12119
1.12127
1.12134
1.1214
1.12144
1.12147
1.12147
1.12146
1.12142
1.12137
1.1213
1.12122
1.12113
1.12103
1.12093
1.12083
1.12073
1.12064
1.12056
1.12049
1.12043
1.12039
1.12036
1.12034
1.12034
1.12035
1.12037
1.1204
1.12044
1.12049
1.12054
1.1206
1.12066
1.12072
1.12079
1.12087
1.12094
1.12103
1.12113
1.12124
1.12136
1.12151
1.12168
1.12187
1.12209
1.12233
1.12259
1.12287
1.12317
1.12346
1.12376
1.12405
1.12431
1.12455
1.12475
1.1249
1.12499
1.12503
1.12499
1.12488
1.12469
1.12441
1.12406
1.12361
1.12309
1.12248
1.1218
1.12105
1.12024
1.11939
1.11849
1.11758
1.11665
1.11573
1.11483
1.11396
1.11315
1.11241
1.11174
1.11117
1.1107
1.11033
1.11006
1.10989
1.10982
1.10982
1.1099
1.11002
1.11019
1.11038
1.11059
1.11079
1.11099
1.11117
1.11134
1.1115
1.11165
1.11178
1.1119
1.112
1.11208
1.11213
1.11212
1.11204
1.11186
1.11156
1.1111
1.11045
1.10959
1.10847
1.10709
1.10545
1.10354
1.10141
1.09909
1.09665
1.09415
1.09167
1.08929
1.08705
1.08502
1.08323
1.08169
1.0804
1.07937
1.07858
1.07799
1.07759
1.07735
1.07725
1.07726
1.07735
1.07752
1.07775
1.07802
1.07833
1.07867
1.07903
1.07941
1.07981
1.08021
1.08063
1.08105
1.08148
1.08192
1.08236
1.08281
1.08328
1.08374
1.08422
1.0847
1.08519
1.08568
1.08617
1.08666
1.08714
1.08761
1.08805
1.08846
1.08882
1.08909
1.08922
1.08913
1.08871
1.08785
1.0864
1.08426
1.08138
1.07782
1.07371
1.06921
1.06447
1.05952
1.0543
1.04866
1.04253
1.03597
1.02927
1.02282
1.01704
1.01221
1.00842
1.0056
1.00361
1.00226
1.00138
1.00082
1.00048
1.00027
1.00015
1.00008
1.00004
1.00002
1.00001
1.00001
1
1
1
1
1
1
1
1
1
1
1
1
1
1
1
1
1
1
1
1
1
1
1
1
1
1
1
1
1
1
1
1
1
1
1
1
1
1
1
1
1
1
1
1
1
1
1
1
1
1
1
1
1
1