# vtk DataFile Version 2.0
LBE two cylinders
ASCII
DATASET STRUCTURED_POINTS
DIMENSIONS 400 100 1
ASPECT_RATIO 1 1 1
ORIGIN 0 0 0
POINT_DATA 40000
SCALARS rho double 1
LOOKUP_TABLE default
1.05962
1.06
1.06043
1.06089
1.06134
1.0618
1.06225
1.06271
1.06316
1.06361
1.06405
1.06448
1.0649
1.06532
1.06572
1.06611
1.06649
1.06685
1.0672
1.06754
1.06787
1.06818
1.06848
1.06877
1.06905
1.06931
1.06957
1.06982
1.07006
1.0703
1.07053
1.07075
1.07097
1.07119
1.07141
1.07163
1.07184
1.07205
1.07227
1.07248
1.0727
1.07291
1.07313
1.07335
1.07357
1.0738
1.07402
1.07425
1.07447
1.07469
1.0749
1.07511
1.07531
1.0755
1.07568
1.07585
1.07601
1.07616
1.07629
1.07641
1.07652
1.07663
1.07672
1.07681
1.07688
1.07695
1.07702
1.07708
1.07713
1.07719
1.07724
1.0773
1.07736
1.07744
1.07752
1.07763
1.07777
1.07794
1.07815
1.07841
1.07871
1.07908
1.0795
1.07999
1.08053
1.08113
1.08177
1.08246
1.08317
1.0839
1.08463
1.08537
1.08608
1.08677
1.08742
1.08803
1.08859
1.0891
1.08955
1.08995
1.0903
1.0906
1.09086
1.09107
1.09124
1.09137
1.09148
1.09155
1.09161
1.09164
1.09166
1.09166
1.09165
1.09163
1.09161
1.09157
1.09152
1.09147
1.09141
1.09134
1.09127
1.0912
1.09112
1.09103
1.09095
1.09088
1.09082
1.09078
1.09077
1.09079
1.09086
1.09099
1.09117
1.09142
1.09173
1.09211
1.09255
1.09304
1.09358
1.09415
1.09473
1.09532
1.09589
1.09642
1.09692
1.09735
1.09773
1.09803
1.09826
1.09841
1.09849
1.09851
1.09846
1.09836
1.09822
1.09803
1.09782
1.09759
1.09734
1.09707
1.0968
1.09653
1.09625
1.09597
1.0957
1.09542
1.09515
1.09488
1.09461
1.09435
1.09409
1.09383
1.09357
1.09331
1.09305
1.09279
1.09253
1.09227
1.09201
1.09174
1.09147
1.0912
1.09093
1.09065
1.09037
1.09008
1.08979
1.08949
1.08919
1.08888
1.08858
1.08826
1.08795
1.08763
1.08731
1.08699
1.08666
1.08634
1.08601
1.08569
1.08536
1.08505
1.08473
1.08442
1.08412
1.08383
1.08355
1.08328
1.08303
1.08279
1.08256
1.08236
1.08217
1.082
1.08185
1.08172
1.08162
1.08153
1.08147
1.08144
1.08143
1.08145
1.08149
1.08157
1.08167
1.0818
1.08195
1.08214
1.08235
1.08259
1.08285
1.08314
1.08345
1.08378
1.08413
1.08449
1.08487
1.08527
1.08568
1.08611
1.08655
1.087
1.08746
1.08794
1.08842
1.08892
1.08944
1.08996
1.0905
1.09105
1.09161
1.09219
1.09277
1.09337
1.09398
1.0946
1.09524
1.09588
1.09654
1.0972
1.09788
1.09857
1.09927
1.09998
1.10071
1.10144
1.10219
1.10294
1.1037
1.10447
1.10523
1.10599
1.10674
1.10748
1.10821
1.10891
1.10959
1.11025
1.11089
1.1115
1.11209
1.11266
1.11321
1.11374
1.11426
1.11477
1.11527
1.11576
1.11624
1.11672
1.11719
1.11766
1.11812
1.11858
1.11903
1.11947
1.1199
1.12032
1.12072
1.12111
1.12147
1.1218
1.12208
1.12232
1.12248
1.12254
1.12248
1.12226
1.12183
1.12115
1.12017
1.11882
1.11708
1.11491
1.11231
1.1093
1.10594
1.10231
1.09851
1.09468
1.09093
1.08737
1.08412
1.08122
1.07872
1.07664
1.07496
1.07366
1.0727
1.07205
1.07165
1.07147
1.07147
1.07162
1.0719
1.07227
1.07273
1.07326
1.07383
1.07443
1.07502
1.07556
1.07596
1.07611
1.07585
1.07497
1.07326
1.07048
1.06647
1.06121
1.05481
1.04759
1.03999
1.03252
1.0256
1.01955
1.01452
1.01051
1.00744
1.00516
1.00351
1.00234
1.00154
1.001
1.00063
1.0004
1.00024
1.00015
1.00009
1.00005
1.00003
1.00002
1.00001
1.00001
1
1
1
1
1
1
1
1
1
1
1
1
1
1
1
1
1
1
1
1
1
1
1
1
1
1
1.0597
1.06011
1.06055
1.061
1.06146
1.06192
1.06238
1.06284
1.0633
1.06376
1.06421
1.06465
1.06508
1.06551
1.06593
1.06633
1.06672
1.0671
1.06747
1.06783
1.06817
1.0685
1.06881
1.06912
1.06941
1.06969
1.06996
1.07022
1.07047
1.07072
1.07096
1.07119
1.07142
1.07164
1.07186
1.07207
1.07229
1.0725
1.07271
1.07293
1.07314
1.07335
1.07356
1.07378
1.074
1.07421
1.07443
1.07464
1.07486
1.07507
1.07527
1.07547
1.07566
1.07584
1.07601
1.07617
1.07632
1.07646
1.07658
1.0767
1.0768
1.07689
1.07698
1.07706
1.07713
1.07719
1.07725
1.07731
1.07736
1.07741
1.07746
1.07751
1.07757
1.07765
1.07773
1.07784
1.07797
1.07814
1.07835
1.0786
1.0789
1.07925
1.07966
1.08013
1.08066
1.08124
1.08186
1.08252
1.08322
1.08393
1.08464
1.08536
1.08606
1.08673
1.08737
1.08798
1.08853
1.08904
1.0895
1.0899
1.09026
1.09056
1.09082
1.09104
1.09122
1.09136
1.09148
1.09157
1.09163
1.09168
1.09171
1.09172
1.09172
1.09171
1.09169
1.09166
1.09163
1.09159
1.09154
1.09148
1.09142
1.09136
1.09129
1.09122
1.09115
1.09109
1.09105
1.09102
1.09102
1.09106
1.09114
1.09127
1.09146
1.0917
1.09202
1.09239
1.09283
1.09331
1.09384
1.0944
1.09497
1.09555
1.09612
1.09665
1.09715
1.09759
1.09797
1.09828
1.09853
1.09869
1.09879
1.09883
1.0988
1.09872
1.09859
1.09842
1.09822
1.098
1.09776
1.09751
1.09725
1.09698
1.09671
1.09644
1.09616
1.09589
1.09562
1.09535
1.09508
1.09481
1.09454
1.09428
1.09401
1.09374
1.09347
1.0932
1.09293
1.09266
1.09238
1.0921
1.09182
1.09153
1.09124
1.09094
1.09064
1.09034
1.09003
1.08972
1.0894
1.08908
1.08876
1.08843
1.0881
1.08777
1.08744
1.08711
1.08677
1.08644
1.08611
1.08578
1.08545
1.08513
1.08482
1.0845
1.0842
1.08391
1.08363
1.08336
1.0831
1.08286
1.08263
1.08242
1.08223
1.08206
1.08191
1.08178
1.08167
1.08159
1.08152
1.08149
1.08148
1.08149
1.08153
1.0816
1.0817
1.08183
1.08198
1.08217
1.08237
1.08261
1.08287
1.08315
1.08346
1.08379
1.08413
1.0845
1.08488
1.08527
1.08568
1.08611
1.08655
1.087
1.08746
1.08793
1.08842
1.08892
1.08943
1.08996
1.0905
1.09104
1.09161
1.09218
1.09277
1.09336
1.09397
1.09459
1.09522
1.09587
1.09652
1.09719
1.09786
1.09855
1.09925
1.09996
1.10069
1.10142
1.10216
1.10291
1.10367
1.10443
1.10519
1.10594
1.10669
1.10743
1.10815
1.10885
1.10953
1.11019
1.11083
1.11144
1.11203
1.1126
1.11315
1.11369
1.11421
1.11472
1.11522
1.11571
1.11619
1.11666
1.11713
1.1176
1.11806
1.11851
1.11895
1.11939
1.11982
1.12023
1.12062
1.12099
1.12134
1.12165
1.12192
1.12212
1.12225
1.12227
1.12217
1.12189
1.12141
1.12067
1.11964
1.11827
1.11653
1.1144
1.11188
1.10898
1.10576
1.1023
1.09867
1.09499
1.09137
1.08791
1.0847
1.08181
1.0793
1.07717
1.07543
1.07406
1.07303
1.07231
1.07184
1.07161
1.07156
1.07166
1.0719
1.07224
1.07266
1.07315
1.07369
1.07424
1.07478
1.07524
1.07555
1.07559
1.07522
1.07425
1.07248
1.06975
1.0659
1.06092
1.05488
1.04803
1.04074
1.03346
1.02661
1.02052
1.01538
1.01123
1.00801
1.00559
1.00383
1.00257
1.0017
1.00111
1.00071
1.00045
1.00028
1.00017
1.0001
1.00006
1.00004
1.00002
1.00001
1.00001
1
1
1
1
1
1
1
1
1
1
1
1
1
1
1
1
1
1
1
1
1
1
1
1
1
1
1.05988
1.06032
1.06077
1.06122
1.06169
1.06216
1.06264
1.06311
1.06359
1.06406
1.06454
1.065
1.06546
1.06592
1.06636
1.06679
1.06722
1.06763
1.06803
1.06841
1.06878
1.06914
1.06949
1.06982
1.07013
1.07044
1.07073
1.07101
1.07128
1.07154
1.07179
1.07203
1.07227
1.07249
1.07272
1.07293
1.07315
1.07336
1.07356
1.07377
1.07397
1.07418
1.07438
1.07458
1.07478
1.07498
1.07518
1.07538
1.07558
1.07577
1.07596
1.07614
1.07631
1.07647
1.07663
1.07677
1.0769
1.07702
1.07713
1.07723
1.07732
1.0774
1.07747
1.07754
1.0776
1.07765
1.0777
1.07775
1.07779
1.07783
1.07788
1.07792
1.07798
1.07804
1.07813
1.07823
1.07835
1.07851
1.07871
1.07895
1.07924
1.07958
1.07997
1.08042
1.08092
1.08147
1.08207
1.08271
1.08338
1.08406
1.08476
1.08545
1.08613
1.0868
1.08743
1.08802
1.08857
1.08908
1.08954
1.08994
1.09031
1.09062
1.09089
1.09112
1.09131
1.09146
1.09159
1.09169
1.09177
1.09183
1.09187
1.0919
1.09191
1.09192
1.09191
1.0919
1.09188
1.09185
1.09182
1.09178
1.09174
1.09169
1.09164
1.09159
1.09154
1.0915
1.09147
1.09147
1.09149
1.09154
1.09163
1.09177
1.09197
1.09222
1.09254
1.09291
1.09334
1.09382
1.09435
1.0949
1.09547
1.09605
1.09661
1.09715
1.09766
1.09811
1.09851
1.09884
1.0991
1.0993
1.09942
1.09948
1.09948
1.09942
1.09932
1.09918
1.099
1.0988
1.09858
1.09834
1.0981
1.09784
1.09758
1.09732
1.09705
1.09678
1.09652
1.09625
1.09598
1.0957
1.09543
1.09515
1.09487
1.09459
1.09431
1.09402
1.09372
1.09343
1.09312
1.09282
1.0925
1.09218
1.09186
1.09153
1.0912
1.09086
1.09052
1.09018
1.08983
1.08948
1.08912
1.08877
1.08841
1.08806
1.0877
1.08735
1.087
1.08665
1.08631
1.08596
1.08563
1.0853
1.08497
1.08465
1.08435
1.08405
1.08376
1.08349
1.08322
1.08298
1.08275
1.08253
1.08234
1.08216
1.082
1.08187
1.08175
1.08166
1.0816
1.08155
1.08154
1.08155
1.08159
1.08165
1.08175
1.08187
1.08202
1.0822
1.0824
1.08263
1.08289
1.08317
1.08348
1.0838
1.08415
1.08451
1.08489
1.08528
1.08569
1.08611
1.08655
1.087
1.08746
1.08794
1.08842
1.08892
1.08943
1.08996
1.09049
1.09104
1.0916
1.09218
1.09276
1.09336
1.09397
1.09459
1.09522
1.09586
1.09651
1.09718
1.09785
1.09854
1.09924
1.09995
1.10067
1.1014
1.10214
1.10289
1.10364
1.1044
1.10515
1.1059
1.10664
1.10737
1.10809
1.10879
1.10947
1.11013
1.11077
1.11138
1.11197
1.11255
1.1131
1.11364
1.11416
1.11467
1.11516
1.11565
1.11613
1.1166
1.11707
1.11753
1.11798
1.11843
1.11887
1.1193
1.11971
1.12011
1.1205
1.12085
1.12118
1.12147
1.1217
1.12187
1.12195
1.12192
1.12175
1.1214
1.12085
1.12005
1.11896
1.11756
1.11581
1.11372
1.11128
1.10852
1.10547
1.1022
1.09878
1.0953
1.09185
1.08852
1.08539
1.08254
1.08002
1.07784
1.07604
1.07458
1.07347
1.07265
1.07211
1.0718
1.07168
1.07173
1.07191
1.0722
1.07258
1.07303
1.07352
1.07402
1.0745
1.07489
1.07513
1.0751
1.07466
1.07365
1.0719
1.06926
1.06559
1.06085
1.0551
1.04852
1.04145
1.0343
1.02749
1.02135
1.01611
1.01184
1.00849
1.00596
1.0041
1.00277
1.00184
1.0012
1.00077
1.00049
1.0003
1.00019
1.00011
1.00007
1.00004
1.00002
1.00001
1.00001
1
1
1
1
1
1
1
1
1
1
1
1
1
1
1
1
1
1
1
1
1
1
1
1
1
1
1.06019
1.06064
1.0611
1.06157
1.06206
1.06255
1.06305
1.06355
1.06405
1.06456
1.06506
1.06556
1.06606
1.06655
1.06704
1.06751
1.06797
1.06843
1.06887
1.06929
1.06971
1.0701
1.07048
1.07085
1.0712
1.07153
1.07185
1.07216
1.07244
1.07272
1.07298
1.07323
1.07347
1.07371
1.07393
1.07414
1.07435
1.07455
1.07475
1.07494
1.07513
1.07532
1.0755
1.07568
1.07587
1.07604
1.07622
1.0764
1.07657
1.07673
1.0769
1.07705
1.0772
1.07733
1.07746
1.07758
1.07769
1.07778
1.07787
1.07795
1.07802
1.07809
1.07814
1.07819
1.07824
1.07828
1.07831
1.07835
1.07838
1.07841
1.07845
1.07849
1.07854
1.07859
1.07867
1.07876
1.07888
1.07903
1.07922
1.07945
1.07972
1.08004
1.08041
1.08084
1.08131
1.08184
1.08241
1.08301
1.08365
1.08431
1.08498
1.08564
1.08631
1.08695
1.08757
1.08815
1.0887
1.0892
1.08966
1.09008
1.09044
1.09077
1.09105
1.09129
1.09149
1.09166
1.09181
1.09192
1.09202
1.09209
1.09215
1.09219
1.09222
1.09224
1.09226
1.09226
1.09226
1.09225
1.09223
1.09221
1.09219
1.09216
1.09213
1.09211
1.09208
1.09207
1.09206
1.09208
1.09212
1.09219
1.0923
1.09246
1.09266
1.09293
1.09325
1.09362
1.09406
1.09454
1.09506
1.09561
1.09618
1.09676
1.09733
1.09788
1.09839
1.09886
1.09928
1.09963
1.09992
1.10014
1.1003
1.10039
1.10042
1.1004
1.10033
1.10022
1.10008
1.0999
1.09971
1.0995
1.09927
1.09904
1.09879
1.09855
1.09829
1.09804
1.09778
1.09751
1.09724
1.09697
1.09669
1.0964
1.09611
1.09581
1.09551
1.09519
1.09487
1.09455
1.09421
1.09387
1.09352
1.09316
1.0928
1.09242
1.09205
1.09166
1.09128
1.09088
1.09049
1.0901
1.0897
1.0893
1.08891
1.08852
1.08813
1.08775
1.08736
1.08699
1.08662
1.08626
1.0859
1.08555
1.08522
1.08489
1.08457
1.08426
1.08396
1.08368
1.08341
1.08315
1.08291
1.08269
1.08248
1.0823
1.08213
1.08199
1.08187
1.08177
1.08169
1.08164
1.08162
1.08162
1.08165
1.08171
1.0818
1.08192
1.08206
1.08224
1.08244
1.08267
1.08292
1.0832
1.0835
1.08382
1.08416
1.08452
1.0849
1.08529
1.0857
1.08612
1.08656
1.08701
1.08747
1.08794
1.08843
1.08893
1.08944
1.08996
1.0905
1.09105
1.09161
1.09218
1.09276
1.09336
1.09397
1.09459
1.09522
1.09586
1.09651
1.09718
1.09785
1.09854
1.09924
1.09995
1.10067
1.10139
1.10213
1.10287
1.10362
1.10437
1.10512
1.10586
1.1066
1.10733
1.10804
1.10874
1.10941
1.11007
1.11071
1.11132
1.11192
1.11249
1.11305
1.11358
1.11411
1.11461
1.11511
1.1156
1.11608
1.11655
1.11701
1.11746
1.11791
1.11835
1.11878
1.1192
1.11961
1.12
1.12036
1.1207
1.12101
1.12127
1.12146
1.12158
1.12161
1.12151
1.12126
1.12082
1.12017
1.11928
1.11812
1.11666
1.1149
1.11284
1.11048
1.10786
1.10501
1.10197
1.0988
1.09556
1.09233
1.08918
1.08618
1.08339
1.08088
1.07867
1.0768
1.07525
1.07403
1.07312
1.07247
1.07207
1.07187
1.07184
1.07196
1.0722
1.07253
1.07293
1.07337
1.07383
1.07426
1.0746
1.07478
1.07469
1.0742
1.07317
1.07143
1.06885
1.0653
1.06074
1.05521
1.04887
1.04201
1.035
1.02825
1.02211
1.0168
1.01242
1.00896
1.00632
1.00437
1.00296
1.00198
1.0013
1.00084
1.00053
1.00033
1.0002
1.00012
1.00007
1.00004
1.00003
1.00001
1.00001
1
1
1
1
1
1
1
1
1
1
1
1
1
1
1
1
1
1
1
1
1
1
1
1
1
1
1.06064
1.06111
1.06159
1.06209
1.06259
1.06311
1.06364
1.06417
1.06472
1.06526
1.06581
1.06635
1.0669
1.06744
1.06797
1.06849
1.06901
1.06951
1.06999
1.07047
1.07092
1.07136
1.07178
1.07218
1.07257
1.07293
1.07327
1.0736
1.0739
1.07419
1.07446
1.07472
1.07496
1.07519
1.0754
1.07561
1.0758
1.07599
1.07617
1.07634
1.07651
1.07668
1.07684
1.077
1.07715
1.0773
1.07745
1.07759
1.07773
1.07787
1.07799
1.07812
1.07823
1.07834
1.07844
1.07852
1.0786
1.07868
1.07874
1.07879
1.07884
1.07888
1.07892
1.07895
1.07898
1.07901
1.07903
1.07905
1.07907
1.07909
1.07912
1.07915
1.07919
1.07925
1.07932
1.07941
1.07952
1.07966
1.07984
1.08005
1.08031
1.08061
1.08096
1.08136
1.0818
1.0823
1.08283
1.0834
1.084
1.08463
1.08527
1.08591
1.08655
1.08717
1.08777
1.08835
1.08889
1.0894
1.08986
1.09028
1.09065
1.09099
1.09128
1.09153
1.09175
1.09194
1.0921
1.09223
1.09234
1.09243
1.0925
1.09257
1.09261
1.09265
1.09268
1.09271
1.09272
1.09273
1.09274
1.09274
1.09274
1.09274
1.09273
1.09273
1.09273
1.09274
1.09276
1.0928
1.09286
1.09296
1.09309
1.09326
1.09349
1.09376
1.09409
1.09447
1.09491
1.09539
1.09591
1.09646
1.09703
1.09761
1.09819
1.09874
1.09927
1.09976
1.1002
1.10058
1.1009
1.10115
1.10134
1.10147
1.10154
1.10156
1.10153
1.10146
1.10135
1.10121
1.10105
1.10087
1.10068
1.10047
1.10025
1.10003
1.09979
1.09955
1.09931
1.09905
1.09879
1.09852
1.09824
1.09795
1.09765
1.09734
1.09702
1.09668
1.09634
1.09598
1.09561
1.09524
1.09484
1.09444
1.09403
1.09361
1.09318
1.09275
1.09231
1.09186
1.09141
1.09096
1.09051
1.09007
1.08962
1.08918
1.08875
1.08832
1.0879
1.08749
1.08708
1.08669
1.08631
1.08593
1.08557
1.08522
1.08488
1.08456
1.08424
1.08394
1.08366
1.08339
1.08313
1.0829
1.08268
1.08248
1.0823
1.08214
1.08201
1.0819
1.08181
1.08175
1.08172
1.08171
1.08174
1.08179
1.08187
1.08198
1.08212
1.08228
1.08248
1.0827
1.08295
1.08323
1.08352
1.08384
1.08418
1.08454
1.08491
1.0853
1.08571
1.08613
1.08657
1.08702
1.08748
1.08795
1.08844
1.08894
1.08945
1.08997
1.09051
1.09105
1.09161
1.09218
1.09277
1.09336
1.09397
1.09459
1.09522
1.09586
1.09652
1.09718
1.09786
1.09855
1.09924
1.09995
1.10067
1.10139
1.10213
1.10287
1.10361
1.10435
1.10509
1.10583
1.10656
1.10728
1.10799
1.10868
1.10936
1.11002
1.11065
1.11127
1.11186
1.11244
1.113
1.11354
1.11406
1.11457
1.11506
1.11555
1.11602
1.11649
1.11695
1.1174
1.11784
1.11827
1.1187
1.11911
1.1195
1.11988
1.12023
1.12054
1.12082
1.12104
1.12119
1.12125
1.1212
1.12101
1.12066
1.12011
1.11935
1.11835
1.11709
1.11558
1.1138
1.11177
1.10951
1.10705
1.10442
1.10164
1.09875
1.09579
1.09282
1.08989
1.08704
1.08435
1.08187
1.07964
1.0777
1.07607
1.07474
1.0737
1.07294
1.07243
1.07214
1.07203
1.07207
1.07225
1.07252
1.07287
1.07327
1.07367
1.07405
1.07433
1.07445
1.0743
1.07375
1.07268
1.07094
1.06841
1.06497
1.06058
1.05527
1.04916
1.04251
1.03565
1.02898
1.02283
1.01746
1.01299
1.00943
1.00669
1.00465
1.00317
1.00212
1.00139
1.0009
1.00057
1.00036
1.00022
1.00014
1.00008
1.00005
1.00003
1.00002
1.00001
1
1
1
1
1
1
1
1
1
1
1
1
1
1
1
1
1
1
1
1
1
1
1
1
1
1
1.06128
1.06177
1.06227
1.0628
1.06333
1.06389
1.06445
1.06503
1.06562
1.06621
1.0668
1.0674
1.06799
1.06858
1.06917
1.06974
1.07031
1.07086
1.07139
1.07191
1.0724
1.07288
1.07333
1.07377
1.07417
1.07456
1.07492
1.07526
1.07557
1.07587
1.07614
1.07639
1.07662
1.07684
1.07704
1.07723
1.0774
1.07757
1.07772
1.07787
1.07801
1.07815
1.07828
1.0784
1.07853
1.07864
1.07875
1.07886
1.07897
1.07907
1.07916
1.07924
1.07932
1.0794
1.07946
1.07952
1.07957
1.07961
1.07965
1.07968
1.0797
1.07972
1.07974
1.07975
1.07977
1.07978
1.07979
1.0798
1.07981
1.07982
1.07984
1.07987
1.07991
1.07996
1.08002
1.08011
1.08022
1.08036
1.08052
1.08073
1.08097
1.08125
1.08158
1.08195
1.08237
1.08283
1.08333
1.08386
1.08443
1.08502
1.08562
1.08624
1.08685
1.08745
1.08804
1.08861
1.08915
1.08965
1.09011
1.09054
1.09093
1.09127
1.09158
1.09185
1.09208
1.09228
1.09246
1.09261
1.09273
1.09284
1.09293
1.09301
1.09308
1.09313
1.09318
1.09322
1.09326
1.09329
1.09331
1.09333
1.09335
1.09337
1.09339
1.09341
1.09344
1.09347
1.09352
1.09359
1.09367
1.09379
1.09394
1.09414
1.09437
1.09466
1.09499
1.09538
1.09582
1.0963
1.09682
1.09737
1.09795
1.09853
1.09911
1.09967
1.10022
1.10072
1.10118
1.10159
1.10194
1.10223
1.10246
1.10263
1.10275
1.10281
1.10282
1.10279
1.10272
1.10263
1.1025
1.10236
1.1022
1.10202
1.10184
1.10164
1.10143
1.10122
1.10099
1.10076
1.10051
1.10025
1.09998
1.0997
1.0994
1.09909
1.09876
1.09841
1.09805
1.09767
1.09728
1.09687
1.09644
1.096
1.09554
1.09508
1.0946
1.09411
1.09362
1.09311
1.09261
1.0921
1.09159
1.09109
1.09058
1.09009
1.0896
1.08912
1.08865
1.08819
1.08774
1.0873
1.08688
1.08647
1.08607
1.08569
1.08532
1.08497
1.08463
1.0843
1.084
1.08371
1.08343
1.08317
1.08294
1.08272
1.08252
1.08235
1.08219
1.08207
1.08197
1.08189
1.08185
1.08183
1.08184
1.08188
1.08195
1.08205
1.08218
1.08234
1.08253
1.08275
1.08299
1.08326
1.08355
1.08387
1.0842
1.08456
1.08493
1.08532
1.08573
1.08615
1.08658
1.08703
1.08749
1.08797
1.08845
1.08895
1.08946
1.08998
1.09052
1.09107
1.09162
1.0922
1.09278
1.09337
1.09398
1.0946
1.09523
1.09588
1.09653
1.0972
1.09787
1.09856
1.09926
1.09996
1.10068
1.1014
1.10213
1.10287
1.1036
1.10434
1.10508
1.10581
1.10653
1.10725
1.10795
1.10864
1.10931
1.10997
1.1106
1.11122
1.11182
1.11239
1.11295
1.11349
1.11402
1.11452
1.11502
1.1155
1.11598
1.11644
1.11689
1.11734
1.11777
1.1182
1.11861
1.11901
1.11939
1.11974
1.12007
1.12036
1.1206
1.12077
1.12086
1.12085
1.12071
1.12042
1.11995
1.11928
1.11839
1.11727
1.11592
1.11434
1.11255
1.11057
1.10842
1.10614
1.10373
1.10123
1.09864
1.096
1.09331
1.09062
1.08797
1.0854
1.08298
1.08075
1.07875
1.07702
1.07558
1.07442
1.07353
1.07289
1.07249
1.07228
1.07224
1.07234
1.07255
1.07284
1.07318
1.07353
1.07385
1.07407
1.07413
1.07391
1.07331
1.07221
1.07046
1.06797
1.06463
1.06039
1.05528
1.04939
1.04294
1.03624
1.02965
1.02352
1.01811
1.01356
1.0099
1.00706
1.00493
1.00337
1.00227
1.0015
1.00097
1.00062
1.00039
1.00024
1.00015
1.00009
1.00005
1.00003
1.00002
1.00001
1.00001
1
1
1
1
1
1
1
1
1
1
1
1
1
1
1
1
1
1
1
1
1
1
1
1
1
1.06214
1.06265
1.06318
1.06374
1.06432
1.06491
1.06552
1.06615
1.06678
1.06742
1.06807
1.06871
1.06936
1.07
1.07063
1.07125
1.07186
1.07245
1.07302
1.07357
1.0741
1.0746
1.07507
1.07552
1.07594
1.07634
1.0767
1.07704
1.07735
1.07763
1.07789
1.07813
1.07835
1.07854
1.07872
1.07888
1.07903
1.07917
1.07929
1.07941
1.07952
1.07962
1.07971
1.0798
1.07989
1.07997
1.08004
1.08011
1.08018
1.08024
1.08029
1.08034
1.08039
1.08042
1.08045
1.08048
1.0805
1.08051
1.08052
1.08053
1.08053
1.08053
1.08053
1.08052
1.08052
1.08052
1.08052
1.08052
1.08052
1.08053
1.08055
1.08058
1.08061
1.08067
1.08073
1.08082
1.08093
1.08107
1.08123
1.08143
1.08166
1.08193
1.08223
1.08258
1.08297
1.08339
1.08386
1.08435
1.08488
1.08544
1.08601
1.08659
1.08718
1.08777
1.08834
1.0889
1.08943
1.08993
1.0904
1.09084
1.09124
1.09159
1.09191
1.0922
1.09245
1.09266
1.09285
1.09302
1.09316
1.09328
1.09339
1.09348
1.09356
1.09363
1.0937
1.09375
1.09381
1.09385
1.0939
1.09394
1.09398
1.09402
1.09406
1.09411
1.09416
1.09422
1.09429
1.09438
1.09449
1.09463
1.0948
1.09501
1.09526
1.09555
1.0959
1.09629
1.09673
1.09721
1.09773
1.09828
1.09885
1.09943
1.10002
1.10059
1.10115
1.10167
1.10215
1.10258
1.10297
1.10329
1.10356
1.10377
1.10393
1.10403
1.10409
1.10411
1.10408
1.10403
1.10395
1.10384
1.10372
1.10358
1.10343
1.10327
1.1031
1.10291
1.10272
1.10251
1.10229
1.10205
1.1018
1.10153
1.10125
1.10094
1.10062
1.10027
1.09991
1.09952
1.09912
1.09869
1.09824
1.09777
1.09729
1.09678
1.09627
1.09573
1.09519
1.09464
1.09408
1.09352
1.09295
1.09238
1.09182
1.09126
1.09071
1.09017
1.08964
1.08912
1.08862
1.08813
1.08765
1.0872
1.08675
1.08633
1.08592
1.08552
1.08515
1.08479
1.08445
1.08413
1.08382
1.08353
1.08327
1.08303
1.0828
1.0826
1.08243
1.08228
1.08216
1.08207
1.082
1.08197
1.08197
1.08199
1.08205
1.08214
1.08226
1.08242
1.0826
1.0828
1.08304
1.0833
1.08359
1.0839
1.08423
1.08459
1.08496
1.08534
1.08575
1.08617
1.0866
1.08705
1.08751
1.08798
1.08847
1.08897
1.08948
1.09
1.09054
1.09108
1.09164
1.09221
1.0928
1.09339
1.094
1.09462
1.09525
1.0959
1.09655
1.09722
1.09789
1.09858
1.09928
1.09999
1.1007
1.10142
1.10215
1.10288
1.10361
1.10434
1.10507
1.10579
1.10651
1.10722
1.10791
1.1086
1.10927
1.10992
1.11056
1.11117
1.11177
1.11235
1.11291
1.11345
1.11397
1.11448
1.11498
1.11546
1.11593
1.11639
1.11684
1.11727
1.1177
1.11812
1.11852
1.1189
1.11926
1.1196
1.1199
1.12015
1.12034
1.12046
1.12047
1.12037
1.12013
1.11971
1.11911
1.11831
1.11728
1.11605
1.1146
1.11298
1.11119
1.10927
1.10725
1.10515
1.10299
1.10077
1.0985
1.09617
1.09378
1.09136
1.08892
1.0865
1.08416
1.08195
1.07991
1.0781
1.07654
1.07525
1.07422
1.07345
1.07292
1.0726
1.07246
1.07247
1.07261
1.07283
1.07311
1.0734
1.07366
1.07382
1.07381
1.07353
1.07288
1.07174
1.06999
1.06754
1.06428
1.06019
1.05525
1.04956
1.04331
1.03676
1.03028
1.02418
1.01874
1.01412
1.01036
1.00743
1.00521
1.00358
1.00242
1.0016
1.00104
1.00067
1.00042
1.00026
1.00016
1.0001
1.00006
1.00003
1.00002
1.00001
1.00001
1
1
1
1
1
1
1
1
1
1
1
1
1
1
1
1
1
1
1
1
1
1
1
1
1
1.06325
1.0638
1.06437
1.06496
1.06558
1.06622
1.06688
1.06755
1.06823
1.06891
1.0696
1.07029
1.07098
1.07166
1.07233
1.07298
1.07361
1.07423
1.07482
1.07538
1.07592
1.07643
1.07691
1.07736
1.07777
1.07816
1.07851
1.07883
1.07912
1.07938
1.07962
1.07983
1.08001
1.08018
1.08032
1.08045
1.08057
1.08067
1.08076
1.08084
1.08091
1.08098
1.08104
1.08109
1.08114
1.08118
1.08122
1.08125
1.08128
1.0813
1.08132
1.08133
1.08134
1.08135
1.08135
1.08134
1.08133
1.08132
1.08131
1.08129
1.08127
1.08125
1.08123
1.08121
1.0812
1.08119
1.08118
1.08117
1.08118
1.08119
1.08121
1.08124
1.08128
1.08134
1.08141
1.0815
1.08162
1.08176
1.08192
1.08212
1.08234
1.0826
1.08289
1.08321
1.08357
1.08397
1.0844
1.08486
1.08536
1.08588
1.08642
1.08697
1.08754
1.08811
1.08867
1.08922
1.08975
1.09025
1.09073
1.09117
1.09158
1.09195
1.09228
1.09258
1.09285
1.09308
1.09328
1.09346
1.09361
1.09374
1.09386
1.09397
1.09406
1.09414
1.09422
1.09429
1.09436
1.09442
1.09448
1.09453
1.09459
1.09465
1.09471
1.09477
1.09485
1.09493
1.09502
1.09513
1.09526
1.09542
1.09561
1.09583
1.09609
1.09639
1.09674
1.09714
1.09758
1.09806
1.09857
1.09912
1.09969
1.10027
1.10086
1.10144
1.102
1.10254
1.10304
1.1035
1.10391
1.10427
1.10457
1.10482
1.10502
1.10516
1.10526
1.10532
1.10534
1.10533
1.10529
1.10522
1.10514
1.10504
1.10493
1.10481
1.10467
1.10452
1.10436
1.10419
1.104
1.10379
1.10357
1.10333
1.10307
1.10279
1.10249
1.10216
1.10181
1.10143
1.10103
1.10061
1.10016
1.09968
1.09918
1.09867
1.09813
1.09757
1.09699
1.0964
1.0958
1.09519
1.09458
1.09396
1.09334
1.09272
1.09211
1.09151
1.09091
1.09033
1.08976
1.08921
1.08867
1.08816
1.08765
1.08717
1.08671
1.08626
1.08584
1.08543
1.08504
1.08468
1.08433
1.08401
1.0837
1.08342
1.08317
1.08294
1.08273
1.08256
1.08241
1.08229
1.08221
1.08215
1.08213
1.08214
1.08218
1.08226
1.08237
1.0825
1.08267
1.08287
1.0831
1.08336
1.08364
1.08394
1.08427
1.08462
1.08498
1.08537
1.08577
1.08619
1.08662
1.08707
1.08753
1.088
1.08849
1.08899
1.0895
1.09002
1.09056
1.0911
1.09166
1.09224
1.09282
1.09342
1.09402
1.09464
1.09528
1.09592
1.09658
1.09725
1.09792
1.09861
1.09931
1.10002
1.10073
1.10145
1.10217
1.1029
1.10362
1.10434
1.10507
1.10578
1.10649
1.10719
1.10788
1.10856
1.10923
1.10988
1.11051
1.11113
1.11173
1.11231
1.11287
1.11341
1.11393
1.11444
1.11494
1.11542
1.11588
1.11634
1.11678
1.11721
1.11763
1.11803
1.11842
1.11878
1.11912
1.11943
1.11969
1.1199
1.12004
1.12008
1.12001
1.1198
1.11944
1.11889
1.11815
1.1172
1.11605
1.1147
1.11318
1.11151
1.10974
1.1079
1.10602
1.10412
1.10221
1.10028
1.09831
1.0963
1.09423
1.09208
1.08987
1.08763
1.0854
1.08323
1.08117
1.07929
1.07762
1.07619
1.07502
1.07411
1.07344
1.07299
1.07274
1.07265
1.0727
1.07285
1.07305
1.07328
1.07348
1.07358
1.0735
1.07316
1.07246
1.07129
1.06953
1.06711
1.06393
1.05995
1.05518
1.04969
1.04362
1.03724
1.03086
1.0248
1.01935
1.01467
1.01083
1.0078
1.0055
1.0038
1.00257
1.00171
1.00112
1.00072
1.00046
1.00028
1.00017
1.00011
1.00006
1.00004
1.00002
1.00001
1.00001
1
1
1
1
1
1
1
1
1
1
1
1
1
1
1
1
1
1
1
1
1
1
1
1
1
1.06466
1.06524
1.06585
1.06649
1.06715
1.06783
1.06852
1.06923
1.06995
1.07067
1.07139
1.07211
1.07282
1.07352
1.0742
1.07486
1.0755
1.07612
1.0767
1.07726
1.07779
1.07828
1.07874
1.07917
1.07956
1.07991
1.08023
1.08052
1.08078
1.081
1.0812
1.08137
1.08152
1.08165
1.08176
1.08185
1.08193
1.08199
1.08205
1.08209
1.08213
1.08216
1.08218
1.0822
1.08221
1.08222
1.08222
1.08222
1.08221
1.0822
1.08219
1.08217
1.08215
1.08212
1.08209
1.08206
1.08203
1.08199
1.08195
1.08192
1.08188
1.08184
1.08181
1.08178
1.08176
1.08174
1.08173
1.08173
1.08173
1.08174
1.08177
1.08181
1.08186
1.08193
1.08202
1.08212
1.08225
1.08239
1.08256
1.08276
1.08298
1.08323
1.08351
1.08381
1.08415
1.08452
1.08492
1.08535
1.08581
1.0863
1.08681
1.08734
1.08789
1.08844
1.08899
1.08953
1.09006
1.09057
1.09105
1.0915
1.09192
1.09231
1.09265
1.09296
1.09324
1.09348
1.09369
1.09388
1.09404
1.09419
1.09431
1.09443
1.09453
1.09462
1.09471
1.09479
1.09486
1.09493
1.09501
1.09508
1.09515
1.09522
1.0953
1.09538
1.09547
1.09556
1.09568
1.0958
1.09595
1.09613
1.09633
1.09656
1.09683
1.09714
1.0975
1.09789
1.09833
1.0988
1.09931
1.09986
1.10042
1.101
1.10159
1.10217
1.10274
1.10329
1.10381
1.10429
1.10472
1.10511
1.10544
1.10573
1.10596
1.10614
1.10628
1.10637
1.10643
1.10646
1.10645
1.10643
1.10638
1.10632
1.10625
1.10616
1.10606
1.10595
1.10582
1.10569
1.10554
1.10537
1.10519
1.10498
1.10476
1.10452
1.10425
1.10395
1.10363
1.10329
1.10291
1.10251
1.10208
1.10162
1.10114
1.10063
1.10009
1.09953
1.09895
1.09835
1.09773
1.09709
1.09644
1.09579
1.09512
1.09446
1.09379
1.09313
1.09248
1.09183
1.0912
1.09058
1.08997
1.08938
1.08881
1.08826
1.08773
1.08722
1.08673
1.08626
1.08582
1.08539
1.08499
1.08462
1.08426
1.08394
1.08364
1.08337
1.08312
1.08291
1.08273
1.08258
1.08247
1.08238
1.08234
1.08233
1.08235
1.0824
1.08249
1.08262
1.08277
1.08296
1.08318
1.08342
1.0837
1.08399
1.08431
1.08466
1.08502
1.0854
1.0858
1.08622
1.08665
1.0871
1.08756
1.08803
1.08852
1.08901
1.08953
1.09005
1.09058
1.09113
1.09169
1.09226
1.09285
1.09344
1.09405
1.09467
1.09531
1.09595
1.09661
1.09728
1.09796
1.09865
1.09935
1.10006
1.10077
1.10148
1.1022
1.10292
1.10364
1.10436
1.10507
1.10578
1.10648
1.10717
1.10786
1.10853
1.10919
1.10984
1.11047
1.11109
1.11169
1.11227
1.11283
1.11337
1.1139
1.1144
1.1149
1.11537
1.11584
1.11628
1.11672
1.11714
1.11755
1.11794
1.11831
1.11865
1.11897
1.11924
1.11946
1.11961
1.11967
1.11963
1.11946
1.11913
1.11863
1.11794
1.11705
1.11596
1.11468
1.11323
1.11165
1.10998
1.10825
1.10651
1.10478
1.10309
1.10142
1.09977
1.09811
1.0964
1.09463
1.09277
1.0908
1.08876
1.08666
1.08455
1.0825
1.08057
1.0788
1.07725
1.07593
1.07487
1.07405
1.07346
1.07309
1.07289
1.07284
1.0729
1.07303
1.07319
1.07331
1.07335
1.07321
1.07281
1.07206
1.07085
1.06908
1.06668
1.06356
1.0597
1.05508
1.04976
1.04388
1.03766
1.03139
1.02539
1.01993
1.0152
1.01129
1.00818
1.00579
1.00402
1.00273
1.00182
1.0012
1.00077
1.00049
1.00031
1.00019
1.00011
1.00007
1.00004
1.00002
1.00001
1.00001
1
1
1
1
1
1
1
1
1
1
1
1
1
1
1
1
1
1
1
1
1
1
1
1
1
1.06639
1.06701
1.06766
1.06833
1.06902
1.06973
1.07045
1.07118
1.07191
1.07265
1.07338
1.0741
1.07481
1.0755
1.07616
1.07681
1.07743
1.07802
1.07857
1.0791
1.07958
1.08004
1.08045
1.08083
1.08118
1.08149
1.08176
1.082
1.08221
1.08239
1.08255
1.08268
1.08278
1.08287
1.08294
1.083
1.08304
1.08307
1.08309
1.0831
1.08311
1.08311
1.0831
1.08309
1.08307
1.08305
1.08302
1.08299
1.08295
1.08291
1.08287
1.08282
1.08277
1.08272
1.08267
1.08262
1.08256
1.08251
1.08245
1.0824
1.08235
1.0823
1.08226
1.08223
1.0822
1.08218
1.08216
1.08216
1.08217
1.08219
1.08223
1.08228
1.08235
1.08243
1.08254
1.08266
1.0828
1.08296
1.08314
1.08334
1.08356
1.08381
1.08407
1.08437
1.08468
1.08503
1.0854
1.08581
1.08624
1.0867
1.08719
1.0877
1.08823
1.08876
1.08931
1.08984
1.09037
1.09089
1.09138
1.09184
1.09227
1.09266
1.09302
1.09334
1.09362
1.09388
1.0941
1.09429
1.09446
1.09461
1.09474
1.09486
1.09496
1.09506
1.09515
1.09524
1.09532
1.0954
1.09548
1.09555
1.09564
1.09572
1.09581
1.0959
1.096
1.09612
1.09624
1.09639
1.09655
1.09674
1.09695
1.0972
1.09747
1.09779
1.09814
1.09853
1.09897
1.09944
1.09994
1.10048
1.10104
1.10161
1.10219
1.10278
1.10335
1.1039
1.10443
1.10492
1.10538
1.10579
1.10615
1.10646
1.10672
1.10693
1.1071
1.10723
1.10732
1.10737
1.1074
1.10741
1.1074
1.10737
1.10732
1.10727
1.1072
1.10712
1.10703
1.10694
1.10682
1.1067
1.10656
1.1064
1.10622
1.10602
1.1058
1.10555
1.10528
1.10498
1.10465
1.10429
1.1039
1.10349
1.10304
1.10257
1.10206
1.10153
1.10096
1.10038
1.09977
1.09913
1.09848
1.09781
1.09713
1.09643
1.09573
1.09503
1.09432
1.09362
1.09293
1.09224
1.09157
1.09091
1.09026
1.08963
1.08903
1.08844
1.08787
1.08733
1.08681
1.08632
1.08585
1.0854
1.08499
1.0846
1.08424
1.08392
1.08363
1.08337
1.08314
1.08295
1.0828
1.08268
1.0826
1.08256
1.08256
1.08259
1.08266
1.08276
1.0829
1.08307
1.08327
1.08351
1.08377
1.08406
1.08437
1.08471
1.08506
1.08544
1.08584
1.08625
1.08668
1.08713
1.08759
1.08806
1.08855
1.08904
1.08955
1.09008
1.09061
1.09116
1.09172
1.0923
1.09288
1.09348
1.09409
1.09471
1.09535
1.09599
1.09665
1.09733
1.09801
1.0987
1.0994
1.1001
1.10081
1.10152
1.10224
1.10295
1.10367
1.10438
1.10508
1.10578
1.10647
1.10716
1.10784
1.10851
1.10916
1.10981
1.11044
1.11105
1.11165
1.11223
1.11279
1.11333
1.11386
1.11436
1.11486
1.11533
1.11579
1.11623
1.11666
1.11707
1.11746
1.11784
1.11818
1.1185
1.11878
1.11901
1.11918
1.11926
1.11924
1.1191
1.11881
1.11835
1.1177
1.11686
1.11582
1.1146
1.1132
1.11168
1.11006
1.1084
1.10674
1.10512
1.10356
1.10207
1.10064
1.09926
1.09788
1.09647
1.09499
1.0934
1.09169
1.08985
1.0879
1.08589
1.08387
1.08191
1.08007
1.0784
1.07694
1.07573
1.07475
1.07402
1.07351
1.07319
1.07303
1.07299
1.07304
1.07312
1.07317
1.07313
1.07293
1.07247
1.07166
1.07042
1.06864
1.06625
1.06319
1.05942
1.05494