# vtk DataFile Version 2.0
LBE two cylinders
ASCII
DATASET STRUCTURED_POINTS
DIMENSIONS 400 100 1
ASPECT_RATIO 1 1 1
ORIGIN 0 0 0
POINT_DATA 40000
SCALARS rho double 1
LOOKUP_TABLE default
1.08965
1.08967
1.08969
1.08971
1.08973
1.08975
1.08977
1.08979
1.08981
1.08982
1.08984
1.08986
1.08987
1.08988
1.08989
1.0899
1.08991
1.08992
1.08993
1.08993
1.08994
1.08994
1.08995
1.08995
1.08996
1.08997
1.08998
1.08999
1.09
1.09001
1.09003
1.09005
1.09007
1.0901
1.09013
1.09017
1.09021
1.09026
1.09031
1.09037
1.09043
1.0905
1.09058
1.09067
1.09077
1.09087
1.09098
1.0911
1.09122
1.09136
1.0915
1.09165
1.0918
1.09197
1.09214
1.09232
1.09251
1.0927
1.0929
1.09311
1.09332
1.09355
1.09377
1.09401
1.09425
1.09449
1.09475
1.095
1.09527
1.09554
1.09582
1.09611
1.0964
1.0967
1.097
1.09732
1.09763
1.09796
1.09829
1.09862
1.09896
1.0993
1.09964
1.09998
1.10032
1.10066
1.10099
1.10132
1.10163
1.10194
1.10223
1.1025
1.10275
1.10298
1.10319
1.10337
1.10353
1.10366
1.10376
1.10384
1.10389
1.10391
1.10391
1.10388
1.10384
1.10378
1.1037
1.1036
1.1035
1.10338
1.10326
1.10312
1.10298
1.10284
1.10269
1.10254
1.10239
1.10224
1.10208
1.10192
1.10176
1.1016
1.10144
1.10128
1.10111
1.10095
1.10078
1.10061
1.10044
1.10028
1.10011
1.09994
1.09977
1.0996
1.09943
1.09927
1.0991
1.09894
1.09878
1.09863
1.09848
1.09833
1.09819
1.09806
1.09793
1.0978
1.09769
1.09758
1.09747
1.09737
1.09728
1.0972
1.09712
1.09705
1.09699
1.09693
1.09688
1.09683
1.09678
1.09675
1.09671
1.09668
1.09665
1.09663
1.09661
1.09659
1.09657
1.09656
1.09654
1.09653
1.09652
1.0965
1.09649
1.09648
1.09647
1.09646
1.09644
1.09643
1.09642
1.0964
1.09639
1.09637
1.09635
1.09633
1.09631
1.09628
1.09626
1.09623
1.0962
1.09617
1.09614
1.09611
1.09608
1.09605
1.09601
1.09598
1.09594
1.0959
1.09585
1.0958
1.09575
1.09568
1.09561
1.09552
1.09542
1.0953
1.09515
1.09497
1.09477
1.09452
1.09424
1.09391
1.09353
1.0931
1.09262
1.09208
1.0915
1.09086
1.09017
1.08945
1.08868
1.08788
1.08706
1.08622
1.08538
1.08454
1.08371
1.08291
1.08214
1.08142
1.08075
1.08013
1.07959
1.07911
1.07871
1.07839
1.07813
1.07795
1.07783
1.07777
1.07775
1.07778
1.07784
1.07792
1.07801
1.07811
1.07822
1.07831
1.0784
1.07848
1.07855
1.0786
1.07863
1.07865
1.07866
1.07865
1.07863
1.07859
1.07855
1.07849
1.07842
1.07835
1.07827
1.07818
1.07809
1.078
1.07791
1.07783
1.07775
1.07768
1.07762
1.07757
1.07752
1.0775
1.07748
1.07748
1.07749
1.07751
1.07754
1.07759
1.07764
1.07771
1.07778
1.07786
1.07794
1.07803
1.07812
1.07822
1.07832
1.07842
1.07852
1.07863
1.07874
1.07886
1.07897
1.07909
1.0792
1.07932
1.07944
1.07956
1.07968
1.0798
1.07991
1.08002
1.08013
1.08023
1.08033
1.08042
1.0805
1.08057
1.08063
1.08068
1.08071
1.08073
1.08074
1.08073
1.08071
1.08066
1.0806
1.08051
1.0804
1.08026
1.0801
1.0799
1.07968
1.07943
1.07914
1.07882
1.07847
1.07808
1.07766
1.07721
1.07672
1.07621
1.07566
1.07508
1.07448
1.07385
1.07319
1.07252
1.07183
1.07113
1.07041
1.06969
1.06895
1.06822
1.06748
1.06675
1.06601
1.06529
1.06457
1.06387
1.06318
1.0625
1.06184
1.0612
1.06058
1.05998
1.05941
1.05886
1.05833
1.05783
1.05736
1.05692
1.05651
1.05613
1.05577
1.05545
1.05515
1.05488
1.05464
1.05443
1.05424
1.05409
1.05396
1.05386
1.05378
1.05373
1.05371
1.05372
1.05376
1.05383
1.05393
1.05406
1.05423
1.05443
1.05467
1.05494
1.05525
1.0556
1.05599
1.05641
1.05687
1.05737
1.0579
1.05845
1.05904
1.05965
1.06029
1.06092
1.08965
1.08966
1.08968
1.0897
1.08972
1.08974
1.08976
1.08978
1.0898
1.08982
1.08984
1.08985
1.08986
1.08988
1.08989
1.0899
1.08991
1.08991
1.08992
1.08993
1.08993
1.08994
1.08995
1.08995
1.08996
1.08997
1.08998
1.08999
1.09
1.09001
1.09003
1.09005
1.09008
1.0901
1.09014
1.09017
1.09022
1.09026
1.09032
1.09038
1.09044
1.09051
1.09059
1.09068
1.09078
1.09088
1.09099
1.09111
1.09123
1.09137
1.09151
1.09166
1.09182
1.09198
1.09215
1.09233
1.09252
1.09271
1.09291
1.09312
1.09333
1.09355
1.09378
1.09401
1.09425
1.09449
1.09474
1.095
1.09526
1.09553
1.09581
1.09609
1.09638
1.09668
1.09698
1.09729
1.0976
1.09792
1.09825
1.09857
1.09891
1.09924
1.09958
1.09991
1.10025
1.10058
1.10091
1.10123
1.10154
1.10184
1.10212
1.10239
1.10264
1.10287
1.10307
1.10326
1.10341
1.10354
1.10365
1.10372
1.10377
1.1038
1.1038
1.10378
1.10374
1.10369
1.10361
1.10352
1.10342
1.10331
1.10319
1.10306
1.10293
1.10279
1.10264
1.10249
1.10234
1.10219
1.10204
1.10188
1.10172
1.10156
1.1014
1.10124
1.10108
1.10091
1.10075
1.10058
1.10042
1.10025
1.10008
1.09991
1.09975
1.09958
1.09942
1.09925
1.09909
1.09893
1.09878
1.09862
1.09847
1.09833
1.09819
1.09806
1.09793
1.0978
1.09769
1.09758
1.09748
1.09738
1.09729
1.09721
1.09713
1.09706
1.09699
1.09693
1.09688
1.09683
1.09679
1.09675
1.09672
1.09668
1.09666
1.09663
1.09661
1.09659
1.09657
1.09656
1.09654
1.09653
1.09652
1.0965
1.09649
1.09648
1.09647
1.09645
1.09644
1.09643
1.09641
1.0964
1.09638
1.09636
1.09634
1.09632
1.0963
1.09628
1.09625
1.09623
1.0962
1.09617
1.09614
1.09611
1.09608
1.09605
1.09601
1.09597
1.09594
1.09589
1.09585
1.0958
1.09574
1.09568
1.0956
1.09551
1.09541
1.09528
1.09513
1.09495
1.09474
1.09449
1.0942
1.09387
1.09348
1.09305
1.09257
1.09203
1.09144
1.0908
1.09012
1.08939
1.08862
1.08783
1.08701
1.08618
1.08534
1.08451
1.08369
1.0829
1.08214
1.08142
1.08076
1.08016
1.07962
1.07915
1.07876
1.07843
1.07818
1.078
1.07788
1.07782
1.0778
1.07782
1.07787
1.07795
1.07804
1.07813
1.07823
1.07832
1.07841
1.07848
1.07854
1.07859
1.07863
1.07864
1.07865
1.07864
1.07862
1.07858
1.07853
1.07848
1.07841
1.07833
1.07825
1.07817
1.07808
1.07799
1.07791
1.07783
1.07775
1.07768
1.07762
1.07757
1.07753
1.0775
1.07748
1.07748
1.07749
1.07751
1.07755
1.07759
1.07764
1.0777
1.07777
1.07785
1.07793
1.07802
1.07811
1.07821
1.07831
1.07841
1.07851
1.07862
1.07873
1.07884
1.07895
1.07906
1.07918
1.0793
1.07941
1.07953
1.07964
1.07976
1.07987
1.07997
1.08007
1.08017
1.08026
1.08034
1.08041
1.08048
1.08053
1.08057
1.0806
1.08062
1.08062
1.0806
1.08056
1.08051
1.08044
1.08034
1.08022
1.08008
1.0799
1.0797
1.07948
1.07922
1.07893
1.07861
1.07825
1.07787
1.07745
1.077
1.07652
1.07601
1.07547
1.0749
1.07431
1.07369
1.07305
1.0724
1.07173
1.07104
1.07035
1.06964
1.06893
1.06822
1.0675
1.06679
1.06607
1.06537
1.06467
1.06399
1.06331
1.06265
1.062
1.06137
1.06076
1.06017
1.0596
1.05905
1.05853
1.05803
1.05756
1.05712
1.0567
1.05632
1.05596
1.05562
1.05532
1.05505
1.0548
1.05458
1.05439
1.05423
1.05409
1.05398
1.0539
1.05385
1.05382
1.05382
1.05386
1.05392
1.05402
1.05415
1.05431
1.05451
1.05474
1.05501
1.05532
1.05566
1.05604
1.05646
1.05692
1.05741
1.05793
1.05848
1.05906
1.05966
1.06028
1.06091
1.08964
1.08965
1.08967
1.08969
1.08971
1.08973
1.08975
1.08977
1.08979
1.08981
1.08982
1.08984
1.08985
1.08986
1.08987
1.08988
1.08989
1.0899
1.08991
1.08992
1.08992
1.08993
1.08993
1.08994
1.08995
1.08996
1.08997
1.08998
1.08999
1.09001
1.09003
1.09005
1.09007
1.0901
1.09013
1.09017
1.09021
1.09026
1.09031
1.09037
1.09044
1.09051
1.09059
1.09068
1.09078
1.09088
1.09099
1.09111
1.09123
1.09137
1.09151
1.09165
1.09181
1.09197
1.09214
1.09232
1.09251
1.0927
1.09289
1.0931
1.09331
1.09353
1.09375
1.09398
1.09422
1.09446
1.09471
1.09496
1.09522
1.09549
1.09576
1.09604
1.09633
1.09662
1.09692
1.09722
1.09753
1.09785
1.09817
1.0985
1.09883
1.09916
1.09949
1.09983
1.10016
1.10049
1.10081
1.10113
1.10144
1.10173
1.10202
1.10228
1.10253
1.10276
1.10297
1.10315
1.10331
1.10344
1.10354
1.10362
1.10368
1.10371
1.10371
1.1037
1.10366
1.10361
1.10354
1.10345
1.10335
1.10324
1.10313
1.103
1.10287
1.10273
1.10259
1.10244
1.1023
1.10214
1.10199
1.10184
1.10168
1.10152
1.10136
1.1012
1.10104
1.10088
1.10071
1.10055
1.10038
1.10022
1.10005
1.09989
1.09972
1.09956
1.09939
1.09923
1.09907
1.09891
1.09876
1.09861
1.09846
1.09832
1.09818
1.09805
1.09792
1.0978
1.09768
1.09758
1.09747
1.09738
1.09729
1.0972
1.09713
1.09706
1.09699
1.09693
1.09688
1.09683
1.09679
1.09675
1.09671
1.09668
1.09665
1.09663
1.0966
1.09658
1.09657
1.09655
1.09653
1.09652
1.09651
1.09649
1.09648
1.09647
1.09646
1.09644
1.09643
1.09642
1.0964
1.09639
1.09637
1.09635
1.09633
1.09631
1.09629
1.09627
1.09624
1.09622
1.09619
1.09616
1.09614
1.09611
1.09607
1.09604
1.09601
1.09597
1.09593
1.09589
1.09585
1.0958
1.09574
1.09568
1.0956
1.09551
1.0954
1.09527
1.09512
1.09494
1.09473
1.09447
1.09418
1.09384
1.09346
1.09302
1.09253
1.09199
1.0914
1.09076
1.09007
1.08934
1.08858
1.08778
1.08697
1.08614
1.08531
1.08448
1.08367
1.08288
1.08213
1.08142
1.08077
1.08017
1.07964
1.07918
1.07879
1.07847
1.07823
1.07805
1.07793
1.07786
1.07785
1.07786
1.07791
1.07798
1.07807
1.07816
1.07825
1.07834
1.07842
1.07849
1.07854
1.07859
1.07862
1.07864
1.07864
1.07863
1.0786
1.07857
1.07852
1.07846
1.07839
1.07832
1.07824
1.07816
1.07807
1.07798
1.0779
1.07782
1.07774
1.07767
1.07761
1.07756
1.07753
1.0775
1.07748
1.07748
1.07749
1.07751
1.07754
1.07758
1.07764
1.0777
1.07776
1.07784
1.07792
1.078
1.07809
1.07819
1.07828
1.07838
1.07848
1.07859
1.07869
1.0788
1.07891
1.07902
1.07913
1.07924
1.07935
1.07946
1.07957
1.07967
1.07978
1.07987
1.07996
1.08005
1.08013
1.0802
1.08026
1.08031
1.08035
1.08038
1.08039
1.08039
1.08038
1.08035
1.0803
1.08023
1.08014
1.08003
1.07989
1.07973
1.07955
1.07934
1.0791
1.07883
1.07854
1.07821
1.07786
1.07747
1.07706
1.07661
1.07614
1.07564
1.07512
1.07457
1.074
1.0734
1.07279
1.07217
1.07153
1.07088
1.07021
1.06955
1.06887
1.06819
1.06752
1.06684
1.06617
1.0655
1.06483
1.06418
1.06353
1.06289
1.06227
1.06166
1.06107
1.06049
1.05993
1.05939
1.05888
1.05838
1.05791
1.05747
1.05705
1.05665
1.05628
1.05594
1.05563
1.05534
1.05508
1.05485
1.05465
1.05447
1.05432
1.0542
1.05411
1.05404
1.054
1.054
1.05402
1.05407
1.05416
1.05428
1.05443
1.05462
1.05485
1.05511
1.05541
1.05575
1.05613
1.05654
1.05699
1.05747
1.05799
1.05853
1.0591
1.0597
1.06031
1.06094
1.08962
1.08964
1.08966
1.08968
1.0897
1.08972
1.08974
1.08975
1.08977
1.08979
1.0898
1.08982
1.08983
1.08984
1.08985
1.08986
1.08987
1.08988
1.08989
1.0899
1.0899
1.08991
1.08992
1.08992
1.08993
1.08994
1.08995
1.08996
1.08998
1.08999
1.09001
1.09003
1.09006
1.09009
1.09012
1.09016
1.0902
1.09025
1.0903
1.09036
1.09043
1.0905
1.09058
1.09067
1.09076
1.09087
1.09098
1.09109
1.09122
1.09135
1.09149
1.09163
1.09179
1.09195
1.09211
1.09229
1.09247
1.09266
1.09285
1.09305
1.09326
1.09347
1.09369
1.09392
1.09415
1.09439
1.09463
1.09489
1.09514
1.09541
1.09568
1.09595
1.09623
1.09652
1.09682
1.09712
1.09743
1.09774
1.09806
1.09838
1.09871
1.09904
1.09937
1.0997
1.10003
1.10036
1.10069
1.101
1.10131
1.10161
1.1019
1.10217
1.10242
1.10265
1.10286
1.10304
1.1032
1.10334
1.10345
1.10353
1.10359
1.10362
1.10363
1.10362
1.10358
1.10353
1.10346
1.10338
1.10328
1.10318
1.10306
1.10294
1.10281
1.10267
1.10253
1.10239
1.10224
1.10209
1.10194
1.10178
1.10163
1.10147
1.10131
1.10115
1.10099
1.10083
1.10067
1.10051
1.10034
1.10018
1.10001
1.09985
1.09969
1.09952
1.09936
1.0992
1.09904
1.09889
1.09874
1.09859
1.09844
1.0983
1.09816
1.09803
1.09791
1.09779
1.09767
1.09756
1.09746
1.09737
1.09728
1.09719
1.09712
1.09705
1.09698
1.09692
1.09687
1.09682
1.09678
1.09674
1.0967
1.09667
1.09664
1.09661
1.09659
1.09657
1.09655
1.09653
1.09652
1.0965
1.09649
1.09647
1.09646
1.09645
1.09644
1.09642
1.09641
1.0964
1.09638
1.09637
1.09635
1.09633
1.09631
1.09629
1.09627
1.09625
1.09623
1.0962
1.09618
1.09615
1.09612
1.0961
1.09607
1.09603
1.096
1.09597
1.09593
1.09589
1.09585
1.0958
1.09574
1.09568
1.0956
1.09551
1.0954
1.09527
1.09512
1.09493
1.09472
1.09446
1.09417
1.09383
1.09344
1.093
1.0925
1.09196
1.09137
1.09072
1.09004
1.08931
1.08854
1.08775
1.08693
1.08611
1.08528
1.08445
1.08365
1.08287
1.08212
1.08142
1.08077
1.08019
1.07966
1.07921
1.07883
1.07851
1.07827
1.07809
1.07797
1.07791
1.07789
1.0779
1.07795
1.07802
1.07809
1.07818
1.07826
1.07835
1.07842
1.07849
1.07854
1.07858
1.07861
1.07862
1.07862
1.07861
1.07859
1.07855
1.0785
1.07844
1.07838
1.0783
1.07823
1.07814
1.07806
1.07797
1.07789
1.07781
1.07774
1.07767
1.07761
1.07756
1.07752
1.0775
1.07748
1.07748
1.07748
1.0775
1.07753
1.07757
1.07762
1.07768
1.07775
1.07782
1.0779
1.07798
1.07806
1.07815
1.07825
1.07834
1.07844
1.07854
1.07864
1.07874
1.07885
1.07895
1.07905
1.07916
1.07926
1.07936
1.07946
1.07955
1.07964
1.07972
1.0798
1.07987
1.07993
1.07999
1.08003
1.08006
1.08008
1.08009
1.08009
1.08006
1.08003
1.07998
1.0799
1.07981
1.0797
1.07957
1.07942
1.07924
1.07904
1.07882
1.07857
1.07829
1.07798
1.07765
1.0773
1.07691
1.0765
1.07607
1.07561
1.07513
1.07462
1.0741
1.07356
1.073
1.07243
1.07184
1.07124
1.07064
1.07002
1.0694
1.06878
1.06815
1.06753
1.0669
1.06627
1.06565
1.06504
1.06442
1.06382
1.06322
1.06263
1.06205
1.06149
1.06093
1.06039
1.05987
1.05936
1.05887
1.0584
1.05795
1.05753
1.05713
1.05675
1.05639
1.05607
1.05576
1.05549
1.05524
1.05501
1.05482
1.05465
1.05451
1.0544
1.05432
1.05426
1.05424
1.05425
1.05429
1.05436
1.05447
1.05461
1.05479
1.055
1.05525
1.05555
1.05587
1.05624
1.05664
1.05708
1.05756
1.05806
1.0586
1.05917
1.05976
1.06037
1.06099
1.0896
1.08962
1.08964
1.08966
1.08968
1.08969
1.08971
1.08973
1.08975
1.08976
1.08978
1.08979
1.0898
1.08982
1.08983
1.08984
1.08985
1.08985
1.08986
1.08987
1.08988
1.08988
1.08989
1.0899
1.08991
1.08992
1.08993
1.08994
1.08995
1.08997
1.08999
1.09001
1.09004
1.09007
1.0901
1.09014
1.09018
1.09023
1.09029
1.09035
1.09041
1.09048
1.09056
1.09065
1.09074
1.09084
1.09095
1.09106
1.09118
1.09131
1.09145
1.09159
1.09174
1.0919
1.09206
1.09223
1.09241
1.0926
1.09279
1.09298
1.09318
1.09339
1.09361
1.09383
1.09406
1.09429
1.09453
1.09478
1.09503
1.09529
1.09555
1.09583
1.0961
1.09639
1.09668
1.09698
1.09728
1.09759
1.09791
1.09823
1.09856
1.09889
1.09922
1.09955
1.09988
1.10021
1.10054
1.10086
1.10117
1.10147
1.10176
1.10203
1.10229
1.10253
1.10274
1.10293
1.1031
1.10324
1.10335
1.10344
1.1035
1.10354
1.10355
1.10354
1.10351
1.10346
1.10339
1.10331
1.10321
1.10311
1.10299
1.10287
1.10274
1.10261
1.10247
1.10232
1.10218
1.10203
1.10188
1.10172
1.10157
1.10141
1.10126
1.1011
1.10094
1.10078
1.10062
1.10046
1.10029
1.10013
1.09997
1.09981
1.09964
1.09948
1.09932
1.09916
1.09901
1.09885
1.0987
1.09856
1.09841
1.09827
1.09814
1.09801
1.09788
1.09777
1.09765
1.09754
1.09744
1.09735
1.09726
1.09718
1.0971
1.09703
1.09697
1.09691
1.09685
1.0968
1.09676
1.09672
1.09668
1.09665
1.09662
1.09659
1.09657
1.09655
1.09653
1.09651
1.09649
1.09648
1.09646
1.09645
1.09644
1.09642
1.09641
1.0964
1.09638
1.09637
1.09636
1.09634
1.09632
1.09631
1.09629
1.09627
1.09625
1.09623
1.09621
1.09618
1.09616
1.09614
1.09611
1.09608
1.09605
1.09602
1.09599
1.09596
1.09592
1.09589
1.09584
1.0958
1.09574
1.09568
1.0956
1.09551
1.0954
1.09527
1.09512
1.09493
1.09472
1.09446
1.09416
1.09382
1.09343
1.09298
1.09249
1.09194
1.09135
1.0907
1.09001
1.08928
1.08851
1.08772
1.08691
1.08608
1.08526
1.08444
1.08364
1.08286
1.08212
1.08143
1.08079
1.08021
1.07969
1.07924
1.07886
1.07856
1.07832
1.07814
1.07802
1.07795
1.07793
1.07794
1.07798
1.07804
1.07812
1.0782
1.07828
1.07835
1.07842
1.07848
1.07853
1.07857
1.0786
1.07861
1.0786
1.07859
1.07856
1.07853
1.07848
1.07842
1.07836
1.07828
1.07821
1.07813
1.07804
1.07796
1.07788
1.0778
1.07773
1.07767
1.07761
1.07756
1.07752
1.07749
1.07747
1.07747
1.07747
1.07749
1.07752
1.07755
1.0776
1.07765
1.07772
1.07778
1.07786
1.07793
1.07802
1.0781
1.07819
1.07828
1.07837
1.07847
1.07856
1.07866
1.07875
1.07885
1.07894
1.07904
1.07913
1.07921
1.0793
1.07938
1.07945
1.07952
1.07957
1.07963
1.07967
1.0797
1.07972
1.07973
1.07973
1.07971
1.07968
1.07963
1.07957
1.07949
1.0794
1.07928
1.07915
1.07899
1.07882
1.07862
1.0784
1.07816
1.07789
1.0776
1.07729
1.07696
1.0766
1.07622
1.07582
1.0754
1.07496
1.0745
1.07402
1.07353
1.07302
1.0725
1.07197
1.07143
1.07089
1.07034
1.06978
1.06922
1.06865
1.06809
1.06752
1.06696
1.06639
1.06583
1.06527
1.06471
1.06416
1.06361
1.06306
1.06252
1.06199
1.06147
1.06095
1.06045
1.05995
1.05947
1.05901
1.05856
1.05813
1.05772
1.05734
1.05697
1.05662
1.0563
1.05601
1.05573
1.05549
1.05527
1.05508
1.05492
1.05478
1.05467
1.0546
1.05456
1.05454
1.05456
1.05462
1.05471
1.05483
1.055
1.0552
1.05544
1.05571
1.05603
1.05638
1.05678
1.05721
1.05767
1.05817
1.0587
1.05925
1.05983
1.06044
1.06107
1.08958
1.08959
1.08961
1.08963
1.08965
1.08967
1.08968
1.0897
1.08972
1.08973
1.08975
1.08976
1.08977
1.08978
1.08979
1.0898
1.08981
1.08982
1.08983
1.08984
1.08984
1.08985
1.08986
1.08987
1.08988
1.08989
1.0899
1.08991
1.08993
1.08994
1.08996
1.08999
1.09001
1.09004
1.09008
1.09011
1.09016
1.0902
1.09026
1.09032
1.09038
1.09045
1.09053
1.09061
1.09071
1.0908
1.09091
1.09102
1.09114
1.09126
1.0914
1.09153
1.09168
1.09183
1.09199
1.09216
1.09233
1.09251
1.09269
1.09288
1.09308
1.09328
1.09349
1.0937
1.09393
1.09415
1.09439
1.09463
1.09488
1.09513
1.09539
1.09566
1.09593
1.09621
1.0965
1.0968
1.0971
1.0974
1.09772
1.09804
1.09836
1.09869
1.09902
1.09935
1.09969
1.10002
1.10035
1.10067
1.10099
1.1013
1.10159
1.10187
1.10214
1.10238
1.1026
1.1028
1.10297
1.10312
1.10324
1.10333
1.1034
1.10344
1.10345
1.10345
1.10342
1.10337
1.1033
1.10322
1.10313
1.10303
1.10291
1.10279
1.10266
1.10253
1.10239
1.10225
1.1021
1.10195
1.1018
1.10165
1.1015
1.10135
1.10119
1.10103
1.10088
1.10072
1.10056
1.1004
1.10023
1.10007
1.09991
1.09975
1.09959
1.09943
1.09927
1.09912
1.09896
1.09881
1.09866
1.09852
1.09837
1.09824
1.0981
1.09798
1.09785
1.09774
1.09762
1.09752
1.09742
1.09732
1.09723
1.09715
1.09708
1.09701
1.09694
1.09688
1.09683
1.09678
1.09673
1.09669
1.09665
1.09662
1.09659
1.09656
1.09654
1.09652
1.0965
1.09648
1.09646
1.09645
1.09643
1.09642
1.0964
1.09639
1.09638
1.09636
1.09635
1.09634
1.09632
1.09631
1.09629
1.09628
1.09626
1.09624
1.09622
1.0962
1.09618
1.09616
1.09614
1.09611
1.09609
1.09607
1.09604
1.09601
1.09598
1.09595
1.09592
1.09588
1.09584
1.0958
1.09574
1.09568
1.0956
1.09552
1.09541
1.09528
1.09512
1.09494
1.09472
1.09446
1.09416
1.09382
1.09342
1.09298
1.09248
1.09193
1.09133
1.09068
1.08999
1.08926
1.0885
1.0877
1.08689
1.08607
1.08524
1.08443
1.08363
1.08286
1.08213
1.08144
1.08081
1.08023
1.07972
1.07928
1.07891
1.0786
1.07836
1.07819
1.07807
1.078
1.07798
1.07798
1.07802
1.07807
1.07814
1.07821
1.07829
1.07836
1.07842
1.07848
1.07852
1.07855
1.07858
1.07858
1.07858
1.07856
1.07854
1.0785
1.07845
1.0784
1.07833
1.07826
1.07819
1.07811
1.07803
1.07795
1.07787
1.07779
1.07772
1.07766
1.0776
1.07755
1.07751
1.07748
1.07746
1.07745
1.07746
1.07747
1.07749
1.07752
1.07756
1.07761
1.07767
1.07773
1.0778
1.07787
1.07795
1.07803
1.07811
1.0782
1.07828
1.07837
1.07845
1.07854
1.07863
1.07871
1.07879
1.07887
1.07895
1.07902
1.07908
1.07915
1.0792
1.07924
1.07928
1.07931
1.07933
1.07933
1.07933
1.07931
1.07928
1.07924
1.07918
1.0791
1.07901
1.0789
1.07878
1.07864
1.07847
1.07829
1.0781
1.07788
1.07764
1.07738
1.0771
1.0768
1.07649
1.07615
1.07579
1.07542
1.07503
1.07463
1.07421
1.07377
1.07333
1.07287
1.07241
1.07194
1.07146
1.07097
1.07048
1.06999
1.0695
1.069
1.0685
1.068
1.06751
1.06701
1.06651
1.06602
1.06552
1.06502
1.06453
1.06403
1.06354
1.06305
1.06256
1.06207
1.06158
1.06111
1.06063
1.06017
1.05972
1.05927
1.05884
1.05843
1.05803
1.05765
1.05729
1.05695
1.05663
1.05634
1.05607
1.05582
1.0556
1.05541
1.05525
1.05512
1.05502
1.05495
1.05491
1.05491
1.05494
1.05501
1.05511
1.05526
1.05544
1.05566
1.05592
1.05622
1.05656
1.05694
1.05736
1.05781
1.05829
1.05881
1.05936
1.05993
1.06053
1.06115
1.08955
1.08956
1.08958
1.0896
1.08962
1.08964
1.08965
1.08967
1.08968
1.0897
1.08971
1.08972
1.08973
1.08975
1.08976
1.08976
1.08977
1.08978
1.08979
1.0898
1.0898
1.08981
1.08982
1.08983
1.08984
1.08985
1.08986
1.08987
1.08989
1.08991
1.08993
1.08995
1.08998
1.09001
1.09004
1.09008
1.09012
1.09017
1.09022
1.09028
1.09034
1.09041
1.09049
1.09057
1.09066
1.09075
1.09085
1.09096
1.09107
1.0912
1.09132
1.09146
1.0916
1.09174
1.0919
1.09205
1.09222
1.09239
1.09257
1.09275
1.09294
1.09314
1.09334
1.09355
1.09376
1.09399
1.09421
1.09445
1.09469
1.09494
1.09519
1.09546
1.09573
1.096
1.09629
1.09658
1.09687
1.09718
1.09749
1.09781
1.09813
1.09846
1.09879
1.09912
1.09946
1.09979
1.10013
1.10045
1.10078
1.10109
1.10139
1.10168
1.10196
1.10221
1.10244
1.10265
1.10283
1.10299
1.10311
1.10321
1.10328
1.10333
1.10335
1.10334
1.10332
1.10327
1.10321
1.10313
1.10304
1.10293
1.10282
1.1027
1.10257
1.10244
1.1023
1.10216
1.10202
1.10187
1.10172
1.10157
1.10142
1.10127
1.10111
1.10096
1.1008
1.10064
1.10048
1.10033
1.10017
1.10001
1.09985
1.09969
1.09953
1.09937
1.09921
1.09906
1.09891
1.09876
1.09861
1.09847
1.09833
1.09819
1.09806
1.09793
1.09781
1.0977
1.09759
1.09748
1.09738
1.09729
1.0972
1.09712
1.09704
1.09697
1.09691
1.09685
1.09679
1.09674
1.0967
1.09666
1.09662
1.09659
1.09656
1.09653
1.0965
1.09648
1.09646
1.09644
1.09642
1.09641
1.09639
1.09638
1.09636
1.09635
1.09634
1.09632
1.09631
1.0963
1.09628
1.09627
1.09626
1.09624
1.09622
1.09621
1.09619
1.09617
1.09615
1.09613
1.09611
1.09609
1.09607
1.09605
1.09602
1.096
1.09597
1.09594
1.09591
1.09588
1.09584
1.0958
1.09574
1.09568
1.09561
1.09552
1.09542
1.09529
1.09513
1.09495
1.09473
1.09447
1.09417
1.09382
1.09342
1.09298
1.09248
1.09193
1.09132
1.09068
1.08998
1.08925
1.08848
1.08769
1.08688
1.08606
1.08524
1.08442
1.08363
1.08287
1.08214
1.08146
1.08083
1.08026
1.07976
1.07932
1.07895
1.07865
1.07842
1.07824
1.07812
1.07805
1.07802
1.07803
1.07805
1.0781
1.07816
1.07823
1.07829
1.07836
1.07841
1.07846
1.0785
1.07853
1.07855
1.07856
1.07855
1.07853
1.0785
1.07847
1.07842
1.07836
1.0783
1.07823
1.07816
1.07808
1.07801
1.07793
1.07785
1.07778
1.07771
1.07764
1.07759
1.07754
1.0775
1.07746
1.07744
1.07743
1.07743
1.07743
1.07745
1.07748
1.07751
1.07755
1.0776
1.07766
1.07772
1.07778
1.07785
1.07792
1.078
1.07807
1.07815
1.07823
1.0783
1.07838
1.07845
1.07852
1.07859
1.07865
1.07871
1.07877
1.07881
1.07885
1.07888
1.0789
1.07892
1.07892
1.07891
1.07889
1.07885
1.07881
1.07875
1.07867
1.07858
1.07847
1.07835
1.07822
1.07806
1.07789
1.0777
1.0775
1.07728
1.07704
1.07678
1.07651
1.07622
1.07591
1.07559
1.07526
1.07491
1.07455
1.07418
1.07379
1.0734
1.073
1.07259
1.07217
1.07175
1.07133
1.0709
1.07047
1.07005
1.06962
1.06919
1.06876
1.06833
1.0679
1.06747
1.06705
1.06662
1.06619
1.06577
1.06534
1.06491
1.06447
1.06404
1.0636
1.06315
1.06271
1.06226
1.06182
1.06137
1.06093
1.06049
1.06006
1.05964
1.05922
1.05882
1.05843
1.05805
1.05769
1.05736
1.05704
1.05674
1.05647
1.05622
1.056
1.05581
1.05565
1.05552
1.05542
1.05535
1.05532
1.05533
1.05537
1.05545
1.05557
1.05573
1.05593
1.05618
1.05646
1.05678
1.05714
1.05754
1.05798
1.05845
1.05895
1.05949
1.06005
1.06064
1.06125
1.08951
1.08953
1.08955
1.08957
1.08958
1.0896
1.08961
1.08963
1.08964
1.08966
1.08967
1.08968
1.08969
1.0897
1.08971
1.08972
1.08973
1.08974
1.08975
1.08975
1.08976
1.08977
1.08978
1.08979
1.0898
1.08981
1.08982
1.08983
1.08985
1.08987
1.08989
1.08991
1.08994
1.08997
1.09
1.09004
1.09008
1.09012
1.09017
1.09023
1.09029
1.09036
1.09043
1.09051
1.09059
1.09069
1.09078
1.09089
1.09099
1.09111
1.09123
1.09136
1.09149
1.09163
1.09178
1.09193
1.09209
1.09225
1.09242
1.0926
1.09278
1.09297
1.09316
1.09336
1.09357
1.09378
1.09401
1.09423
1.09447
1.09471
1.09496
1.09522
1.09548
1.09575
1.09603
1.09632
1.09661
1.09691
1.09722
1.09754
1.09786
1.09818
1.09851
1.09885
1.09919
1.09952
1.09986
1.1002
1.10053
1.10085
1.10116
1.10146
1.10174
1.10201
1.10225
1.10247
1.10266
1.10282
1.10296
1.10307
1.10315
1.1032
1.10322
1.10322
1.1032
1.10315
1.10309
1.10301
1.10292
1.10282
1.10271
1.10259
1.10246
1.10233
1.10219
1.10206
1.10191
1.10177
1.10162
1.10147
1.10132
1.10117
1.10102
1.10087
1.10071
1.10056
1.1004
1.10024
1.10008
1.09993
1.09977
1.09961
1.09945
1.0993
1.09914
1.09899
1.09884
1.09869
1.09855
1.09841
1.09827
1.09814
1.09801
1.09788
1.09776
1.09765
1.09754
1.09743
1.09734
1.09724
1.09716
1.09708
1.097
1.09693
1.09687
1.09681
1.09675
1.0967
1.09666
1.09662
1.09658
1.09655
1.09651
1.09649
1.09646
1.09644
1.09642
1.0964
1.09638
1.09636
1.09635
1.09633
1.09632
1.09631
1.09629
1.09628
1.09627
1.09625
1.09624
1.09623
1.09621
1.0962
1.09619
1.09617
1.09615
1.09614
1.09612
1.0961
1.09608
1.09607
1.09605
1.09603
1.096
1.09598
1.09596
1.09593
1.0959
1.09587
1.09584
1.0958
1.09575
1.09569
1.09562
1.09553
1.09543
1.0953
1.09514
1.09496
1.09474
1.09448
1.09418
1.09383
1.09343
1.09298
1.09248
1.09193
1.09132
1.09067
1.08998
1.08924
1.08847
1.08768
1.08687
1.08605
1.08523
1.08443
1.08364
1.08288
1.08216
1.08148
1.08086
1.0803
1.0798
1.07937
1.07901
1.07871
1.07848
1.0783
1.07818
1.07811
1.07807
1.07807
1.07809
1.07813
1.07818
1.07824
1.0783
1.07835
1.0784
1.07845
1.07848
1.07851
1.07852
1.07852
1.07851
1.07849
1.07846
1.07843
1.07838
1.07832
1.07826
1.0782
1.07813
1.07805
1.07798
1.0779
1.07783
1.07775
1.07769
1.07762
1.07756
1.07751
1.07747
1.07743
1.07741
1.07739
1.07738
1.07738
1.07739
1.07741
1.07743
1.07746
1.0775
1.07755
1.0776
1.07766
1.07772
1.07778
1.07784
1.07791
1.07797
1.07804
1.0781
1.07817
1.07822
1.07828
1.07833
1.07838
1.07841
1.07845
1.07847
1.07849
1.07849
1.07849
1.07847
1.07845
1.07841
1.07836
1.07829
1.07821
1.07812
1.07802
1.07789
1.07776
1.07761
1.07744
1.07726
1.07706
1.07685
1.07662
1.07638
1.07613
1.07586
1.07557
1.07528
1.07497
1.07465
1.07432
1.07398
1.07363
1.07328
1.07292
1.07256
1.07219
1.07182
1.07145
1.07108
1.0707
1.07033
1.06996
1.06959
1.06922
1.06886
1.0685
1.06814
1.06778
1.06742
1.06707
1.06671
1.06636
1.066
1.06564
1.06527
1.0649
1.06453
1.06415
1.06376
1.06336
1.06296
1.06256
1.06215
1.06173
1.06132
1.0609
1.06049
1.06008
1.05968
1.05928
1.0589
1.05852
1.05817
1.05783
1.05751
1.05721
1.05693
1.05668
1.05646
1.05626
1.0561
1.05597
1.05587
1.05581
1.05579
1.0558
1.05585
1.05595
1.05608
1.05626
1.05648
1.05674
1.05704
1.05738
1.05776
1.05818
1.05863
1.05912
1.05964
1.06019
1.06077
1.06137
1.08947
1.08949
1.08951
1.08953
1.08954
1.08956
1.08957
1.08959
1.0896
1.08961
1.08962
1.08964
1.08965
1.08966
1.08966
1.08967
1.08968
1.08969
1.0897
1.0897
1.08971
1.08972
1.08973
1.08974
1.08975
1.08976
1.08977
1.08978
1.0898
1.08982
1.08984
1.08986
1.08989
1.08992
1.08995
1.08998
1.09002
1.09007
1.09012
1.09017
1.09023
1.09029
1.09036
1.09044
1.09052
1.0906
1.0907
1.09079
1.0909
1.09101
1.09112
1.09124
1.09137
1.0915
1.09164
1.09178
1.09193
1.09209
1.09225
1.09241
1.09259
1.09277
1.09296
1.09315
1.09335
1.09356
1.09377
1.09399
1.09422
1.09445
1.0947
1.09495
1.09521
1.09547
1.09575
1.09603
1.09632
1.09662
1.09692
1.09723
1.09755
1.09788
1.09821
1.09854
1.09888
1.09922
1.09956
1.0999
1.10024
1.10057
1.10089
1.1012
1.10149
1.10177
1.10202
1.10225
1.10246
1.10263
1.10278
1.1029
1.10298
1.10304
1.10307
1.10308
1.10306
1.10302
1.10296
1.10288
1.10279
1.10269
1.10258
1.10246
1.10234
1.10221
1.10207
1.10194
1.1018
1.10165
1.10151
1.10136
1.10122
1.10107
1.10092
1.10076
1.10061
1.10046
1.1003
1.10015
1.09999
1.09984
1.09968
1.09952
1.09937
1.09922
1.09906
1.09891
1.09876
1.09862
1.09848
1.09834
1.0982
1.09807
1.09794
1.09782
1.0977
1.09759
1.09748
1.09738
1.09728
1.09719
1.09711
1.09703
1.09695
1.09688
1.09682
1.09676
1.09671
1.09666
1.09661
1.09657
1.09653
1.0965
1.09647
1.09644
1.09641
1.09639
1.09637
1.09635
1.09633
1.09631
1.0963
1.09628
1.09627
1.09626
1.09624
1.09623
1.09622
1.09621
1.0962
1.09618
1.09617
1.09616
1.09614
1.09613
1.09612
1.0961
1.09609
1.09607
1.09606
1.09604
1.09602
1.096
1.09599
1.09597
1.09595
1.09592
1.0959
1.09587
1.09584
1.0958
1.09575
1.09569
1.09563
1.09554
1.09544
1.09531
1.09516
1.09498
1.09476
1.0945
1.09419
1.09385
1.09345
1.09299
1.09249
1.09193
1.09133
1.09067
1.08998
1.08924
1.08847
1.08768
1.08687
1.08605
1.08524
1.08443
1.08365
1.08289
1.08218
1.08151
1.0809
1.08034
1.07985
1.07943
1.07907
1.07877
1.07854
1.07836
1.07824
1.07816
1.07812
1.07811
1.07813
1.07816
1.0782
1.07825
1.0783
1.07835
1.07839
1.07843
1.07845
1.07847
1.07848
1.07848
1.07847
1.07845
1.07842
1.07838
1.07833
1.07828
1.07822
1.07815
1.07808
1.07801
1.07794
1.07786
1.07779
1.07772
1.07765
1.07759
1.07753
1.07747
1.07742
1.07738
1.07735
1.07733
1.07731
1.0773
1.0773
1.07731
1.07732
1.07734
1.07737
1.07741
1.07744
1.07749
1.07754
1.07759
1.07764
1.07769
1.07774
1.0778
1.07784
1.07789
1.07793
1.07797
1.078
1.07803
1.07804
1.07805
1.07805
1.07804
1.07802
1.07799
1.07795
1.07789
1.07782
1.07774
1.07765
1.07754
1.07742
1.07728
1.07713
1.07697
1.07679
1.07659
1.07639
1.07617
1.07594
1.07569
1.07543
1.07516
1.07488
1.07459
1.0743
1.07399
1.07368
1.07336
1.07303
1.07271
1.07238
1.07205
1.07171
1.07138
1.07105
1.07073
1.0704
1.07008
1.06976
1.06944
1.06913
1.06883
1.06853
1.06823
1.06794
1.06765
1.06736
1.06707
1.06679
1.0665
1.06621
1.06592
1.06562
1.06531
1.065
1.06468
1.06435
1.06401
1.06366
1.0633
1.06292
1.06255
1.06216
1.06177
1.06138
1.06098
1.06058
1.06019
1.0598
1.05942
1.05905
1.05869
1.05835
1.05803
1.05773
1.05745
1.05719
1.05696
1.05677
1.0566
1.05647
1.05638
1.05632
1.0563
1.05632
1.05639
1.05649
1.05664
1.05683
1.05706
1.05734
1.05766
1.05802
1.05842
1.05885
1.05932
1.05982
1.06036
1.06092
1.0615
1.08943
1.08945
1.08947
1.08949
1.0895
1.08952
1.08953
1.08954
1.08955
1.08957
1.08958
1.08959
1.0896
1.0896
1.08961
1.08962
1.08963
1.08964
1.08964
1.08965
1.08966
1.08967
1.08967
1.08968
1.08969
1.0897
1.08972
1.08973
1.08975
1.08976
1.08978
1.08981
1.08983
1.08986
1.08989
1.08992
1.08996
1.09
1.09005
1.0901
1.09016
1.09022
1.09028
1.09035
1.09043
1.09051
1.09059
1.09068
1.09078
1.09088
1.09099
1.0911
1.09122
1.09134
1.09147
1.09161
1.09175
1.09189
1.09205
1.09221
1.09237
1.09254
1.09272
1.09291
1.0931
1.0933
1.0935
1.09372
1.09394
1.09417
1.0944
1.09465
1.0949
1.09516
1.09543
1.09571
1.09599
1.09629
1.09659
1.0969
1.09721
1.09754
1.09787
1.0982
1.09854
1.09888
1.09923
1.09957
1.09991
1.10025
1.10058
1.1009
1.10121
1.10149
1.10176
1.10201
1.10222
1.10241
1.10257
1.1027
1.10279
1.10286
1.1029
1.10291
1.10289
1.10285
1.1028
1.10272
1.10264
1.10254
1.10243
1.10231
1.10219
1.10206
1.10193
1.1018
1.10166
1.10152
1.10138
1.10123
1.10109
1.10094
1.1008
1.10065
1.1005
1.10034
1.10019
1.10004
1.09988
1.09973
1.09958
1.09942
1.09927
1.09912
1.09897
1.09882
1.09867
1.09853
1.09839
1.09825
1.09812
1.09799
1.09787
1.09775
1.09763
1.09752
1.09741
1.09731
1.09722
1.09713
1.09705
1.09697
1.09689
1.09683
1.09676
1.0967
1.09665
1.0966
1.09656
1.09652
1.09648
1.09644
1.09641
1.09638
1.09636
1.09633
1.09631
1.09629
1.09628
1.09626
1.09624
1.09623
1.09622
1.0962
1.09619
1.09618
1.09617
1.09616
1.09615