# vtk DataFile Version 2.0
LBE two cylinders
ASCII
DATASET STRUCTURED_POINTS
DIMENSIONS 400 100 1
ASPECT_RATIO 1 1 1
ORIGIN 0 0 0
POINT_DATA 40000
SCALARS rho double 1
LOOKUP_TABLE default
1.37149
1.37074
1.37007
1.36951
1.36906
1.36873
1.36855
1.36851
1.36861
1.36887
1.36927
1.36982
1.37049
1.37128
1.37217
1.37313
1.37413
1.37516
1.37617
1.37715
1.37807
1.3789
1.37964
1.38027
1.38079
1.38121
1.38153
1.38176
1.38192
1.38202
1.38207
1.38209
1.38208
1.38204
1.382
1.38194
1.38189
1.38184
1.38181
1.3818
1.38183
1.38191
1.38204
1.38224
1.38251
1.38286
1.38329
1.38381
1.38439
1.38505
1.38578
1.38656
1.38739
1.38827
1.38917
1.3901
1.39105
1.39201
1.39298
1.39395
1.39494
1.39592
1.39691
1.39789
1.39887
1.39985
1.40081
1.40177
1.40271
1.40363
1.40453
1.40541
1.40625
1.40707
1.40786
1.40861
1.40933
1.41001
1.41064
1.41123
1.41176
1.41223
1.41263
1.41295
1.41318
1.4133
1.41331
1.4132
1.41296
1.41257
1.41204
1.41136
1.41052
1.40953
1.40841
1.40716
1.40582
1.40443
1.40304
1.40171
1.40048
1.39942
1.39858
1.398
1.3977
1.39771
1.39802
1.39861
1.39946
1.40051
1.40173
1.40306
1.40443
1.40579
1.4071
1.4083
1.40937
1.41028
1.41101
1.41155
1.41191
1.41208
1.41207
1.4119
1.41157
1.41109
1.41048
1.40976
1.40893
1.40802
1.40703
1.40597
1.40486
1.40371
1.40253
1.40132
1.40011
1.39888
1.39767
1.39647
1.39528
1.39413
1.393
1.39192
1.39087
1.38987
1.38892
1.38801
1.38715
1.38634
1.38558
1.38486
1.38419
1.38356
1.38297
1.38242
1.3819
1.38142
1.38097
1.38055
1.38016
1.3798
1.37947
1.37917
1.37889
1.37864
1.37842
1.37823
1.37806
1.37792
1.37781
1.37772
1.37767
1.37765
1.37767
1.37773
1.37783
1.37799
1.37819
1.37844
1.37873
1.37907
1.37943
1.37981
1.3802
1.38056
1.38088
1.38114
1.38132
1.38141
1.38139
1.38125
1.38101
1.38065
1.38019
1.37964
1.37901
1.37832
1.37759
1.37684
1.37609
1.37537
1.37468
1.37405
1.3735
1.37303
1.37266
1.3724
1.37223
1.37217
1.3722
1.37233
1.37254
1.37283
1.37318
1.37359
1.37406
1.37457
1.37514
1.37575
1.37641
1.37712
1.37789
1.37873
1.37964
1.38062
1.38167
1.3828
1.384
1.38526
1.38659
1.38797
1.38938
1.39081
1.39224
1.39364
1.39499
1.39627
1.39745
1.39851
1.39943
1.40018
1.40078
1.40122
1.40152
1.4017
1.40179
1.40184
1.40187
1.40194
1.40205
1.40222
1.40245
1.40272
1.403
1.40326
1.40346
1.40359
1.40363
1.40362
1.40359
1.40361
1.40375
1.40404
1.4045
1.40513
1.40585
1.40655
1.4071
1.40737
1.40727
1.40674
1.40578
1.40448
1.40294
1.40131
1.39971
1.39826
1.39702
1.39602
1.39527
1.39471
1.39429
1.39389
1.39339
1.39263
1.39147
1.38978
1.3875
1.38463
1.38125
1.37752
1.37364
1.36982
1.36623
1.36301
1.36021
1.35788
1.35601
1.35454
1.35344
1.35263
1.35203
1.35158
1.35121
1.35088
1.35056
1.35023
1.34991
1.34961
1.34935
1.34914
1.34899
1.34889
1.34884
1.34886
1.34895
1.34916
1.34954
1.35017
1.35114
1.35259
1.35461
1.35733
1.36082
1.36511
1.37018
1.37598
1.38243
1.38948
1.39708
1.40509
1.41322
1.42095
1.42759
1.43241
1.43491
1.43494
1.43266
1.4285
1.42302
1.41675
1.41014
1.40358
1.39736
1.39171
1.38682
1.3828
1.37977
1.37777
1.37681
1.37686
1.37783
1.37958
1.38194
1.3847
1.38762
1.39047
1.39305
1.39522
1.39689
1.39803
1.39869
1.39896
1.39895
1.39877
1.39852
1.39828
1.39809
1.39798
1.39793
1.39792
1.3979
1.39782
1.39766
1.39736
1.39693
1.39634
1.3956
1.39473
1.39374
1.39265
1.39149
1.39028
1.38903
1.38776
1.38649
1.38523
1.38399
1.38277
1.38159
1.38044
1.37932
1.37823
1.37716
1.37613
1.37512
1.37414
1.37321
1.37232
1.37161
1.37087
1.37023
1.36969
1.36927
1.36897
1.3688
1.36877
1.36889
1.36915
1.36955
1.37009
1.37074
1.3715
1.37234
1.37325
1.3742
1.37517
1.37613
1.37705
1.37791
1.37871
1.37941
1.38003
1.38054
1.38097
1.3813
1.38155
1.38174
1.38186
1.38194
1.38198
1.38199
1.38197
1.38194
1.3819
1.38186
1.38183
1.38181
1.38182
1.38187
1.38196
1.38211
1.38232
1.3826
1.38297
1.3834
1.38392
1.38451
1.38517
1.3859
1.38668
1.3875
1.38837
1.38926
1.39018
1.39112
1.39207
1.39303
1.39399
1.39496
1.39594
1.39691
1.39788
1.39885
1.39981
1.40077
1.40172
1.40265
1.40356
1.40445
1.40532
1.40616
1.40697
1.40776
1.4085
1.40921
1.40988
1.41051
1.41109
1.41161
1.41207
1.41245
1.41275
1.41296
1.41306
1.41305
1.41291
1.41265
1.41224
1.41169
1.41099
1.41015
1.40918
1.40808
1.40689
1.40562
1.40432
1.40302
1.40178
1.40064
1.39966
1.39888
1.39833
1.39805
1.39804
1.39829
1.39881
1.39955
1.40049
1.40158
1.40278
1.40404
1.4053
1.40653
1.40768
1.40873
1.40964
1.41039
1.41097
1.41138
1.41161
1.41166
1.41155
1.41127
1.41085
1.41028
1.4096
1.40881
1.40793
1.40696
1.40593
1.40483
1.4037
1.40253
1.40134
1.40014
1.39893
1.39773
1.39654
1.39536
1.39421
1.3931
1.39202
1.39098
1.38998
1.38903
1.38813
1.38727
1.38646
1.3857
1.38498
1.38431
1.38368
1.38309
1.38254
1.38202
1.38154
1.38109
1.38067
1.38028
1.37992
1.37959
1.37929
1.37901
1.37877
1.37855
1.37835
1.37818
1.37804
1.37793
1.37784
1.37779
1.37776
1.37778
1.37783
1.37792
1.37806
1.37825
1.37848
1.37875
1.37907
1.37941
1.37976
1.38011
1.38045
1.38074
1.38098
1.38114
1.38122
1.38119
1.38106
1.38082
1.38048
1.38003
1.37951
1.37891
1.37825
1.37756
1.37684
1.37613
1.37543
1.37477
1.37417
1.37363
1.37318
1.37281
1.37255
1.37238
1.37231
1.37234
1.37245
1.37265
1.37293
1.37327
1.37368
1.37414
1.37465
1.37521
1.37582
1.37648
1.3772
1.37797
1.3788
1.37971
1.38068
1.38172
1.38284
1.38403
1.38529
1.3866
1.38797
1.38936
1.39078
1.39219
1.39359
1.39493
1.39621
1.39739
1.39846
1.39939
1.40018
1.40082
1.4013
1.40166
1.4019
1.40206
1.40217
1.40226
1.40236
1.40249
1.40268
1.4029
1.40315
1.40341
1.40364
1.40382
1.40393
1.40397
1.40395
1.40392
1.40392
1.404
1.40421
1.40456
1.40504
1.40559
1.40613
1.40653
1.4067
1.40655
1.40601
1.40509
1.40384
1.40236
1.40078
1.39921
1.39777
1.39652
1.39552
1.39475
1.39417
1.39372
1.3933
1.39277
1.392
1.39085
1.38922
1.38702
1.38427
1.38103
1.37745
1.3737
1.36997
1.36645
1.36327
1.3605
1.35818
1.3563
1.35481
1.35368
1.35282
1.35216
1.35166
1.35124
1.35088
1.35054
1.35021
1.3499
1.34962
1.34937
1.34916
1.349
1.34888
1.34882
1.34882
1.34892
1.34914
1.34956
1.35024
1.3513
1.35282
1.35493
1.35772
1.36124
1.36552
1.37053
1.37625
1.38263
1.38964
1.39722
1.40516
1.41306
1.42035
1.42636
1.43055
1.43259
1.43248
1.43039
1.42664
1.42164
1.41581
1.40958
1.40334
1.39741
1.39205
1.38743
1.38366
1.38083
1.37897
1.3781
1.37817
1.37911
1.38077
1.38298
1.38553
1.38821
1.3908
1.39314
1.39511
1.39663
1.3977
1.39835
1.39866
1.39871
1.39861
1.39844
1.39826
1.39812
1.39802
1.39797
1.39793
1.39787
1.39775
1.39754
1.39722
1.39675
1.39615
1.39541
1.39453
1.39355
1.39248
1.39133
1.39013
1.3889
1.38765
1.3864
1.38516
1.38394
1.38274
1.38157
1.38043
1.37932
1.37824
1.37718
1.37616
1.37516
1.3742
1.37328
1.37241
1.37181
1.37111
1.3705
1.37
1.3696
1.36933
1.3692
1.36919
1.36932
1.36959
1.36998
1.37049
1.37111
1.37181
1.37259
1.37342
1.37429
1.37516
1.37603
1.37687
1.37766
1.37839
1.37906
1.37964
1.38015
1.38058
1.38094
1.38122
1.38144
1.3816
1.38172
1.38179
1.38183
1.38185
1.38184
1.38183
1.38181
1.3818
1.38181
1.38184
1.38191
1.38202
1.38219
1.38243
1.38273
1.38311
1.38356
1.38409
1.38469
1.38535
1.38608
1.38685
1.38768
1.38853
1.38942
1.39033
1.39125
1.39218
1.39313
1.39407
1.39502
1.39598
1.39693
1.39788
1.39884
1.39978
1.40072
1.40165
1.40257
1.40347
1.40435
1.40521
1.40604
1.40684
1.40761
1.40835
1.40905
1.40971
1.41032
1.41088
1.41139
1.41182
1.41218
1.41245
1.41262
1.41268
1.41262
1.41244
1.41213
1.41168
1.41109
1.41038
1.40955
1.4086
1.40757
1.40647
1.40533
1.40418
1.40305
1.40199
1.40103
1.40021
1.39955
1.39908
1.39883
1.39879
1.39896
1.39934
1.39991
1.40064
1.40151
1.40248
1.40352
1.4046
1.40567
1.40671
1.40769
1.40858
1.40934
1.40997
1.41044
1.41076
1.4109
1.41088
1.4107
1.41036
1.40988
1.40926
1.40854
1.4077
1.40678
1.40579
1.40473
1.40363
1.40248
1.40131
1.40013
1.39894
1.39775
1.39657
1.39541
1.39428
1.39317
1.3921
1.39107
1.39009
1.38914
1.38824
1.38739
1.38659
1.38583
1.38512
1.38445
1.38383
1.38324
1.38269
1.38218
1.3817
1.38126
1.38084
1.38046
1.38011
1.37978
1.37949
1.37922
1.37897
1.37875
1.37856
1.37839
1.37825
1.37813
1.37804
1.37797
1.37794
1.37794
1.37797
1.37805
1.37817
1.37832
1.37853
1.37877
1.37905
1.37935
1.37967
1.37998
1.38028
1.38054
1.38075
1.38088
1.38094
1.3809
1.38077
1.38054
1.38021
1.37979
1.3793
1.37874
1.37813
1.37749
1.37682
1.37616
1.37551
1.3749
1.37433
1.37382
1.37338
1.37303
1.37277
1.3726
1.37253
1.37255
1.37266
1.37285
1.37312
1.37345
1.37385
1.3743
1.37481
1.37537
1.37597
1.37663
1.37734
1.37811
1.37893
1.37983
1.38079
1.38182
1.38293
1.38411
1.38535
1.38665
1.388
1.38939
1.39079
1.3922
1.39359
1.39494
1.39623
1.39744
1.39854
1.39951
1.40035
1.40105
1.40162
1.40206
1.40239
1.40263
1.40282
1.40298
1.40314
1.40332
1.40352
1.40374
1.40398
1.40421
1.4044
1.40454
1.40461
1.4046
1.40453
1.40443
1.40433
1.40429
1.40434
1.40451
1.40478
1.40512
1.40545
1.40569
1.40572
1.40548
1.4049
1.40396
1.40272
1.40124
1.39966
1.39809
1.39664
1.39539
1.39439
1.39362
1.39307
1.39265
1.39227
1.3918
1.39111
1.39006
1.38854
1.38647
1.38384
1.38071
1.37723
1.37356
1.3699
1.36644
1.36331
1.36059
1.3583
1.35644
1.35496
1.35381
1.35292
1.35223
1.35168
1.35122
1.35084
1.35049
1.35017
1.34988
1.34961
1.34936
1.34915
1.34896
1.34882
1.34873
1.3487
1.34878
1.349
1.34943
1.35015
1.35125
1.35283
1.35498
1.35779
1.36129
1.36551
1.37043
1.37604
1.38235
1.38932
1.39687
1.40472
1.41241
1.41931
1.42483
1.42851
1.43021
1.42997
1.42799
1.42453
1.41992
1.41452
1.40872
1.40289
1.39736
1.39237
1.38809
1.38464
1.38208
1.38045
1.37973
1.37989
1.38082
1.3824
1.38445
1.38678
1.38919
1.39149
1.39355
1.39526
1.39659
1.39753
1.39812
1.39842
1.39851
1.39847
1.39836
1.39825
1.39815
1.39808
1.39802
1.39796
1.39786
1.3977
1.39745
1.39708
1.39658
1.39595
1.39519
1.39432
1.39334
1.39227
1.39114
1.38996
1.38875
1.38752
1.3863
1.38508
1.38388
1.38271
1.38156
1.38044
1.37935
1.37829
1.37725
1.37624
1.37527
1.37433
1.37343
1.37259
1.37212
1.37146
1.3709
1.37043
1.37008
1.36984
1.36974
1.36975
1.36989
1.37016
1.37053
1.371
1.37156
1.37219
1.37288
1.3736
1.37435
1.37511
1.37586
1.37659
1.37729
1.37795
1.37857
1.37913
1.37963
1.38007
1.38045
1.38077
1.38103
1.38125
1.38141
1.38153
1.38161
1.38167
1.3817
1.38173
1.38174
1.38177
1.3818
1.38187
1.38197
1.38211
1.38231
1.38257
1.3829
1.38329
1.38376
1.3843
1.38491
1.38558
1.38631
1.38709
1.3879
1.38875
1.38963
1.39052
1.39142
1.39234
1.39326
1.39418
1.39511
1.39604
1.39697
1.3979
1.39883
1.39975
1.40067
1.40158
1.40248
1.40336
1.40423
1.40507
1.40589
1.40668
1.40744
1.40816
1.40885
1.40949
1.41009
1.41062
1.4111
1.4115
1.41181
1.41203
1.41214
1.41213
1.412
1.41174
1.41134
1.41082
1.41017
1.40941
1.40856
1.40763
1.40665
1.40563
1.40462
1.40362
1.40267
1.40179
1.401
1.40033
1.3998
1.39941
1.39917
1.3991
1.39919
1.39943
1.39981
1.40033
1.40097
1.40172
1.40254
1.40344
1.40437
1.40532
1.40626
1.40715
1.40796
1.40868
1.40926
1.40971
1.41
1.41012
1.41007
1.40987
1.4095
1.40899
1.40836
1.4076
1.40675
1.4058
1.40479
1.40372
1.40261
1.40147
1.40031
1.39914
1.39797
1.39681
1.39567
1.39454
1.39345
1.39239
1.39137
1.39038
1.38945
1.38855
1.3877
1.3869
1.38614
1.38543
1.38476
1.38413
1.38355
1.383
1.38249
1.38201
1.38156
1.38115
1.38077
1.38042
1.3801
1.3798
1.37953
1.37929
1.37907
1.37888
1.3787
1.37855
1.37843
1.37832
1.37824
1.37819
1.37817
1.37818
1.37823
1.37831
1.37843
1.37859
1.37879
1.37902
1.37928
1.37954
1.37981
1.38005
1.38026
1.38043
1.38053
1.38056
1.3805
1.38036
1.38013
1.37982
1.37944
1.37899
1.37849
1.37794
1.37736
1.37677
1.37618
1.3756
1.37505
1.37453
1.37407
1.37366
1.37334
1.37309
1.37292
1.37285
1.37286
1.37296
1.37314
1.3734
1.37372
1.37411
1.37456
1.37505
1.37561
1.37621
1.37686
1.37756
1.37832
1.37914
1.38002
1.38097
1.38199
1.38308
1.38424
1.38547
1.38676
1.38809
1.38947
1.39087
1.39228
1.39368
1.39505
1.39636
1.39759
1.39874
1.39977
1.40069
1.40148
1.40214
1.40269
1.40313
1.40348
1.40378
1.40403
1.40426
1.40448
1.40471
1.40493
1.40513
1.40531
1.40544
1.40551
1.40549
1.40539
1.40522
1.40501
1.40477
1.40457
1.40443
1.40437
1.4044
1.40449
1.40458
1.4046
1.40447
1.40409
1.40342
1.40244
1.40118
1.3997
1.39812
1.39654
1.39508
1.39383
1.39283
1.39209
1.39157
1.39122
1.39093
1.39056
1.38999
1.38906
1.38765
1.38569
1.38316
1.38013
1.37672
1.37313
1.36955
1.36618
1.36313
1.36048
1.35825
1.35643
1.35497
1.35381
1.35289
1.35217
1.35158
1.35111
1.35071
1.35037
1.35007
1.34979
1.34954
1.34929
1.34906
1.34885
1.34867
1.34853
1.34847
1.34852
1.34873
1.34917
1.34992
1.35105
1.35267
1.35485
1.35764
1.36107
1.36517
1.36995
1.37543
1.38164
1.38858
1.39608
1.40378
1.41116
1.41759
1.42258
1.42586
1.42737
1.42717
1.42541
1.42228
1.41806
1.4131
1.40777
1.40244
1.39739
1.39286
1.38899
1.3859
1.38366
1.38228
1.38174
1.38199
1.38291
1.38439
1.38625
1.38831
1.39041
1.39238
1.39413
1.39558
1.39669
1.39749
1.398
1.39828
1.3984
1.39841
1.39836
1.3983
1.39823
1.39818
1.39811
1.39802
1.39789
1.39768
1.39737
1.39695
1.39642
1.39576
1.39498
1.39409
1.39311
1.39206
1.39094
1.38978
1.38859
1.3874
1.3862
1.38502
1.38385
1.3827
1.38159
1.38049
1.37943
1.37839
1.37737
1.37639
1.37544
1.37453
1.37367
1.37286
1.37253
1.37192
1.3714
1.37098
1.37068
1.37048
1.3704
1.37044
1.37059
1.37084
1.37117
1.37159
1.37208
1.37262
1.37319
1.37379
1.37441
1.37503
1.37565
1.37626
1.37686
1.37744
1.37799
1.37851
1.379
1.37946
1.37987
1.38023
1.38054
1.38081
1.38103
1.3812
1.38134
1.38145
1.38153
1.3816
1.38166
1.38172
1.3818
1.3819
1.38204
1.38222
1.38246
1.38275
1.38311
1.38353
1.38402
1.38458
1.3852
1.38588
1.38661
1.38739
1.3882
1.38904
1.3899
1.39077
1.39165
1.39254
1.39344
1.39434
1.39524
1.39614
1.39704
1.39794
1.39884
1.39974
1.40064
1.40153
1.40241
1.40327
1.40412
1.40494
1.40574
1.40652
1.40726
1.40796
1.40863
1.40925
1.40981
1.41031
1.41074
1.41109
1.41134
1.41148
1.41151
1.41141
1.41117
1.41081
1.41032
1.4097
1.40899
1.40819
1.40734
1.40646
1.40557
1.40471
1.40389
1.40313
1.40244
1.40185
1.40133
1.40091
1.40057
1.40031
1.40014
1.40003
1.40001
1.40006
1.4002
1.40043
1.40075
1.40117
1.40169
1.40231
1.40301
1.40378
1.40459
1.40541
1.40621
1.40697
1.40764
1.4082
1.40863
1.40891
1.40903
1.40898
1.40877
1.4084
1.40788
1.40724
1.40648
1.40561
1.40467
1.40366
1.40259
1.40149
1.40036
1.39922
1.39808
1.39694
1.39581
1.39471
1.39363
1.39258
1.39157
1.3906
1.38967
1.38878
1.38794
1.38715
1.3864
1.38569
1.38503
1.38441
1.38383
1.38329
1.38278
1.38232
1.38188
1.38148
1.38111
1.38077
1.38045
1.38017
1.3799
1.37967
1.37945
1.37926
1.37908
1.37893
1.37879
1.37867
1.37857
1.3785
1.37845
1.37843
1.37844
1.37848
1.37856
1.37867
1.37881
1.37899
1.37918
1.37938
1.37958
1.37976
1.37992
1.38003
1.38009
1.38008
1.38
1.37985
1.37963
1.37934
1.37899
1.3786
1.37816
1.37769
1.3772
1.3767
1.3762
1.3757
1.37523
1.37478
1.37438
1.37402
1.37373
1.3735
1.37335
1.37327
1.37328
1.37337
1.37354
1.37378
1.37409
1.37447
1.3749
1.37539
1.37593
1.37652
1.37717
1.37786
1.37861
1.37942
1.38029
1.38123
1.38223
1.38331
1.38445
1.38566
1.38694
1.38826
1.38963
1.39103
1.39245
1.39385
1.39524
1.39658
1.39786
1.39907
1.40017
1.40118
1.40207
1.40285
1.40352
1.4041
1.40458
1.40499
1.40534
1.40564
1.4059
1.40613
1.40632
1.40648
1.40658
1.40661
1.40657
1.40645
1.40623
1.40594
1.40559
1.4052
1.40481
1.40444
1.40414
1.40389
1.4037
1.40353
1.40332
1.403
1.4025
1.40175
1.40073
1.39945
1.39797
1.39637
1.39477
1.39329
1.39202
1.39102
1.39029
1.38981
1.38951
1.3893
1.38903
1.38857
1.38777
1.38649
1.38464
1.38221
1.37926
1.37592
1.3724
1.36891
1.36562
1.36266
1.36011
1.35796
1.3562
1.35477
1.35362
1.35269
1.35194
1.35133
1.35083
1.35043
1.3501
1.34981
1.34956
1.34931
1.34907
1.34882
1.34858
1.34834
1.34816
1.34804
1.34806
1.34825
1.34869
1.34946
1.35063
1.35228
1.35446
1.35722
1.36058
1.36455
1.36918
1.37453
1.38066
1.38754
1.39497
1.40252
1.40959
1.41558
1.4201
1.42298
1.42425
1.42403
1.42245
1.41969
1.41595
1.41153
1.40676
1.40196
1.39742
1.39337
1.38997
1.38731
1.38544
1.38436
1.38403
1.38437
1.3853
1.38667
1.38833
1.39012
1.39189
1.39352
1.39494
1.39609
1.39698
1.39761
1.39803
1.39827
1.3984
1.39844
1.39844
1.39842
1.39839
1.39834
1.39826
1.39814
1.39795
1.39769
1.39733
1.39686
1.39627
1.39558
1.39478
1.39388
1.3929
1.39185
1.39075
1.38961
1.38845
1.38728
1.38612
1.38497
1.38384
1.38273
1.38164
1.38058
1.37954
1.37853
1.37755
1.3766
1.37568
1.37481
1.37399
1.37322
1.37303
1.37247
1.37201
1.37164
1.37138
1.37123
1.37118
1.37123
1.37137
1.37159
1.37189
1.37224
1.37263
1.37306
1.37351
1.37397
1.37444
1.37492
1.3754
1.37589
1.37638
1.37688
1.37737
1.37786
1.37833
1.37879
1.37923
1.37963
1.37999
1.38032
1.38059
1.38083
1.38103
1.38119
1.38132
1.38144
1.38155
1.38166
1.38179
1.38194
1.38212
1.38235
1.38262
1.38296
1.38335
1.3838
1.38432
1.3849
1.38553
1.38622
1.38696
1.38773
1.38853
1.38936
1.3902
1.39106
1.39192
1.39278
1.39365
1.39452
1.39539
1.39626
1.39713
1.39801
1.39888
1.39975
1.40062
1.40148
1.40233
1.40317
1.40399
1.4048
1.40558
1.40633
1.40705
1.40773
1.40837
1.40895
1.40948
1.40993
1.4103
1.41057
1.41074
1.41078
1.4107
1.41047
1.41011
1.40962
1.40901
1.4083
1.4075
1.40666
1.4058
1.40495
1.40414
1.4034
1.40274
1.40217
1.40169
1.4013
1.40099
1.40074
1.40054
1.40037
1.40023
1.4001
1.4
1.39992
1.39988
1.39989
1.39998
1.40016
1.40045
1.40085
1.40136
1.40199
1.4027
1.40347
1.40428
1.40509
1.40586
1.40655
1.40714
1.4076
1.40791
1.40806
1.40803
1.40784
1.40749
1.40698
1.40634
1.40558
1.40472
1.40379
1.40278
1.40173
1.40064
1.39954
1.39843
1.39731
1.39621
1.39512
1.39406
1.39303
1.39202
1.39106
1.39014
1.38925
1.38841
1.38762
1.38687
1.38616
1.38549
1.38487
1.38429
1.38375
1.38324
1.38277
1.38234
1.38194
1.38157
1.38123
1.38092
1.38064
1.38038
1.38014
1.37992
1.37972
1.37954
1.37938
1.37923
1.37909
1.37897
1.37887
1.37878
1.37872
1.37869
1.37868
1.37871
1.37876
1.37884
1.37895
1.37907
1.3792
1.37932
1.37944
1.37952
1.37957
1.37957
1.37953
1.37942
1.37926
1.37904
1.37878
1.37847
1.37814
1.37777
1.37739
1.377
1.3766
1.37621
1.37581
1.37544
1.37508
1.37474
1.37445
1.37419
1.374
1.37386
1.37379
1.3738
1.37388
1.37403
1.37426
1.37456
1.37492
1.37534
1.37582
1.37635
1.37693
1.37756
1.37825
1.37899
1.37978
1.38064
1.38156
1.38255
1.38361
1.38474
1.38593
1.38719
1.38851
1.38988
1.39128
1.3927
1.39413
1.39554
1.39693
1.39826
1.39953
1.40073
1.40183
1.40284
1.40374
1.40455
1.40525
1.40586
1.40638
1.40682
1.40718
1.40746
1.40768
1.40782
1.40789
1.40788
1.40779
1.40761
1.40735
1.407
1.40657
1.40607
1.40552
1.40493
1.40435
1.40379
1.40328
1.40282
1.40239
1.40195
1.40146
1.40083
1.40002
1.39897
1.39767
1.39618
1.39457
1.39295
1.39144
1.39014
1.3891
1.38836
1.38789
1.38764
1.3875
1.38733
1.38699
1.3863
1.38512
1.38336
1.38099
1.37808
1.37478
1.37131
1.36788
1.36469
1.36184
1.35939
1.35734
1.35565
1.35427
1.35313
1.3522
1.35143
1.35081
1.3503
1.3499
1.34958
1.34931
1.34907
1.34883
1.34859
1.34832
1.34803
1.34775
1.34751
1.34735
1.34733
1.34751
1.34796
1.34875
1.34995
1.35163
1.35382
1.35655
1.35982
1.36367
1.36817
1.37342
1.37949
1.38634
1.39369
1.40105
1.40779
1.41336
1.41746
1.42002
1.42114
1.42095
1.41956
1.41711
1.41379
1.40986
1.40563
1.40138
1.39739
1.39387
1.39096
1.38875
1.38726
1.38648
1.38637
1.38684
1.38779
1.38907
1.39054
1.39207
1.39353
1.39484
1.39595
1.39683
1.39749
1.39796
1.39828
1.39847
1.39858
1.39863
1.39865
1.39865
1.39862
1.39856
1.39847
1.39831
1.39807
1.39775
1.39733
1.3968
1.39617
1.39544
1.39461
1.3937
1.39271
1.39167
1.39058
1.38946
1.38833
1.38719
1.38606
1.38495
1.38385
1.38277
1.38172
1.38069
1.37969
1.37872
1.37777
1.37686
1.37599
1.37516
1.37438
1.37367
1.37361
1.37312
1.37271
1.3724
1.37218
1.37206
1.37204
1.37209
1.37221
1.3724
1.37263
1.3729
1.37319
1.37349
1.37381
1.37413
1.37446
1.37479
1.37514
1.37551
1.37589
1.3763
1.37674
1.37719
1.37765
1.37811
1.37857
1.37901
1.37942
1.3798
1.38013
1.38043
1.38069
1.38091
1.3811
1.38127
1.38144
1.38161
1.38179
1.38199
1.38222
1.3825
1.38282
1.38319
1.38362
1.38411
1.38466
1.38526
1.38592
1.38661
1.38735
1.38812
1.38892
1.38973
1.39056
1.39139
1.39222
1.39306
1.3939
1.39474
1.39558
1.39642
1.39726
1.39811
1.39895
1.39979
1.40063
1.40146
1.40229
1.4031
1.40389
1.40467
1.40542
1.40615
1.40684
1.40749
1.40808
1.40862
1.40909
1.40948
1.40977
1.40995
1.41
1.40992
1.4097
1.40934
1.40884
1.40821
1.40748
1.40668
1.40583
1.40497
1.40414
1.40338
1.40271
1.40216
1.40174
1.40145
1.40127
1.40117
1.40114
1.40114
1.40112
1.40108
1.40098
1.40082
1.4006
1.40034
1.40006
1.3998
1.39959
1.39947
1.39945
1.39957
1.39983
1.40024
1.40078
1.40143
1.40217
1.40296
1.40376
1.40454
1.40526
1.40588
1.40637
1.40671
1.40688
1.40688
1.40672
1.40638
1.40589
1.40527
1.40452
1.40368
1.40275
1.40177
1.40074
1.39968
1.3986
1.39752
1.39644
1.39538
1.39433
1.39331
1.39233
1.39138
1.39046
1.38959
1.38876
1.38797
1.38723
1.38653
1.38587
1.38525
1.38468
1.38415
1.38365
1.3832
1.38277
1.38238
1.38203
1.3817
1.3814
1.38112
1.38087
1.38064
1.38042
1.38022
1.38004
1.37986
1.3797
1.37954
1.37939
1.37926
1.37914
1.37904
1.37896
1.3789
1.37886
1.37885
1.37886
1.3789
1.37894
1.37899
1.37904
1.37907
1.37908
1.37907
1.37901
1.37892
1.37878
1.37861
1.3784
1.37816
1.3779
1.37763
1.37734
1.37706
1.37677
1.37649
1.37621
1.37593
1.37566
1.3754
1.37516
1.37493
1.37474
1.37458
1.37447
1.37442
1.37442
1.3745
1.37464
1.37485
1.37513
1.37547
1.37588
1.37634
1.37685
1.37742
1.37804
1.37872
1.37944
1.38023
1.38107
1.38198
1.38295
1.384
1.38511
1.3863
1.38755
1.38886
1.39023
1.39163
1.39307
1.39452
1.39597
1.3974
1.3988
1.40015
1.40143
1.40263
1.40376
1.40479
1.40571
1.40654
1.40726
1.40787
1.40838
1.40877
1.40905
1.40921
1.40927
1.40923
1.40908
1.40884
1.40852
1.4081
1.40761
1.40704
1.4064
1.40569
1.40494
1.40415
1.40336
1.40259
1.40187
1.4012
1.40056
1.39991
1.39918
1.39832
1.39725
1.39597
1.39449
1.39288
1.39123
1.38968
1.38832
1.38724
1.38646
1.38598
1.38574
1.38564
1.38554
1.38528
1.38468
1.38358
1.38186
1.3795
1.37658
1.37328
1.36983
1.36646
1.36334
1.3606
1.35827
1.35632
1.3547
1.35337
1.35226
1.35132
1.35055
1.34991
1.3494
1.34899
1.34868
1.34843
1.34821
1.34798
1.34773
1.34744
1.34712
1.3468
1.34652
1.34632
1.34628
1.34646
1.34692
1.34775
1.34901
1.35073
1.35294
1.35564
1.35885
1.36261
1.36702
1.37221
1.37825
1.38508
1.39236
1.39954
1.40597
1.41116
1.41489
1.41716
1.41814
1.41796
1.41672
1.41456
1.41165
1.4082
1.40449
1.40079
1.39733
1.39433
1.39189
1.39011
1.389
1.38853
1.38865
1.38924
1.39021
1.39141
1.39272
1.39402
1.39522
1.39625
1.39709
1.39774
1.39821
1.39853
1.39874
1.39887
1.39895
1.39899
1.39901
1.39901
1.39897
1.39889
1.39876
1.39856
1.39827
1.39788
1.3974
1.39681
1.39613
1.39536
1.3945
1.39357
1.39258
1.39154
1.39046
1.38936
1.38825
1.38714
1.38604
1.38495
1.38389
1.38285
1.38184
1.38085
1.37988
1.37895
1.37804
1.37717
1.37635
1.37557
1.37485
1.37419
1.37427
1.37384
1.37349
1.37323
1.37306
1.37297
1.37295
1.373
1.37309
1.37323
1.37338
1.37355
1.37373
1.37391
1.37408
1.37426
1.37445
1.37465
1.37487
1.37512
1.37541
1.37575
1.37612
1.37653
1.37698
1.37744
1.37792
1.37839
1.37884
1.37927
1.37966
1.38002
1.38033
1.38061
1.38087
1.3811
1.38132
1.38155
1.38178
1.38204
1.38233
1.38266
1.38303
1.38345
1.38392
1.38445
1.38503
1.38565
1.38632
1.38703
1.38778
1.38854
1.38933
1.39013
1.39093
1.39174
1.39255
1.39336
1.39417
1.39498
1.39579
1.3966
1.39741
1.39823
1.39904
1.39985
1.40066
1.40146
1.40225
1.40303
1.4038
1.40455
1.40526
1.40596
1.40661
1.40721
1.40776
1.40824
1.40864
1.40893
1.40912
1.40918
1.4091
1.40887
1.4085
1.40798
1.40733
1.40657
1.40574
1.40485
1.40396
1.40311
1.40232
1.40165
1.4011
1.40069
1.40044
1.40031
1.4003
1.40036
1.40047
1.40059
1.40066
1.40068
1.40061
1.40044
1.40018
1.39985
1.39947
1.39907
1.3987
1.39839
1.39819
1.39811
1.39818
1.39841
1.39881
1.39935
1.40001
1.40078
1.4016
1.40244
1.40327
1.40404
1.40471
1.40526
1.40566
1.40589
1.40593
1.40581
1.40551
1.40505
1.40445
1.40373
1.40291
1.40201
1.40106
1.40005
1.39902
1.39798
1.39694
1.3959
1.39488
1.39387
1.3929
1.39196
1.39105
1.39018
1.38935
1.38856
1.38781
1.38711
1.38644
1.38582
1.38525
1.38471
1.38421
1.38375
1.38333
1.38294
1.38259
1.38226
1.38196
1.38169
1.38144
1.38121
1.38099
1.38078
1.38059
1.3804
1.38021
1.38003
1.37986
1.37969
1.37953
1.37938
1.37925
1.37913
1.37903
1.37895
1.37889
1.37884
1.3788
1.37877
1.37873
1.37868
1.37862
1.37853
1.37842
1.37828
1.37812
1.37793
1.37773
1.37751
1.3773
1.37709
1.37689
1.3767
1.37652
1.37636
1.3762
1.37605
1.3759
1.37576
1.37561
1.37547
1.37535
1.37524
1.37516
1.37513
1.37514
1.37521
1.37534
1.37554
1.3758
1.37612
1.37651
1.37695
1.37745
1.378
1.37861
1.37927
1.37999
1.38076
1.38159
1.38248
1.38345
1.38448
1.38559
1.38677
1.38801
1.38933
1.3907
1.39212
1.39358
1.39506
1.39655
1.39803
1.39949
1.40091
1.40227
1.40358
1.4048
1.40593
1.40697
1.40789
1.40869
1.40936
1.4099
1.41029
1.41053
1.41062
1.41057
1.41039
1.4101
1.40969
1.40921
1.40864
1.40801
1.40732
1.40655
1.40571
1.40481
1.40385
1.40286
1.40187
1.40093
1.40004
1.39922
1.39843
1.39762
1.39673
1.39567
1.39442
1.39297
1.39137
1.38971
1.38812
1.3867
1.38554
1.3847
1.38418
1.38392
1.38383
1.38377
1.38355
1.383
1.38191
1.38017
1.37776
1.37477
1.37142
1.36794
1.36459
1.36154
1.35889
1.35666
1.3548
1.35326
1.35197
1.35088
1.34994
1.34916
1.34851
1.34799
1.34759
1.34729
1.34706
1.34685
1.34664
1.34639
1.3461
1.34577
1.34543
1.34512
1.34492
1.34488
1.34508
1.3456
1.34649
1.34782
1.34961
1.35186
1.35457
1.35775
1.36146
1.36583
1.371
1.37705
1.38387
1.39108
1.39808
1.40423
1.40908
1.41248
1.41452
1.41538
1.41521
1.4141
1.4122
1.40964
1.40663
1.40341
1.4002
1.39725
1.39472
1.39273
1.39135
1.3906
1.39041
1.39073
1.39144
1.39243
1.39356
1.39474
1.39586
1.39685
1.39766
1.3983
1.39876
1.39908
1.39928
1.39941
1.39948
1.39952
1.39954
1.39954
1.39951
1.39945
1.39934
1.39916
1.3989
1.39855
1.39811
1.39756
1.39692
1.39618
1.39537
1.39447
1.39352
1.39251
1.39147
1.3904
1.38931
1.38822
1.38713
1.38606
1.385
1.38397
1.38297
1.38198
1.38103
1.38011
1.37921
1.37835
1.37753
1.37676
1.37604
1.37538
1.37478
1.375
1.37463
1.37434
1.37413
1.374
1.37393
1.37391
1.37393
1.37398
1.37405
1.37412
1.37419
1.37424
1.37429
1.37433
1.37437
1.37442
1.3745
1.3746
1.37476
1.37496
1.37522
1.37555
1.37592
1.37635
1.37681
1.3773
1.3778
1.37829
1.37876
1.37921
1.37962
1.37999
1.38033
1.38064
1.38093
1.38121
1.3815
1.38179
1.38211
1.38245
1.38284
1.38326
1.38373
1.38425
1.38481
1.38542
1.38607
1.38676
1.38748
1.38822
1.38899
1.38976
1.39055
1.39133
1.39212
1.3929
1.39369
1.39447
1.39525
1.39603
1.39681
1.3976
1.39838
1.39916
1.39994
1.40072
1.40149
1.40225
1.403
1.40373
1.40444
1.40512
1.40577
1.40637
1.40692
1.4074
1.4078
1.40809
1.40827
1.40833
1.40823
1.40799
1.4076
1.40706
1.40639
1.4056
1.40473
1.40382
1.4029
1.40202
1.40122
1.40055
1.40002
1.39967
1.39949
1.39948
1.39961
1.39985
1.40015
1.40047
1.40075
1.40094
1.40101
1.40094
1.40072
1.40036
1.39988
1.39933
1.39873
1.39815
1.39762
1.39718
1.39688
1.39673
1.39676
1.39696
1.39734
1.39788
1.39855
1.39933
1.40017
1.40105
1.40192
1.40273
1.40344
1.40404
1.40449
1.40476
1.40485
1.40476
1.4045
1.40407
1.40351
1.40281
1.40202
1.40115
1.40022
1.39925
1.39825
1.39725
1.39624
1.39524
1.39426
1.3933
1.39237
1.39147
1.39061
1.38979
1.38901
1.38826
1.38756
1.38691
1.38629
1.38572
1.38519
1.38471
1.38426
1.38384
1.38346
1.38312
1.3828
1.38251
1.38225
1.382
1.38177
1.38155
1.38134
1.38114
1.38093
1.38073
1.38053
1.38032
1.38012
1.37992
1.37972
1.37954
1.37936
1.3792
1.37905
1.37891
1.37878
1.37866
1.37854
1.37842
1.37829
1.37815
1.37799
1.37782
1.37764
1.37745
1.37725
1.37705
1.37686
1.37669
1.37655
1.37643
1.37633
1.37627
1.37622
1.37619
1.37617
1.37615
1.37613
1.37609
1.37605
1.376
1.37596
1.37593
1.37593
1.37595
1.37602
1.37615
1.37633
1.37657
1.37687
1.37723
1.37766
1.37814
1.37868
1.37927
1.37992
1.38062
1.38138
1.38221
1.3831
1.38405
1.38509
1.38619
1.38737
1.38862
1.38995
1.39133
1.39277
1.39425
1.39576
1.39729
1.39882
1.40033
1.40181
1.40325
1.40462
1.40592
1.40713
1.40823
1.40921
1.41005
1.41075
1.41127
1.41163
1.4118
1.41179
1.41162
1.41129
1.41084
1.41028
1.40964
1.40894
1.40819
1.40739
1.40653
1.40559
1.40457
1.40347
1.40231
1.40114
1.40001
1.39894
1.39796
1.39706
1.39619
1.39529
1.39427
1.39307
1.39168
1.39011
1.38845
1.38682
1.38534
1.3841
1.38317
1.38257
1.38227
1.38215
1.38209
1.38188
1.38131
1.38018
1.37836
1.37582
1.37269
1.36922
1.36567
1.3623
1.35929
1.35671
1.35455
1.35276
1.35127
1.35001
1.34892
1.34798
1.34718
1.34651
1.34599
1.34559
1.34531
1.34509
1.34491
1.34473
1.3445
1.34422
1.34391
1.34358
1.3433
1.34312
1.34313
1.3434
1.344
1.345
1.34644
1.34833
1.35066
1.35341
1.35659
1.3603
1.36468
1.36987
1.37597
1.3828
1.38995
1.39678
1.40266
1.40721
1.41033
1.41217
1.41291
1.41273
1.41174
1.41005
1.40781
1.40519
1.4024
1.39966
1.39716
1.39506
1.39347
1.39245
1.39199
1.39205
1.39253
1.39334
1.39434
1.39543
1.39651
1.39748
1.39831
1.39897
1.39946
1.39981
1.40003
1.40016
1.40023
1.40026
1.40027
1.40026
1.40023
1.40018
1.40008
1.39992
1.39969
1.39937
1.39896
1.39845
1.39784
1.39713
1.39635
1.39548
1.39456
1.39357
1.39255
1.3915
1.39042
1.38934
1.38826
1.38719
1.38614
1.38511
1.3841
1.38313
1.38218
1.38126
1.38038
1.37953
1.37872
1.37795
1.37723
1.37657
1.37597
1.37545
1.37579
1.37548
1.37525
1.37508
1.37498
1.37491
1.37488
1.37487
1.37486
1.37485
1.37482
1.37477
1.37471
1.37463
1.37454
1.37446
1.37439
1.37435
1.37436
1.37442
1.37455
1.37475
1.37503
1.37537
1.37578
1.37624
1.37674
1.37726
1.37778
1.37829
1.37878
1.37924
1.37966
1.38006
1.38042
1.38077
1.38111
1.38145
1.38181
1.38218
1.38259
1.38302
1.3835
1.38402
1.38458
1.38518
1.38583
1.3865
1.38721
1.38794
1.38868
1.38944
1.39021
1.39097
1.39174
1.3925
1.39326
1.39402
1.39478
1.39553
1.39628
1.39704
1.39779
1.39854
1.39929
1.40005
1.40079
1.40152
1.40225
1.40297
1.40366
1.40433
1.40497
1.40557
1.4061
1.40658
1.40697
1.40726
1.40743
1.40747
1.40736
1.4071
1.40669
1.40612
1.40542
1.4046
1.4037
1.40276
1.40181
1.4009
1.40007
1.39936
1.3988
1.39841
1.3982
1.39815
1.39827
1.39851
1.39883
1.39919
1.39955
1.39985
1.40006
1.40015
1.40009
1.39988
1.39953
1.39906
1.39849
1.39787
1.39722
1.3966
1.39605
1.39561
1.39531
1.39517
1.39521
1.39543
1.39583
1.39638
1.39709
1.3979
1.39879
1.39971
1.40064
1.40151
1.40229
1.40296
1.40347
1.40381
1.40396
1.40393
1.40372
1.40334
1.40282
1.40217
1.40141
1.40058
1.39969
1.39875
1.3978
1.39683
1.39586
1.3949
1.39396
1.39304
1.39215
1.39129
1.39047
1.38968
1.38893
1.38823
1.38756
1.38694
1.38636
1.38583
1.38533
1.38488
1.38446
1.38408
1.38373
1.38341
1.38313
1.38286
1.38261
1.38237
1.38215
1.38193
1.38171
1.38149
1.38126
1.38103
1.38079
1.38055