# vtk DataFile Version 2.0
LBE two cylinders
ASCII
DATASET STRUCTURED_POINTS
DIMENSIONS 400 100 1
ASPECT_RATIO 1 1 1
ORIGIN 0 0 0
POINT_DATA 40000
SCALARS rho double 1
LOOKUP_TABLE default
1.20748
1.2
1.1918
1.18331
1.17504
1.16742
1.16078
1.15528
1.15091
1.14757
1.14508
1.14327
1.14197
1.14103
1.14034
1.13983
1.13944
1.13912
1.13885
1.13861
1.1384
1.13821
1.13803
1.13786
1.13771
1.13758
1.13746
1.13735
1.13727
1.13721
1.13718
1.13718
1.13721
1.13727
1.13737
1.1375
1.13766
1.13786
1.13809
1.13835
1.13862
1.13892
1.13923
1.13956
1.13989
1.14023
1.14058
1.14092
1.14127
1.14163
1.14198
1.14233
1.14268
1.14303
1.14338
1.14373
1.14408
1.14443
1.14479
1.14515
1.14552
1.14589
1.14626
1.14664
1.14703
1.14743
1.14783
1.14824
1.14865
1.14908
1.14951
1.14995
1.1504
1.15086
1.15134
1.15182
1.15231
1.15282
1.15334
1.15387
1.15442
1.15498
1.15555
1.15613
1.15672
1.15732
1.15792
1.15852
1.15912
1.1597
1.16026
1.1608
1.1613
1.16176
1.16216
1.1625
1.16277
1.16297
1.16308
1.16309
1.16302
1.16286
1.16261
1.16227
1.16185
1.16137
1.16082
1.16023
1.1596
1.15894
1.15827
1.15758
1.1569
1.15622
1.15556
1.1549
1.15427
1.15365
1.15305
1.15248
1.15192
1.15138
1.15085
1.15034
1.14985
1.14937
1.1489
1.14844
1.14799
1.14755
1.14712
1.1467
1.14628
1.14587
1.14547
1.14508
1.14469
1.14431
1.14393
1.14356
1.1432
1.14285
1.14251
1.14217
1.14185
1.14153
1.14121
1.14091
1.14061
1.14032
1.14003
1.13975
1.13947
1.13919
1.13892
1.13864
1.13837
1.13811
1.13784
1.13758
1.13732
1.13707
1.13682
1.13659
1.13638
1.13618
1.13601
1.13587
1.13576
1.13567
1.13563
1.13561
1.13562
1.13567
1.13574
1.13583
1.13594
1.13608
1.13622
1.13639
1.13656
1.13675
1.13694
1.13714
1.13735
1.13757
1.13779
1.13803
1.13827
1.13852
1.13878
1.13904
1.13932
1.13961
1.13992
1.14026
1.14066
1.14115
1.14181
1.14277
1.14428
1.14672
1.1507
1.15707
1.16694
1.1814
1.20088
1.22433
1.24869
1.26983
1.28439
1.29123
1.29125
1.28658
1.27955
1.27204
1.26521
1.25963
1.25545
1.25267
1.2513
1.25147
1.25337
1.25727
1.26329
1.27132
1.28086
1.29099
1.3006
1.30867
1.31459
1.31826
1.32006
1.32058
1.32043
1.32006
1.31972
1.31949
1.31937
1.3193
1.31926
1.31922
1.31917
1.31911
1.31903
1.31892
1.31877
1.31856
1.3183
1.31797
1.3176
1.31719
1.31675
1.3163
1.31587
1.31546
1.3151
1.31479
1.31454
1.31435
1.31421
1.31412
1.31407
1.31405
1.31404
1.31404
1.31403
1.314
1.31395
1.31387
1.31375
1.31359
1.31338
1.31314
1.31285
1.31253
1.31218
1.31181
1.31142
1.31103
1.31062
1.31018
1.3097
1.30911
1.30834
1.30728
1.30577
1.30369
1.30089
1.29726
1.29277
1.28745
1.28145
1.27496
1.26828
1.2617
1.25554
1.25005
1.24547
1.24195
1.23961
1.2385
1.23867
1.24011
1.2428
1.24668
1.25164
1.25752
1.2641
1.2711
1.27819
1.28506
1.29142
1.29701
1.30169
1.30542
1.30821
1.31017
1.31147
1.31225
1.31268
1.3129
1.313
1.31306
1.3131
1.31316
1.31324
1.31333
1.31343
1.31354
1.31363
1.31372
1.31378
1.31381
1.3138
1.31376
1.31369
1.31358
1.31345
1.3133
1.31313
1.31297
1.31282
1.31268
1.31255
1.31244
1.31235
1.31227
1.31221
1.31216
1.31212
1.31209
1.31207
1.31205
1.31204
1.31203
1.31202
1.31202
1.31203
1.31205
1.31208
1.31211
1.31212
1.3121
1.31203
1.3119
1.31173
1.31161
1.31163
1.31192
1.31253
1.31341
1.31427
1.31459
1.31366
1.31077
1.30546
1.29775
1.28826
1.27804
1.26823
1.2597
1.25287
1.24776
1.24411
1.24159
1.23986
1.23863
1.23769
1.23685
1.23601
1.23506
1.23395
1.23262
1.23102
1.22905
1.22655
1.22334
1.21918
1.21391
1.2075
1.20017
1.19211
1.18375
1.17554
1.16794
1.16127
1.1557
1.15125
1.14783
1.14528
1.14341
1.14207
1.1411
1.1404
1.13987
1.13946
1.13914
1.13886
1.13863
1.13841
1.13822
1.13804
1.13788
1.13773
1.1376
1.13748
1.13738
1.1373
1.13725
1.13722
1.13722
1.13725
1.13732
1.13742
1.13755
1.13771
1.13791
1.13813
1.13838
1.13866
1.13895
1.13926
1.13958
1.13991
1.14025
1.14059
1.14094
1.14129
1.14164
1.14199
1.14234
1.14269
1.14304
1.14339
1.14374
1.14409
1.14444
1.1448
1.14516
1.14552
1.14589
1.14627
1.14665
1.14704
1.14743
1.14783
1.14824
1.14865
1.14908
1.14951
1.14995
1.15041
1.15087
1.15134
1.15182
1.15232
1.15283
1.15335
1.15388
1.15443
1.15499
1.15556
1.15614
1.15673
1.15732
1.15791
1.15851
1.15909
1.15966
1.16021
1.16073
1.16122
1.16166
1.16205
1.16237
1.16262
1.1628
1.16289
1.1629
1.16282
1.16265
1.16239
1.16206
1.16165
1.16117
1.16064
1.16006
1.15945
1.15881
1.15815
1.15748
1.15681
1.15615
1.15549
1.15485
1.15423
1.15362
1.15303
1.15245
1.1519
1.15136
1.15084
1.15033
1.14984
1.14935
1.14888
1.14843
1.14798
1.14754
1.14711
1.14668
1.14627
1.14586
1.14546
1.14506
1.14467
1.14429
1.14392
1.14355
1.1432
1.14284
1.1425
1.14217
1.14184
1.14152
1.14121
1.14091
1.14061
1.14032
1.14003
1.13975
1.13947
1.1392
1.13892
1.13865
1.13838
1.13811
1.13785
1.13759
1.13733
1.13708
1.13684
1.13662
1.1364
1.13621
1.13604
1.1359
1.13579
1.13571
1.13566
1.13564
1.13565
1.13569
1.13576
1.13585
1.13596
1.13609
1.13624
1.1364
1.13657
1.13676
1.13695
1.13715
1.13736
1.13758
1.1378
1.13804
1.13828
1.13853
1.13878
1.13905
1.13933
1.13962
1.13994
1.14028
1.14069
1.14121
1.14193
1.143
1.1447
1.14744
1.15188
1.15892
1.16963
1.18488
1.20468
1.2274
1.2497
1.26798
1.28013
1.28601
1.28674
1.28373
1.27836
1.27192
1.26553
1.26004
1.25592
1.25332
1.25224
1.25275
1.25499
1.25916
1.26531
1.2732
1.2822
1.29142
1.29994
1.30707
1.31249
1.31622
1.31851
1.31969
1.3201
1.32004
1.31978
1.31949
1.31927
1.31916
1.31912
1.31911
1.31908
1.31902
1.31893
1.31881
1.31865
1.31844
1.31818
1.31787
1.3175
1.3171
1.31667
1.31625
1.31583
1.31544
1.3151
1.3148
1.31455
1.31436
1.31422
1.31413
1.31407
1.31403
1.31401
1.31399
1.31396
1.31392
1.31385
1.31375
1.31362
1.31345
1.31324
1.313
1.31272
1.31242
1.31209
1.31174
1.31137
1.31097
1.31054
1.31004
1.30943
1.30864
1.3076
1.30622
1.30438
1.302
1.299
1.29534
1.29099
1.28602
1.28053
1.27467
1.26866
1.26271
1.2571
1.25206
1.24781
1.24453
1.24235
1.24136
1.24159
1.24304
1.24567
1.24936
1.25399
1.25936
1.26524
1.2714
1.2776
1.2836
1.28921
1.29428
1.29872
1.30247
1.30553
1.30793
1.30973
1.31102
1.3119
1.31245
1.31278
1.31297
1.31307
1.31314
1.3132
1.31326
1.31334
1.31343
1.31352
1.3136
1.31367
1.31371
1.31372
1.3137
1.31364
1.31356
1.31345
1.31331
1.31317
1.31302
1.31287
1.31273
1.3126
1.31249
1.31238
1.3123
1.31222
1.31216
1.31211
1.31207
1.31203
1.31201
1.31199
1.31198
1.31197
1.31198
1.31198
1.312
1.31202
1.31204
1.31204
1.31201
1.31193
1.31182
1.3117
1.31164
1.31173
1.31205
1.31261
1.31327
1.31377
1.31368
1.31247
1.3096
1.30467
1.29759
1.28874
1.27897
1.26934
1.26075
1.25372
1.24837
1.24451
1.24181
1.23994
1.23862
1.2376
1.23672
1.23585
1.2349
1.23378
1.23246
1.23085
1.22886
1.22635
1.22314
1.21901
1.21382
1.2081
1.20072
1.19254
1.18401
1.17564
1.16791
1.16115
1.15554
1.1511
1.1477
1.14518
1.14334
1.14203
1.14108
1.14039
1.13987
1.13948
1.13915
1.13888
1.13865
1.13844
1.13825
1.13807
1.13791
1.13776
1.13763
1.13752
1.13742
1.13735
1.1373
1.13728
1.13728
1.13731
1.13738
1.13748
1.13761
1.13777
1.13796
1.13818
1.13842
1.13869
1.13898
1.13928
1.1396
1.13993
1.14026
1.1406
1.14095
1.1413
1.14165
1.142
1.14234
1.14269
1.14304
1.14339
1.14374
1.14409
1.14445
1.1448
1.14516
1.14553
1.14589
1.14627
1.14665
1.14703
1.14743
1.14782
1.14823
1.14865
1.14907
1.1495
1.14994
1.1504
1.15086
1.15133
1.15182
1.15232
1.15283
1.15335
1.15389
1.15444
1.15501
1.15558
1.15617
1.15676
1.15736
1.15797
1.15857
1.15916
1.15974
1.1603
1.16084
1.16133
1.16178
1.16218
1.16251
1.16277
1.16295
1.16304
1.16304
1.16296
1.16278
1.16251
1.16216
1.16173
1.16123
1.16068
1.16008
1.15944
1.15878
1.15811
1.15743
1.15675
1.15607
1.15541
1.15477
1.15415
1.15354
1.15295
1.15238
1.15183
1.15129
1.15078
1.15027
1.14978
1.14931
1.14884
1.14839
1.14794
1.1475
1.14707
1.14665
1.14624
1.14583
1.14543
1.14504
1.14465
1.14427
1.1439
1.14354
1.14318
1.14283
1.14249
1.14216
1.14183
1.14152
1.14121
1.14091
1.14061
1.14032
1.14003
1.13975
1.13947
1.1392
1.13893
1.13866
1.13839
1.13812
1.13786
1.1376
1.13735
1.1371
1.13686
1.13664
1.13643
1.13624
1.13608
1.13594
1.13583
1.13574
1.13569
1.13567
1.13568
1.13572
1.13579
1.13588
1.13599
1.13612
1.13626
1.13642
1.13659
1.13677
1.13697
1.13717
1.13738
1.1376
1.13782
1.13805
1.13829
1.13854
1.1388
1.13907
1.13934
1.13964
1.13995
1.14031
1.14073
1.14128
1.14204
1.1432
1.14504
1.14803
1.15283
1.16036
1.17162
1.18736
1.20735
1.22968
1.25091
1.26758
1.27811
1.283
1.28365
1.28125
1.27675
1.27112
1.26533
1.26021
1.25632
1.25391
1.25309
1.25395
1.25659
1.26109
1.26733
1.27495
1.2833
1.2916
1.29917
1.30556
1.31063
1.31442
1.31707
1.31873
1.31959
1.31986
1.31975
1.3195
1.31925
1.31907
1.31899
1.31896
1.31895
1.31892
1.31884
1.31872
1.31856
1.31834
1.31808
1.31777
1.31741
1.31703
1.31662
1.31622
1.31582
1.31545
1.31511
1.31483
1.31459
1.31441
1.31427
1.31417
1.3141
1.31405
1.31401
1.31397
1.31392
1.31385
1.31376
1.31363
1.31348
1.3133
1.31308
1.31284
1.31258
1.3123
1.312
1.31167
1.31131
1.3109
1.31039
1.30973
1.30888
1.30776
1.3063
1.30444
1.30214
1.29936
1.29611
1.29241
1.28829
1.28381
1.27905
1.2741
1.26908
1.26413
1.25943
1.25516
1.25152
1.2487
1.24684
1.24605
1.24636
1.24776
1.25015
1.25341
1.25736
1.26181
1.26656
1.27146
1.27636
1.28116
1.2858
1.2902
1.29432
1.29809
1.30147
1.30441
1.30687
1.30884
1.31036
1.31146
1.31221
1.31268
1.31295
1.3131
1.31318
1.31323
1.31328
1.31334
1.31341
1.31349
1.31357
1.31363
1.31367
1.31368
1.31366
1.31361
1.31352
1.31342
1.31329
1.31316
1.31302
1.31288
1.31275
1.31262
1.3125
1.3124
1.3123
1.31222
1.31214
1.31209
1.31204
1.312
1.31197
1.31195
1.31194
1.31194
1.31195
1.31197
1.31199
1.31199
1.31198
1.31194
1.31187
1.31178
1.3117
1.31169
1.31182
1.31213
1.31259
1.31311
1.31344
1.31322
1.31204
1.30939
1.30481
1.2981
1.28948
1.27975
1.27
1.26122
1.254
1.24849
1.24451
1.24174
1.23982
1.23847
1.23744
1.23655
1.23569
1.23476
1.23368
1.2324
1.23085
1.22894
1.22653
1.22345
1.21946
1.21438
1.209
1.20133
1.19277
1.18388
1.17524
1.16736
1.16057
1.15502
1.15066
1.14736
1.14494
1.14318
1.14193
1.14103
1.14037
1.13988
1.13949
1.13918
1.13891
1.13868
1.13847
1.13828
1.13811
1.13795
1.13781
1.13768
1.13757
1.13748
1.13741
1.13736
1.13734
1.13735
1.13739
1.13745
1.13755
1.13768
1.13783
1.13802
1.13823
1.13847
1.13873
1.13901
1.1393
1.13961
1.13994
1.14027
1.14061
1.14095
1.1413
1.14165
1.14199
1.14234
1.14269
1.14304
1.14339
1.14374
1.14409
1.14444
1.14479
1.14515
1.14551
1.14588
1.14625
1.14663
1.14701
1.14741
1.1478
1.14821
1.14863
1.14905
1.14948
1.14992
1.15038
1.15084
1.15132
1.1518
1.1523
1.15281
1.15334
1.15387
1.15442
1.15498
1.15556
1.15614
1.15673
1.15732
1.15792
1.15851
1.15909
1.15965
1.1602
1.16071
1.16118
1.16161
1.16198
1.16228
1.16252
1.16267
1.16275
1.16274
1.16264
1.16245
1.16219
1.16184
1.16142
1.16094
1.16041
1.15983
1.15922
1.15859
1.15794
1.15729
1.15663
1.15599
1.15535
1.15472
1.1541
1.15351
1.15292
1.15236
1.15181
1.15128
1.15076
1.15026
1.14976
1.14929
1.14882
1.14836
1.14791
1.14747
1.14704
1.14662
1.1462
1.14579
1.14539
1.145
1.14461
1.14423
1.14387
1.1435
1.14315
1.1428
1.14247
1.14214
1.14181
1.1415
1.14119
1.14089
1.1406
1.14031
1.14003
1.13975
1.13947
1.1392
1.13893
1.13866
1.13839
1.13813
1.13786
1.13761
1.13736
1.13711
1.13688
1.13666
1.13646
1.13627
1.13611
1.13597
1.13587
1.13579
1.13574
1.13572
1.13572
1.13576
1.13582
1.13591
1.13602
1.13615
1.13629
1.13645
1.13662
1.1368
1.13699
1.13719
1.1374
1.13762
1.13785
1.13808
1.13832
1.13857
1.13882
1.13909
1.13937
1.13966
1.13998
1.14035
1.14079
1.14137
1.14221
1.1435
1.14554
1.14884
1.15409
1.16215
1.17391
1.18984
1.20944
1.23074
1.25056
1.266
1.2759
1.28077
1.28169
1.27961
1.27544
1.27023
1.26497
1.2604
1.25695
1.25487
1.25437
1.25558
1.25859
1.26333
1.26951
1.27663
1.28406
1.29122
1.29775
1.30351
1.30845
1.31253
1.31567
1.31784
1.3191
1.31963
1.31969
1.31951
1.31927
1.31908
1.31896
1.3189
1.31887
1.31884
1.31877
1.31866
1.31849
1.31828
1.31801
1.31771
1.31737
1.317
1.31661
1.31623
1.31585
1.3155
1.31519
1.31492
1.31469
1.31451
1.31438
1.31427
1.31419
1.31413
1.31406
1.314
1.31391
1.31381
1.31369
1.31354
1.31336
1.31317
1.31295
1.31272
1.31247
1.31221
1.31193
1.31161
1.31122
1.31071
1.31003
1.30911
1.30788
1.30628
1.30426
1.30181
1.29895
1.29573
1.29223
1.28853
1.28473
1.28088
1.27705
1.27325
1.26951
1.26589
1.26245
1.25931
1.2566
1.2545
1.25313
1.2526
1.25293
1.25411
1.25601
1.2585
1.2614
1.26457
1.26787
1.27124
1.27465
1.27813
1.28168
1.28532
1.28903
1.29274
1.29636
1.29979
1.3029
1.30562
1.30788
1.30967
1.311
1.31193
1.31254
1.3129
1.3131
1.31321
1.31327
1.31332
1.31338
1.31346
1.31354
1.31362
1.31368
1.31373
1.31375
1.31373
1.31368
1.31361
1.31351
1.31339
1.31326
1.31313
1.31298
1.31284
1.31271
1.31257
1.31245
1.31234
1.31224
1.31216
1.31209
1.31204
1.312
1.31197
1.31195
1.31195
1.31196
1.31198
1.31199
1.312
1.31199
1.31195
1.3119
1.31183
1.31178
1.31179
1.31192
1.3122
1.31263
1.31311
1.3134
1.31318
1.31203
1.30949
1.30507
1.29852
1.28999
1.28025
1.27039
1.26147
1.25412
1.2485
1.24444
1.24161
1.23967
1.23831
1.23729
1.23643
1.2356
1.2347
1.23367
1.23246
1.23101
1.22925
1.22706
1.2242
1.22041
1.21539
1.21009
1.202
1.1929
1.18351
1.17452
1.16648
1.15969
1.15423
1.15001
1.14688
1.14459
1.14296
1.14179
1.14096
1.14034
1.13988
1.13951
1.13921
1.13895
1.13872
1.13852
1.13833
1.13816
1.138
1.13786
1.13774
1.13763
1.13755
1.13748
1.13744
1.13743
1.13744
1.13748
1.13754
1.13764
1.13776
1.13791
1.13809
1.13829
1.13852
1.13877
1.13904
1.13933
1.13963
1.13995
1.14028
1.14061
1.14095
1.14129
1.14164
1.14199
1.14233
1.14268
1.14303
1.14338
1.14372
1.14407
1.14443
1.14478
1.14514
1.1455
1.14586
1.14623
1.14661
1.14699
1.14738
1.14777
1.14818
1.14859
1.14902
1.14945
1.14989
1.15035
1.15081
1.15129
1.15178
1.15228
1.15279
1.15332
1.15386
1.15441
1.15498
1.15555
1.15614
1.15673
1.15733
1.15793
1.15853
1.15912
1.1597
1.16026
1.16079
1.16129
1.16174
1.16215
1.16249
1.16275
1.16294
1.16304
1.16304
1.16295
1.16277
1.16249
1.16213
1.16169
1.16117
1.1606
1.15998
1.15933
1.15865
1.15796
1.15727
1.15659
1.15592
1.15526
1.15462
1.154
1.1534
1.15282
1.15226
1.15171
1.15118
1.15067
1.15017
1.14968
1.14921
1.14875
1.14829
1.14785
1.14741
1.14698
1.14656
1.14615
1.14574
1.14534
1.14495
1.14457
1.1442
1.14383
1.14347
1.14312
1.14277
1.14244
1.14211
1.14179
1.14148
1.14118
1.14088
1.14059
1.1403
1.14002
1.13974
1.13946
1.13919
1.13892
1.13865
1.13839
1.13813
1.13787
1.13761
1.13737
1.13713
1.1369
1.13668
1.13649
1.13631
1.13615
1.13602
1.13591
1.13584
1.13579
1.13577
1.13578
1.13581
1.13587
1.13596
1.13607
1.13619
1.13633
1.13649
1.13666
1.13684
1.13703
1.13723
1.13744
1.13766
1.13788
1.13812
1.13836
1.13861
1.13886
1.13913
1.13941
1.1397
1.14003
1.1404
1.14087
1.14149
1.1424
1.14382
1.14608
1.14971
1.15541
1.16399
1.17619
1.19226
1.21151
1.23195
1.25057
1.26474
1.27358
1.27785
1.27879
1.27731
1.27406
1.26973
1.26509
1.26086
1.25764
1.25587
1.25581
1.25754
1.26098
1.2659
1.27188
1.27836
1.28479
1.29081
1.29631
1.30136
1.30603
1.31025
1.31383
1.31659
1.31843
1.3194
1.31971
1.31962
1.31936
1.3191
1.31893
1.31886
1.31884
1.31881
1.31875
1.31864
1.31847
1.31825
1.31799
1.3177
1.31737
1.31702
1.31666
1.3163
1.31595
1.31562
1.31533
1.31508
1.31487
1.3147
1.31456
1.31445
1.31435
1.31427
1.31417
1.31407
1.31395
1.31381
1.31366
1.31348
1.31328
1.31307
1.31286
1.31263
1.3124
1.31215
1.31185
1.31147
1.31096
1.31024
1.30924
1.30789
1.30612
1.30391
1.30126
1.29822
1.29487
1.29133
1.28774
1.28424
1.28091
1.27782
1.27501
1.27246
1.27013
1.26799
1.26602
1.26425
1.26274
1.26157
1.26083
1.26057
1.26083
1.26156
1.26268
1.26408
1.26566
1.26735
1.26912
1.27098
1.273
1.27524
1.27776
1.2806
1.28376
1.28718
1.29078
1.29442
1.29797
1.30129
1.30425
1.30678
1.30883
1.3104
1.31154
1.31231
1.3128
1.31309
1.31326
1.31336
1.31344
1.31351
1.3136
1.31368
1.31377
1.31385
1.3139
1.31392
1.31391
1.31387
1.31381
1.31371
1.31359
1.31346
1.31331
1.31316
1.313
1.31284
1.31269
1.31255
1.31242
1.31231
1.31221
1.31214
1.31208
1.31204
1.31202
1.31202
1.31203
1.31204
1.31206
1.31206
1.31205
1.31201
1.31196
1.31191
1.31191
1.31199
1.31218
1.31247
1.31282
1.31313
1.31324
1.31291
1.31183
1.30952
1.30541
1.29909
1.29066
1.28085
1.27083
1.26171
1.2542
1.24846
1.24434
1.24148
1.23953
1.23817
1.23717
1.23634
1.23555
1.23471
1.23374
1.23262
1.23129
1.22971
1.22777
1.2252
1.22163
1.21667
1.21142
1.20269
1.19282
1.18278
1.17341
1.16523
1.15851
1.15323
1.14924
1.14631
1.14421
1.14271
1.14165
1.14089
1.14032
1.13989
1.13954
1.13925
1.139
1.13878
1.13858
1.13839
1.13822
1.13807
1.13793
1.13781
1.13771
1.13763
1.13757
1.13754
1.13752
1.13754
1.13757
1.13764
1.13773
1.13785
1.13799
1.13816
1.13835
1.13857
1.13881
1.13907
1.13935
1.13964
1.13995
1.14027
1.1406
1.14094
1.14128
1.14162
1.14196
1.14231
1.14265
1.143
1.14334
1.14369
1.14404
1.14439
1.14474
1.1451
1.14545
1.14582
1.14619
1.14656
1.14694
1.14733
1.14773
1.14813
1.14854
1.14897
1.1494
1.14985
1.1503
1.15077
1.15125
1.15174
1.15224
1.15275
1.15328
1.15381
1.15436
1.15492
1.15549
1.15606
1.15664
1.15723
1.15781
1.15839
1.15896
1.15951
1.16004
1.16054
1.161
1.16142
1.16178
1.16208
1.16231
1.16247
1.16254
1.16253
1.16243
1.16225
1.16197
1.16162
1.1612
1.16071
1.16018
1.1596
1.15899
1.15836
1.15772
1.15707
1.15642
1.15578
1.15515
1.15454
1.15393
1.15335
1.15278
1.15222
1.15168
1.15115
1.15064
1.15014
1.14965
1.14917
1.1487
1.14825
1.1478
1.14736
1.14693
1.1465
1.14609
1.14568
1.14528
1.14489
1.14451
1.14413
1.14377
1.14341
1.14306
1.14272
1.14239
1.14207
1.14175
1.14144
1.14114
1.14085
1.14056
1.14027
1.13999
1.13972
1.13945
1.13918
1.13891
1.13864
1.13838
1.13812
1.13786
1.13761
1.13737
1.13714
1.13692
1.13671
1.13652
1.13635
1.1362
1.13607
1.13597
1.1359
1.13585
1.13583
1.13584
1.13587
1.13593
1.13602
1.13612
1.13624
1.13639
1.13654
1.13671
1.13689
1.13708
1.13728
1.13749
1.13771
1.13793
1.13817
1.13841
1.13866
1.13891
1.13918
1.13946
1.13976
1.14009
1.14047
1.14097
1.14164
1.14265
1.14422
1.14673
1.15073
1.15691
1.16598
1.1785
1.19447
1.21308
1.23246
1.24996
1.26325
1.27156
1.27563
1.27663
1.27544
1.27267
1.2689
1.26482
1.26113
1.25844
1.25719
1.25762
1.2598
1.26356
1.26856
1.27423
1.27996
1.28532
1.29017
1.2947
1.29915
1.30363
1.30802
1.31201
1.31527
1.31759
1.31896
1.31956
1.31964
1.31945
1.3192
1.319
1.31888
1.31883
1.3188
1.31874
1.31864
1.31848
1.31827
1.31802
1.31773
1.31742
1.31709
1.31676
1.31642
1.3161
1.31581
1.31554
1.31531
1.31511
1.31495
1.31481
1.31468
1.31457
1.31445
1.31432
1.31418
1.31403
1.31385
1.31366
1.31345
1.31325
1.31303
1.31282
1.3126
1.31235
1.31205
1.31164
1.31108
1.31028
1.30917
1.30769
1.30576
1.30338
1.30056
1.29735
1.29388
1.29026
1.28666
1.28323
1.2801
1.27738
1.27512
1.27333
1.272
1.27104
1.2704
1.26997
1.2697
1.26953
1.26942
1.26938
1.2694
1.26946
1.26956
1.26966
1.26978
1.26991
1.27009
1.2704
1.2709
1.2717
1.27287
1.27448
1.27655
1.27909
1.28205
1.28536
1.28891
1.29257
1.29619
1.29964
1.30279
1.30553
1.30782
1.30963
1.311
1.31198
1.31265
1.31308
1.31335
1.31352
1.31365
1.31375
1.31385
1.31395
1.31404
1.31412
1.31417
1.3142
1.31419
1.31415
1.31408
1.31398
1.31385
1.3137
1.31353
1.31336
1.31318
1.313
1.31283
1.31267
1.31253
1.31241
1.31231
1.31223
1.31218
1.31215
1.31214
1.31215
1.31216
1.31217
1.31217
1.31215
1.31212
1.31208
1.31206
1.31209
1.3122
1.31241
1.31268
1.31296
1.31314
1.31312
1.31274
1.31171
1.30956
1.30566
1.29953
1.29119
1.28138
1.27127
1.26202
1.25437
1.24852
1.24432
1.24141
1.23943
1.23808
1.23708
1.23628
1.23553
1.23474
1.23385
1.23281
1.23163
1.23028
1.22867
1.22648
1.22323
1.21833
1.21289
1.20331
1.19251
1.18175
1.17198
1.16374
1.15716
1.15212
1.1484
1.14572
1.14381
1.14247
1.14152
1.14083
1.14032
1.13992
1.13959
1.13932
1.13907
1.13886
1.13866
1.13847
1.13831
1.13816
1.13802
1.13791
1.13781
1.13773
1.13768
1.13764
1.13763
1.13765
1.13768
1.13775
1.13783
1.13794
1.13808
1.13824
1.13842
1.13863
1.13885
1.1391
1.13937
1.13966
1.13996
1.14027
1.14059
1.14092
1.14126
1.1416
1.14194
1.14228
1.14262
1.14296
1.14331
1.14365
1.144
1.14435
1.1447
1.14505
1.14541
1.14577
1.14614
1.14651
1.14689
1.14728
1.14767
1.14808
1.14849
1.14892
1.14935
1.1498
1.15026
1.15072
1.1512
1.1517
1.1522
1.15271
1.15324
1.15377
1.15431
1.15487
1.15543
1.15599
1.15657
1.15714
1.15772
1.15829
1.15886
1.15942
1.15997
1.1605
1.161
1.16146
1.16188
1.16224
1.16253
1.16273
1.16285
1.16287
1.16279
1.16261
1.16233
1.16197
1.16151
1.16098
1.16039
1.15976
1.15909
1.15841
1.15772
1.15703
1.15635
1.15568
1.15504
1.15441
1.15381
1.15322
1.15265
1.1521
1.15156
1.15105
1.15054
1.15004
1.14956
1.14909
1.14862
1.14817
1.14773
1.14729
1.14685
1.14644
1.14602
1.14561
1.14522
1.14483
1.14445
1.14408
1.14371
1.14336
1.14301
1.14267
1.14234
1.14202
1.14171
1.1414
1.1411
1.14081
1.14053
1.14024
1.13997
1.13969
1.13942
1.13915
1.13889
1.13863
1.13837
1.13811
1.13786
1.13761
1.13738
1.13715
1.13694
1.13674
1.13656
1.13639
1.13625
1.13613
1.13604
1.13597
1.13593
1.13591
1.13592
1.13595
1.13601
1.13609
1.13619
1.13632
1.13645
1.13661
1.13678
1.13695
1.13715
1.13735
1.13756
1.13777
1.138
1.13823
1.13847
1.13872
1.13898
1.13924
1.13952
1.13982
1.14016
1.14056
1.14108
1.14181
1.14292
1.14466
1.14743
1.15181
1.15846
1.168
1.18076
1.19654
1.21449
1.23287
1.24934
1.26177
1.26949
1.2733
1.27439
1.27359
1.27135
1.26817
1.26468
1.26156
1.25942
1.2587
1.25963
1.26224
1.26629
1.27127
1.27652
1.28143
1.28572
1.2895
1.29314
1.297
1.30123
1.30568
1.30998
1.31371
1.31655
1.3184
1.31935
1.31966
1.31958
1.31934
1.31911
1.31895
1.31887
1.31882
1.31877
1.31868
1.31853
1.31833
1.31809
1.31782
1.31753
1.31723
1.31692
1.31662
1.31633
1.31606
1.31582
1.3156
1.31542
1.31525
1.31511
1.31497
1.31483
1.31468
1.31452
1.31434
1.31414
1.31394
1.31372
1.3135
1.31328
1.31307
1.31284
1.31257
1.31223
1.31177
1.31112
1.31021
1.30895
1.30728
1.30517
1.3026
1.29961
1.29627
1.29271
1.28906
1.28548
1.28211
1.2791
1.27656
1.27456
1.27316
1.27236
1.27215
1.27245
1.27318
1.27419
1.27535
1.27647
1.27742
1.27806
1.2783
1.27809
1.27748
1.27652
1.27534
1.27408
1.2729
1.27192
1.27128
1.27107
1.27134
1.27214
1.27347
1.27533
1.27768
1.28047
1.28364
1.28709
1.2907
1.29434
1.29788
1.30117
1.30413
1.30667
1.30875
1.31039
1.31162
1.3125
1.31311
1.31352
1.31379
1.31398
1.31412
1.31424
1.31434
1.31443
1.3145
1.31455
1.31456
1.31455
1.3145
1.31441
1.31429
1.31414
1.31397
1.31378
1.31359
1.31339
1.31319
1.313
1.31284
1.31269
1.31256
1.31246
1.31239
1.31235
1.31233
1.31233
1.31233
1.31233
1.31232
1.31229
1.31226
1.31225
1.31227
1.31235
1.31251
1.31273
1.31295
1.31309
1.31309
1.31289
1.31239
1.31137
1.30935
1.30566
1.29977
1.29165
1.28196
1.27186
1.26254
1.25476
1.24877
1.24445
1.24145
1.23942
1.23804
1.23705
1.23627
1.23556
1.23483
1.234
1.23306
1.23203
1.23094
1.2297
1.22798
1.2251
1.22024
1.21441
1.20378
1.1919
1.18037
1.17027
1.16205
1.1557
1.15098
1.14756
1.14515
1.14345
1.14226
1.14142
1.1408
1.14034
1.13997
1.13966
1.1394
1.13916
1.13895
1.13875
1.13857
1.13841
1.13826
1.13813
1.13801
1.13792
1.13785
1.13779
1.13776
1.13775
1.13777
1.1378
1.13786
1.13795
1.13805
1.13817
1.13832
1.13849
1.13869
1.1389
1.13914
1.13939
1.13966
1.13995
1.14026
1.14057
1.14089
1.14122
1.14155
1.14189
1.14223
1.14256
1.14291
1.14325
1.14359
1.14393
1.14428
1.14463
1.14498
1.14534
1.1457
1.14607
1.14644
1.14682
1.14721
1.1476
1.14801
1.14842
1.14885
1.14928
1.14974
1.15019
1.15066
1.15114
1.15163
1.15213
1.15265
1.15316
1.15369
1.15423
1.15477
1.15532
1.15587
1.15642
1.15697
1.15753
1.15807
1.15861
1.15913
1.15963
1.16011
1.16056
1.16097
1.16133
1.16163
1.16187
1.16204
1.16213
1.16212
1.16203
1.16185
1.16158
1.16123
1.16081
1.16033
1.15979
1.15921
1.15861
1.15799
1.15736
1.15673
1.1561
1.15548
1.15487
1.15428
1.1537
1.15313
1.15258
1.15204
1.15151
1.15099
1.15049
1.15
1.14951
1.14903
1.14857
1.1481
1.14765
1.14722
1.14678
1.14635
1.14594
1.14553
1.14513
1.14474
1.14437
1.14399
1.14363
1.14328
1.14294
1.1426
1.14228
1.14196
1.14165
1.14134
1.14105
1.14076
1.14047
1.1402
1.13992
1.13965
1.13938
1.13912
1.13886
1.1386
1.13834
1.13809
1.13785
1.13761
1.13738
1.13716
1.13696
1.13677
1.1366
1.13645
1.13631
1.1362
1.13612
1.13605
1.13601
1.136
1.13601
1.13604
1.1361
1.13618
1.13628
1.1364
1.13654
1.13669
1.13686
1.13703
1.13722
1.13743
1.13763
1.13785
1.13808
1.13831
1.13855
1.1388
1.13905
1.13932
1.1396
1.13991
1.14025
1.14067
1.14122
1.14202
1.14323
1.14515
1.14821
1.15299
1.16011
1.17004
1.18292
1.19837
1.21553
1.23293
1.2485
1.26028
1.26761
1.27125
1.27239
1.27186
1.2701
1.26749
1.26461
1.26208
1.2605
1.26033
1.26181
1.26488
1.26916
1.27398
1.27865
1.28266
1.28594
1.28879
1.29168
1.29502
1.29897
1.30338
1.30787
1.31197
1.3153
1.31764
1.31901
1.3196
1.31968
1.31951
1.31928
1.31908
1.31896
1.31889
1.31884
1.31875
1.31862
1.31844
1.31822
1.31797
1.3177
1.31743
1.31715
1.31688
1.31662
1.31638
1.31616
1.31596
1.31578
1.31561
1.31545
1.31529
1.31512
1.31494
1.31475
1.31454
1.31431
1.31409
1.31386
1.31363
1.31339
1.31313
1.31283
1.31243
1.31187
1.31109
1.31001
1.30855
1.30666
1.30433
1.30155
1.2984
1.29495
1.29134
1.28772
1.28421
1.28098
1.27812
1.27574
1.27393
1.27274
1.2722
1.27234
1.27313
1.27452
1.2764
1.27862
1.28095
1.28315
1.28495
1.28611
1.2865
1.28604
1.2848
1.28294
1.28069
1.27828
1.27597
1.27395
1.27235
1.27127
1.27076
1.27081
1.27142
1.27258
1.27425
1.27641
1.27901
1.28199
1.28529
1.28881
1.29243
1.29602
1.29945
1.30261
1.30541
1.30778
1.30972
1.31123
1.31237
1.31319
1.31376
1.31416
1.31442
1.31461
1.31474
1.31485
1.31492
1.31497
1.315
1.31499
1.31495
1.31488
1.31477
1.31462
1.31445
1.31426
1.31405
1.31383
1.31362
1.31341
1.31321
1.31304
1.31289
1.31277
1.31268
1.31262
1.31258
1.31257
1.31256
1.31255
1.31253
1.31249
1.31246
1.31245
1.31251
1.31265
1.31285
1.31307
1.31321
1.3132
1.31299
1.31257
1.31192
1.31082
1.30882
1.3053
1.29969
1.29192
1.28255
1.27264
1.26334
1.25545
1.2493
1.2448
1.24167
1.23955
1.2381
1.23709
1.23631
1.23564
1.23495
1.2342
1.23335
1.23247
1.23165
1.23085
1.22965
1.2272
1.22236
1.2159
1.20404
1.19098
1.1787
1.16837
1.16028
1.15424
1.14987
1.14678
1.14463
1.14314
1.1421
1.14135
1.1408
1.14038
1.14004
1.13976
1.1395
1.13927
1.13906
1.13887
1.13869
1.13853
1.13838
1.13825
1.13814
1.13805
1.13798
1.13793
1.1379
1.13789
1.1379
1.13794
1.13799
1.13807
1.13816
1.13828
1.13841
1.13857
1.13875
1.13895
1.13917
1.13941
1.13967
1.13995
1.14024
1.14054
1.14085
1.14118
1.1415
1.14183
1.14217
1.1425
1.14284
1.14318
1.14352
1.14387
1.14421
1.14456
1.14491
1.14527
1.14563
1.14599
1.14637
1.14675
1.14713
1.14753
1.14794
1.14835
1.14878
1.14922
1.14967
1.15013
1.1506
1.15108
1.15157
1.15207
1.15258
1.15308
1.15361
1.15413
1.15465
1.15518
1.15572
1.15625
1.15678
1.15731
1.15784
1.15837
1.1589
1.15942
1.15993
1.16042
1.16089
1.16132
1.1617
1.162
1.16224
1.16238
1.16241
1.16234
1.16217
1.16189
1.16151
1.16105
1.16051
1.15991
1.15927
1.1586
1.15792
1.15724
1.15658
1.15593
1.15529
1.15468
1.15409
1.15351
1.15296
1.15242
1.15189
1.15138
1.15087
1.15037
1.14989
1.14941
1.14894
1.14848
1.14803
1.14757
1.14714
1.14671
1.14628
1.14586
1.14546
1.14506
1.14467
1.14429
1.14393
1.14356
1.14321
1.14287
1.14254
1.14221
1.1419
1.14159
1.14129
1.14099
1.1407
1.14042
1.14014
1.13987
1.1396
1.13934
1.13908
1.13882
1.13857
1.13831
1.13807
1.13783
1.1376
1.13738
1.13718
1.13698
1.13681
1.13665
1.13651
1.13639
1.13629
1.13621
1.13615
1.13611
1.1361
1.13611
1.13615
1.13621
1.13629
1.13639
1.1365
1.13664
1.13679
1.13696
1.13713
1.13732
1.13752
1.13773
1.13795
1.13818
1.13841
1.13865
1.1389
1.13915
1.13942
1.1397
1.14001
1.14036
1.1408
1.14139
1.14224
1.14357
1.14568
1.14904
1.15422
1.16177
1.17205
1.18496
1.2
1.21637
1.23285
1.2476
1.25879
1.26578
1.2693
1.27055
1.27029
1.26893
1.26684
1.26455
1.26267
1.26175
1.26221
1.26423
1.26766
1.27201
1.27653
1.28056
1.28373
1.28611
1.28815
1.29038
1.29322
1.29684
1.30112
1.3057
1.31009
1.31385
1.31667
1.3185
1.31945
1.31977
1.31972
1.31951
1.31929
1.31913
1.31902
1.31895
1.31888
1.31877
1.31862
1.31842
1.3182
1.31795
1.3177
1.31746
1.31722
1.31698
1.31677
1.31656
1.31637
1.31619
1.31601
1.31584
1.31565
1.31546
1.31525
1.31503
1.3148
1.31457
1.31432
1.31408
1.31381
1.31351
1.31314
1.31264
1.31195
1.311
1.30971
1.30801
1.30587
1.30328
1.30028
1.29695
1.2934
1.28977
1.28619
1.28281
1.27975
1.2771
1.27495
1.27335
1.27236
1.27202
1.27235
1.27337
1.27505
1.27734
1.28011
1.28318
1.28629
1.28915
1.29144
1.2929
1.29334
1.29272
1.2911
1.28868
1.28574
1.28257
1.27946
1.27663
1.27425
1.27241
1.27116
1.27049
1.2704
1.27084
1.27181
1.27326
1.27519
1.27756
1.28034
1.28348
1.28688
1.29046
1.2941
1.29766
1.30102
1.30408
1.30676
1.30902
1.31085
1.31226
1.31332
1.31409
1.31461
1.31497
1.3152
1.31535
1.31544
1.3155
1.31551
1.3155
1.31546
1.31539
1.31528
1.31515
1.31498
1.31478
1.31457
1.31434
1.31411
1.31389
1.31367
1.31348
1.31331
1.31317
1.31306
1.31298
1.31293
1.31289
1.31286
1.31282
1.31278
1.31274
1.31272
1.31275
1.31285
1.31303
1.31325
1.31341
1.31343
1.31323
1.31278
1.31213
1.31125
1.30998
1.30792
1.30453
1.29928
1.29203
1.28319
1.27365
1.26448
1.25651
1.25016
1.24543
1.24209
1.23982
1.23828
1.23721
1.23642
1.23576
1.23512
1.23443
1.23367
1.23294
1.2324
1.23205
1.23144
1.22946
1.22459
1.21724
1.20401
1.18973
1.17679
1.16634
1.15848
1.15282
1.14884
1.14608
1.14419
1.14289
1.14198
1.14133
1.14084
1.14046
1.14014
1.13987
1.13962
1.1394
1.13919
1.139
1.13883
1.13867
1.13852
1.13839
1.13828
1.13819
1.13812
1.13808
1.13805
1.13804
1.13805
1.13808
1.13813
1.13819
1.13828
1.13838
1.13851
1.13865
1.13881
1.139
1.1392
1.13943
1.13967
1.13993
1.14021
1.1405
1.1408
1.14112
1.14143
1.14176
1.14209
1.14242
1.14276
1.14309
1.14343
1.14378
1.14412
1.14447
1.14482
1.14518
1.14554
1.14591
1.14628
1.14666
1.14705
1.14745
1.14785
1.14827
1.1487
1.14914
1.14958
1.15005
1.15052
1.151
1.15149
1.15199
1.15248
1.15299
1.15351
1.15401
1.15453
1.15504
1.15555
1.15606
1.15656
1.15706
1.15756
1.15804
1.15852
1.15899
1.15943
1.15985
1.16024
1.1606
1.16089
1.16114
1.16132
1.16141
1.16143
1.16135
1.16117
1.16091
1.16056
1.16014
1.15966
1.15914
1.15857
1.15799
1.1574
1.15679
1.15619
1.1556
1.15502
1.15445
1.15389
1.15335
1.15282
1.1523
1.15179
1.15129
1.1508
1.1503
1.14982
1.14934
1.14887
1.1484
1.14795
1.1475
1.14704
1.14661
1.14619
1.14577
1.14536
1.14497
1.14458
1.1442
1.14383
1.14347
1.14312
1.14278
1.14245
1.14213
1.14181
1.14151
1.14121
1.14092
1.14063
1.14035
1.14008
1.13981
1.13954
1.13928
1.13902
1.13877
1.13852
1.13828
1.13804
1.13781
1.13759
1.13738
1.13719
1.13701
1.13685
1.1367
1.13657
1.13646
1.13637
1.1363
1.13625
1.13623
1.13622
1.13623
1.13627
1.13633
1.13641
1.13651
1.13662
1.13676
1.13691