# vtk DataFile Version 2.0
LBE two cylinders
ASCII
DATASET STRUCTURED_POINTS
DIMENSIONS 400 100 1
ASPECT_RATIO 1 1 1
ORIGIN 0 0 0
POINT_DATA 40000
SCALARS rho double 1
LOOKUP_TABLE default
1.08897
1.08902
1.08908
1.08913
1.08918
1.08922
1.08925
1.08929
1.08931
1.08933
1.08935
1.08937
1.08937
1.08938
1.08938
1.08937
1.08936
1.08935
1.08933
1.08931
1.08929
1.08927
1.08924
1.08921
1.08917
1.08914
1.08911
1.08907
1.08904
1.089
1.08897
1.08893
1.0889
1.08887
1.08885
1.08882
1.0888
1.08878
1.08877
1.08876
1.08876
1.08876
1.08876
1.08877
1.08879
1.08881
1.08884
1.08887
1.08891
1.08896
1.08901
1.08907
1.08914
1.08922
1.0893
1.08939
1.08949
1.0896
1.08971
1.08984
1.08997
1.09012
1.09027
1.09043
1.0906
1.09078
1.09097
1.09117
1.09139
1.09161
1.09184
1.09208
1.09233
1.09259
1.09287
1.09315
1.09344
1.09374
1.09405
1.09437
1.09469
1.09503
1.09536
1.0957
1.09605
1.09639
1.09673
1.09707
1.0974
1.09772
1.09804
1.09833
1.09862
1.09888
1.09912
1.09934
1.09954
1.09972
1.09987
1.09999
1.10009
1.10017
1.10023
1.10027
1.10029
1.1003
1.10029
1.10027
1.10024
1.10021
1.10017
1.10012
1.10007
1.10003
1.09998
1.09993
1.09988
1.09983
1.09979
1.09974
1.0997
1.09966
1.09962
1.09958
1.09954
1.0995
1.09945
1.09941
1.09937
1.09932
1.09928
1.09923
1.09917
1.09911
1.09905
1.09897
1.09889
1.0988
1.0987
1.09858
1.09844
1.09828
1.0981
1.09789
1.09766
1.09739
1.09709
1.09675
1.09638
1.09596
1.0955
1.09501
1.09447
1.0939
1.09329
1.09266
1.092
1.09131
1.09062
1.08991
1.08921
1.08851
1.08783
1.08716
1.08653
1.08593
1.08536
1.08484
1.08437
1.08395
1.08357
1.08325
1.08297
1.08273
1.08254
1.08238
1.08224
1.08213
1.08204
1.08195
1.08187
1.0818
1.08171
1.08162
1.08152
1.08141
1.08129
1.08115
1.08101
1.08085
1.08068
1.0805
1.08031
1.08012
1.07992
1.07971
1.07951
1.0793
1.07908
1.07887
1.07866
1.07844
1.07823
1.07801
1.0778
1.07758
1.07736
1.07714
1.07692
1.0767
1.07647
1.07625
1.07602
1.0758
1.07557
1.07535
1.07514
1.07492
1.07472
1.07452
1.07432
1.07414
1.07396
1.0738
1.07364
1.0735
1.07336
1.07324
1.07313
1.07302
1.07292
1.07283
1.07275
1.07267
1.0726
1.07253
1.07246
1.0724
1.07233
1.07227
1.0722
1.07213
1.07206
1.07198
1.0719
1.07181
1.07171
1.0716
1.07148
1.07136
1.07122
1.07107
1.0709
1.07073
1.07054
1.07034
1.07013
1.0699
1.06967
1.06942
1.06916
1.0689
1.06863
1.06835
1.06806
1.06778
1.06748
1.06719
1.0669
1.0666
1.0663
1.06601
1.06572
1.06543
1.06514
1.06486
1.06458
1.06431
1.06404
1.06378
1.06352
1.06327
1.06302
1.06278
1.06255
1.06232
1.0621
1.06188
1.06167
1.06146
1.06126
1.06107
1.06088
1.0607
1.06052
1.06034
1.06018
1.06001
1.05985
1.0597
1.05955
1.05941
1.05927
1.05914
1.05901
1.05889
1.05877
1.05866
1.05856
1.05846
1.05837
1.05829
1.05821
1.05814
1.05808
1.05803
1.05799
1.05795
1.05793
1.05791
1.05791
1.05791
1.05793
1.05795
1.05799
1.05804
1.0581
1.05816
1.05824
1.05832
1.05842
1.05852
1.05863
1.05874
1.05885
1.05897
1.0591
1.05922
1.05935
1.05948
1.05961
1.05974
1.05986
1.05999
1.06012
1.06025
1.06038
1.06051
1.06065
1.06078
1.06092
1.06106
1.0612
1.06135
1.0615
1.06166
1.06182
1.06198
1.06215
1.06232
1.06249
1.06266
1.06284
1.06302
1.06319
1.06337
1.06355
1.06373
1.06391
1.06408
1.06425
1.06442
1.06459
1.06476
1.06491
1.06507
1.06522
1.06536
1.0655
1.06563
1.06576
1.06588
1.06599
1.06609
1.06619
1.06628
1.06636
1.06644
1.06651
1.06657
1.06663
1.06668
1.06673
1.06677
1.06681
1.06685
1.06688
1.06691
1.06693
1.06696
1.0889
1.08895
1.08901
1.08906
1.0891
1.08914
1.08918
1.08921
1.08924
1.08927
1.08928
1.0893
1.08931
1.08931
1.08932
1.08931
1.08931
1.0893
1.08928
1.08926
1.08924
1.08922
1.08919
1.08917
1.08914
1.0891
1.08907
1.08904
1.08901
1.08897
1.08894
1.08891
1.08888
1.08886
1.08883
1.08881
1.08879
1.08877
1.08876
1.08876
1.08875
1.08875
1.08876
1.08877
1.08879
1.08881
1.08884
1.08888
1.08892
1.08897
1.08902
1.08908
1.08915
1.08923
1.08931
1.08941
1.0895
1.08961
1.08973
1.08985
1.08999
1.09013
1.09028
1.09044
1.09061
1.09079
1.09098
1.09118
1.09139
1.09161
1.09184
1.09208
1.09233
1.09259
1.09286
1.09314
1.09343
1.09372
1.09403
1.09434
1.09466
1.09499
1.09532
1.09566
1.096
1.09633
1.09667
1.097
1.09733
1.09765
1.09795
1.09825
1.09852
1.09878
1.09902
1.09924
1.09944
1.09962
1.09977
1.09989
1.1
1.10008
1.10014
1.10018
1.10021
1.10022
1.10022
1.1002
1.10018
1.10015
1.10011
1.10007
1.10003
1.09998
1.09993
1.09989
1.09984
1.0998
1.09975
1.09971
1.09967
1.09962
1.09958
1.09954
1.0995
1.09946
1.09942
1.09938
1.09933
1.09929
1.09924
1.09919
1.09913
1.09907
1.09901
1.09893
1.09885
1.09876
1.09865
1.09853
1.09839
1.09823
1.09805
1.09784
1.0976
1.09733
1.09703
1.09668
1.09631
1.09589
1.09543
1.09493
1.09439
1.09382
1.09321
1.09258
1.09192
1.09124
1.09054
1.08984
1.08914
1.08845
1.08777
1.08711
1.08648
1.08588
1.08532
1.08481
1.08434
1.08392
1.08354
1.08322
1.08294
1.08271
1.08251
1.08234
1.08221
1.08209
1.082
1.08191
1.08182
1.08174
1.08165
1.08156
1.08146
1.08134
1.08122
1.08108
1.08093
1.08077
1.0806
1.08042
1.08023
1.08004
1.07984
1.07963
1.07943
1.07922
1.079
1.07879
1.07858
1.07836
1.07814
1.07793
1.07771
1.07749
1.07727
1.07705
1.07683
1.07661
1.07639
1.07616
1.07594
1.07571
1.07549
1.07527
1.07506
1.07484
1.07464
1.07444
1.07425
1.07407
1.0739
1.07373
1.07358
1.07344
1.07331
1.07318
1.07307
1.07297
1.07287
1.07278
1.0727
1.07263
1.07255
1.07249
1.07242
1.07236
1.0723
1.07223
1.07217
1.0721
1.07203
1.07195
1.07187
1.07178
1.07169
1.07158
1.07147
1.07134
1.07121
1.07106
1.0709
1.07072
1.07054
1.07034
1.07013
1.06991
1.06968
1.06944
1.06919
1.06893
1.06866
1.06839
1.06811
1.06783
1.06754
1.06725
1.06696
1.06667
1.06638
1.06609
1.0658
1.06552
1.06523
1.06495
1.06468
1.06441
1.06414
1.06388
1.06363
1.06338
1.06313
1.0629
1.06266
1.06244
1.06222
1.062
1.06179
1.06158
1.06138
1.06119
1.061
1.06082
1.06064
1.06046
1.06029
1.06013
1.05997
1.05981
1.05966
1.05952
1.05938
1.05924
1.05911
1.05899
1.05887
1.05876
1.05865
1.05855
1.05846
1.05837
1.05829
1.05822
1.05816
1.05811
1.05806
1.05802
1.058
1.05798
1.05797
1.05798
1.05799
1.05801
1.05805
1.05809
1.05815
1.05822
1.05829
1.05837
1.05846
1.05856
1.05867
1.05878
1.05889
1.05901
1.05913
1.05925
1.05938
1.05951
1.05963
1.05976
1.05989
1.06001
1.06014
1.06027
1.0604
1.06053
1.06066
1.0608
1.06093
1.06107
1.06122
1.06136
1.06151
1.06167
1.06182
1.06199
1.06215
1.06232
1.06249
1.06266
1.06284
1.06301
1.06319
1.06337
1.06355
1.06372
1.0639
1.06407
1.06425
1.06442
1.06458
1.06475
1.06491
1.06506
1.06521
1.06535
1.06549
1.06562
1.06575
1.06587
1.06598
1.06608
1.06618
1.06627
1.06635
1.06643
1.0665
1.06656
1.06662
1.06667
1.06672
1.06677
1.0668
1.06684
1.06687
1.0669
1.06693
1.06695
1.08875
1.08881
1.08886
1.08891
1.08896
1.089
1.08904
1.08908
1.08911
1.08913
1.08915
1.08917
1.08918
1.08919
1.0892
1.0892
1.08919
1.08919
1.08918
1.08916
1.08915
1.08913
1.0891
1.08908
1.08905
1.08903
1.089
1.08897
1.08894
1.08891
1.08888
1.08886
1.08883
1.08881
1.08879
1.08877
1.08875
1.08874
1.08873
1.08873
1.08873
1.08873
1.08874
1.08875
1.08877
1.0888
1.08883
1.08887
1.08891
1.08896
1.08901
1.08908
1.08915
1.08922
1.08931
1.0894
1.0895
1.08961
1.08973
1.08985
1.08998
1.09013
1.09028
1.09044
1.09061
1.09079
1.09098
1.09118
1.09138
1.0916
1.09183
1.09207
1.09232
1.09258
1.09284
1.09312
1.09341
1.0937
1.094
1.09432
1.09463
1.09496
1.09529
1.09562
1.09595
1.09629
1.09662
1.09695
1.09727
1.09759
1.09789
1.09818
1.09846
1.09872
1.09896
1.09918
1.09937
1.09955
1.0997
1.09983
1.09993
1.10002
1.10008
1.10012
1.10015
1.10017
1.10016
1.10015
1.10013
1.1001
1.10007
1.10003
1.09999
1.09994
1.0999
1.09985
1.0998
1.09976
1.09971
1.09967
1.09962
1.09958
1.09954
1.0995
1.09946
1.09941
1.09937
1.09933
1.09928
1.09923
1.09919
1.09913
1.09908
1.09901
1.09895
1.09887
1.09879
1.09869
1.09858
1.09846
1.09832
1.09816
1.09797
1.09776
1.09752
1.09724
1.09694
1.09659
1.09621
1.09579
1.09532
1.09482
1.09428
1.09371
1.0931
1.09246
1.0918
1.09112
1.09042
1.08972
1.08902
1.08833
1.08765
1.087
1.08637
1.08577
1.08522
1.08471
1.08424
1.08382
1.08345
1.08313
1.08285
1.08261
1.08241
1.08225
1.08211
1.08199
1.08189
1.08179
1.08171
1.08162
1.08153
1.08143
1.08132
1.08121
1.08108
1.08094
1.08079
1.08062
1.08045
1.08027
1.08008
1.07989
1.07969
1.07948
1.07927
1.07906
1.07885
1.07863
1.07842
1.0782
1.07799
1.07777
1.07755
1.07733
1.07711
1.07689
1.07667
1.07644
1.07622
1.076
1.07577
1.07555
1.07533
1.07511
1.0749
1.07469
1.07449
1.07429
1.0741
1.07392
1.07375
1.07359
1.07344
1.07331
1.07318
1.07306
1.07295
1.07285
1.07276
1.07267
1.0726
1.07252
1.07246
1.07239
1.07233
1.07227
1.07222
1.07216
1.0721
1.07204
1.07197
1.0719
1.07182
1.07174
1.07165
1.07155
1.07144
1.07132
1.07119
1.07105
1.07089
1.07073
1.07055
1.07036
1.07016
1.06994
1.06972
1.06949
1.06924
1.06899
1.06873
1.06847
1.0682
1.06792
1.06764
1.06736
1.06708
1.0668
1.06652
1.06623
1.06595
1.06568
1.0654
1.06513
1.06486
1.0646
1.06434
1.06408
1.06383
1.06359
1.06335
1.06311
1.06288
1.06266
1.06244
1.06222
1.06201
1.06181
1.06161
1.06142
1.06123
1.06104
1.06086
1.06068
1.06051
1.06035
1.06018
1.06002
1.05987
1.05972
1.05958
1.05944
1.0593
1.05918
1.05905
1.05894
1.05883
1.05872
1.05862
1.05853
1.05845
1.05837
1.05831
1.05825
1.0582
1.05816
1.05812
1.0581
1.05809
1.05809
1.0581
1.05812
1.05815
1.05819
1.05824
1.05831
1.05838
1.05846
1.05854
1.05864
1.05874
1.05885
1.05896
1.05907
1.05919
1.05931
1.05943
1.05955
1.05968
1.0598
1.05993
1.06005
1.06018
1.0603
1.06043
1.06056
1.06069
1.06082
1.06096
1.0611
1.06124
1.06138
1.06153
1.06168
1.06184
1.062
1.06216
1.06233
1.0625
1.06267
1.06284
1.06302
1.06319
1.06337
1.06355
1.06372
1.0639
1.06407
1.06424
1.06441
1.06458
1.06474
1.0649
1.06505
1.0652
1.06534
1.06548
1.06561
1.06574
1.06585
1.06596
1.06607
1.06617
1.06626
1.06634
1.06642
1.06649
1.06655
1.06661
1.06666
1.06671
1.06675
1.06679
1.06683
1.06686
1.06689
1.06692
1.06694
1.08854
1.0886
1.08866
1.08871
1.08876
1.0888
1.08884
1.08888
1.08891
1.08894
1.08897
1.08899
1.08901
1.08902
1.08903
1.08903
1.08903
1.08903
1.08903
1.08902
1.08901
1.08899
1.08897
1.08896
1.08894
1.08891
1.08889
1.08887
1.08884
1.08882
1.0888
1.08877
1.08875
1.08873
1.08872
1.0887
1.08869
1.08868
1.08868
1.08868
1.08868
1.08869
1.0887
1.08872
1.08874
1.08877
1.0888
1.08884
1.08888
1.08893
1.08899
1.08906
1.08913
1.0892
1.08929
1.08938
1.08948
1.08959
1.08971
1.08983
1.08997
1.09011
1.09026
1.09042
1.09059
1.09077
1.09096
1.09116
1.09136
1.09158
1.09181
1.09205
1.09229
1.09255
1.09281
1.09309
1.09337
1.09367
1.09397
1.09428
1.09459
1.09491
1.09524
1.09557
1.0959
1.09624
1.09657
1.0969
1.09722
1.09753
1.09784
1.09813
1.09841
1.09866
1.09891
1.09913
1.09932
1.0995
1.09965
1.09978
1.09989
1.09997
1.10004
1.10008
1.10011
1.10013
1.10013
1.10012
1.10009
1.10007
1.10003
1.09999
1.09995
1.0999
1.09986
1.09981
1.09976
1.09972
1.09967
1.09962
1.09958
1.09953
1.09949
1.09945
1.0994
1.09936
1.09931
1.09927
1.09922
1.09917
1.09912
1.09906
1.099
1.09894
1.09887
1.09879
1.0987
1.09861
1.0985
1.09837
1.09822
1.09806
1.09787
1.09765
1.09741
1.09713
1.09682
1.09647
1.09608
1.09566
1.09519
1.09468
1.09414
1.09356
1.09295
1.09231
1.09164
1.09096
1.09026
1.08956
1.08886
1.08817
1.08749
1.08684
1.08621
1.08562
1.08506
1.08455
1.08408
1.08367
1.08329
1.08297
1.08269
1.08245
1.08225
1.08209
1.08194
1.08182
1.08172
1.08162
1.08153
1.08143
1.08134
1.08124
1.08113
1.081
1.08087
1.08073
1.08058
1.08041
1.08024
1.08006
1.07986
1.07967
1.07947
1.07926
1.07905
1.07884
1.07862
1.07841
1.07819
1.07797
1.07776
1.07754
1.07732
1.0771
1.07688
1.07666
1.07643
1.07621
1.07598
1.07576
1.07554
1.07531
1.0751
1.07488
1.07467
1.07446
1.07426
1.07407
1.07389
1.07371
1.07355
1.07339
1.07325
1.07311
1.07299
1.07288
1.07277
1.07268
1.07259
1.07251
1.07244
1.07237
1.07231
1.07226
1.0722
1.07215
1.0721
1.07205
1.07199
1.07194
1.07188
1.07181
1.07175
1.07167
1.07159
1.0715
1.07139
1.07128
1.07116
1.07103
1.07088
1.07073
1.07056
1.07038
1.07019
1.06999
1.06977
1.06955
1.06932
1.06908
1.06883
1.06858
1.06832
1.06806
1.06779
1.06752
1.06725
1.06698
1.06671
1.06644
1.06617
1.0659
1.06564
1.06538
1.06512
1.06486
1.06461
1.06436
1.06412
1.06388
1.06365
1.06342
1.06319
1.06297
1.06275
1.06254
1.06234
1.06213
1.06194
1.06174
1.06155
1.06136
1.06118
1.061
1.06083
1.06066
1.06049
1.06033
1.06017
1.06002
1.05987
1.05973
1.05959
1.05945
1.05932
1.0592
1.05908
1.05897
1.05887
1.05877
1.05868
1.0586
1.05852
1.05846
1.0584
1.05835
1.05831
1.05828
1.05826
1.05826
1.05826
1.05827
1.0583
1.05834
1.05838
1.05844
1.0585
1.05858
1.05866
1.05875
1.05884
1.05894
1.05905
1.05916
1.05927
1.05939
1.05951
1.05963
1.05975
1.05987
1.05999
1.06011
1.06023
1.06036
1.06048
1.06061
1.06074
1.06087
1.061
1.06113
1.06127
1.06141
1.06156
1.06171
1.06186
1.06202
1.06218
1.06234
1.06251
1.06268
1.06285
1.06302
1.0632
1.06337
1.06355
1.06372
1.06389
1.06407
1.06424
1.0644
1.06457
1.06473
1.06489
1.06504
1.06519
1.06533
1.06547
1.0656
1.06572
1.06584
1.06595
1.06605
1.06615
1.06624
1.06632
1.0664
1.06647
1.06654
1.06659
1.06665
1.0667
1.06674
1.06678
1.06682
1.06685
1.06688
1.06691
1.06693
1.08827
1.08834
1.0884
1.08845
1.0885
1.08855
1.0886
1.08864
1.08867
1.08871
1.08874
1.08876
1.08878
1.0888
1.08881
1.08882
1.08883
1.08883
1.08884
1.08883
1.08883
1.08882
1.08881
1.0888
1.08878
1.08877
1.08875
1.08873
1.08872
1.0887
1.08868
1.08867
1.08865
1.08864
1.08863
1.08862
1.08861
1.08861
1.08861
1.08861
1.08862
1.08863
1.08864
1.08866
1.08869
1.08872
1.08875
1.08879
1.08884
1.08889
1.08895
1.08902
1.08909
1.08917
1.08926
1.08935
1.08945
1.08956
1.08968
1.0898
1.08994
1.09008
1.09023
1.09039
1.09056
1.09074
1.09093
1.09112
1.09133
1.09155
1.09177
1.09201
1.09225
1.09251
1.09277
1.09305
1.09333
1.09362
1.09392
1.09423
1.09454
1.09486
1.09519
1.09552
1.09585
1.09618
1.09651
1.09684
1.09716
1.09748
1.09779
1.09808
1.09836
1.09862
1.09886
1.09909
1.09929
1.09946
1.09962
1.09975
1.09986
1.09995
1.10001
1.10006
1.10009
1.1001
1.1001
1.10009
1.10006
1.10003
1.1
1.09996
1.09991
1.09987
1.09982
1.09977
1.09972
1.09967
1.09962
1.09957
1.09953
1.09948
1.09943
1.09938
1.09934
1.09929
1.09924
1.09919
1.09914
1.09909
1.09903
1.09897
1.09891
1.09885
1.09877
1.09869
1.0986
1.0985
1.09838
1.09825
1.09811
1.09794
1.09774
1.09752
1.09727
1.09699
1.09668
1.09632
1.09593
1.0955
1.09503
1.09452
1.09397
1.09338
1.09277
1.09212
1.09146
1.09077
1.09007
1.08937
1.08866
1.08797
1.08729
1.08664
1.08601
1.08541
1.08486
1.08435
1.08388
1.08346
1.08309
1.08277
1.08249
1.08225
1.08204
1.08187
1.08173
1.0816
1.08149
1.08139
1.08129
1.08119
1.08109
1.08099
1.08087
1.08075
1.08061
1.08047
1.08031
1.08014
1.07997
1.07978
1.07959
1.07939
1.07919
1.07898
1.07877
1.07856
1.07834
1.07812
1.07791
1.07769
1.07747
1.07725
1.07703
1.07681
1.07658
1.07636
1.07614
1.07591
1.07569
1.07546
1.07524
1.07502
1.0748
1.07459
1.07438
1.07418
1.07398
1.07379
1.07361
1.07344
1.07328
1.07313
1.07299
1.07287
1.07275
1.07264
1.07254
1.07246
1.07238
1.0723
1.07224
1.07218
1.07213
1.07208
1.07203
1.07199
1.07194
1.0719
1.07186
1.07181
1.07176
1.07171
1.07165
1.07158
1.07151
1.07143
1.07134
1.07124
1.07113
1.07101
1.07087
1.07073
1.07057
1.07041
1.07023
1.07004
1.06984
1.06963
1.06941
1.06919
1.06896
1.06872
1.06847
1.06823
1.06798
1.06772
1.06747
1.06721
1.06695
1.0667
1.06644
1.06619
1.06593
1.06568
1.06543
1.06519
1.06495
1.06471
1.06448
1.06425
1.06402
1.0638
1.06358
1.06336
1.06315
1.06294
1.06274
1.06254
1.06234
1.06215
1.06196
1.06177
1.06159
1.06141
1.06123
1.06106
1.06089
1.06073
1.06056
1.0604
1.06025
1.0601
1.05995
1.05981
1.05967
1.05954
1.05942
1.0593
1.05919
1.05908
1.05898
1.05889
1.0588
1.05873
1.05866
1.05861
1.05856
1.05852
1.05849
1.05848
1.05847
1.05848
1.0585
1.05852
1.05856
1.05861
1.05867
1.05873
1.05881
1.05889
1.05898
1.05907
1.05917
1.05928
1.05939
1.0595
1.05961
1.05972
1.05984
1.05996
1.06007
1.06019
1.06031
1.06043
1.06055
1.06067
1.0608
1.06092
1.06105
1.06118
1.06132
1.06146
1.0616
1.06175
1.0619
1.06205
1.06221
1.06237
1.06253
1.0627
1.06286
1.06303
1.06321
1.06338
1.06355
1.06372
1.06389
1.06406
1.06423
1.0644
1.06456
1.06472
1.06488
1.06503
1.06518
1.06532
1.06545
1.06558
1.06571
1.06582
1.06593
1.06604
1.06613
1.06622
1.06631
1.06638
1.06645
1.06652
1.06658
1.06663
1.06668
1.06672
1.06676
1.0668
1.06683
1.06686
1.06689
1.06692
1.08797
1.08803
1.0881
1.08815
1.08821
1.08826
1.08831
1.08835
1.08839
1.08843
1.08847
1.0885
1.08852
1.08855
1.08857
1.08858
1.0886
1.08861
1.08861
1.08862
1.08862
1.08862
1.08862
1.08861
1.0886
1.0886
1.08859
1.08858
1.08857
1.08856
1.08855
1.08854
1.08853
1.08852
1.08852
1.08851
1.08851
1.08851
1.08852
1.08853
1.08854
1.08855
1.08857
1.0886
1.08863
1.08866
1.0887
1.08874
1.08879
1.08885
1.08891
1.08898
1.08905
1.08913
1.08922
1.08931
1.08941
1.08952
1.08964
1.08977
1.0899
1.09004
1.09019
1.09035
1.09052
1.0907
1.09089
1.09108
1.09129
1.0915
1.09173
1.09196
1.0922
1.09246
1.09272
1.09299
1.09327
1.09356
1.09386
1.09416
1.09447
1.09479
1.09512
1.09545
1.09578
1.09611
1.09644
1.09677
1.0971
1.09741
1.09772
1.09802
1.0983
1.09857
1.09882
1.09904
1.09925
1.09943
1.09959
1.09972
1.09983
1.09992
1.09999
1.10003
1.10006
1.10007
1.10007
1.10006
1.10003
1.1
1.09996
1.09992
1.09988
1.09983
1.09978
1.09973
1.09967
1.09962
1.09957
1.09952
1.09947
1.09942
1.09936
1.09931
1.09926
1.09921
1.09916
1.09911
1.09905
1.09899
1.09894
1.09887
1.09881
1.09874
1.09866
1.09857
1.09848
1.09837
1.09826
1.09812
1.09797
1.0978
1.0976
1.09737
1.09712
1.09683
1.09651
1.09615
1.09576
1.09532
1.09484
1.09433
1.09377
1.09318
1.09256
1.09191
1.09124
1.09055
1.08985
1.08914
1.08844
1.08774
1.08706
1.0864
1.08577
1.08518
1.08462
1.08411
1.08364
1.08322
1.08285
1.08252
1.08224
1.082
1.08179
1.08161
1.08146
1.08133
1.08122
1.08111
1.08101
1.08091
1.0808
1.08069
1.08057
1.08044
1.0803
1.08016
1.08
1.07983
1.07965
1.07946
1.07927
1.07907
1.07886
1.07866
1.07844
1.07823
1.07801
1.07779
1.07757
1.07735
1.07713
1.07691
1.07669
1.07646
1.07624
1.07601
1.07579
1.07556
1.07534
1.07512
1.07489
1.07467
1.07446
1.07425
1.07404
1.07384
1.07365
1.07347
1.07329
1.07313
1.07297
1.07283
1.0727
1.07258
1.07247
1.07237
1.07228
1.0722
1.07213
1.07206
1.07201
1.07196
1.07191
1.07187
1.07183
1.0718
1.07177
1.07173
1.0717
1.07166
1.07162
1.07158
1.07153
1.07148
1.07142
1.07135
1.07127
1.07118
1.07108
1.07097
1.07086
1.07073
1.07058
1.07043
1.07027
1.07009
1.06991
1.06972
1.06952
1.06931
1.06909
1.06887
1.06865
1.06841
1.06818
1.06794
1.06771
1.06747
1.06722
1.06698
1.06674
1.06651
1.06627
1.06603
1.0658
1.06557
1.06534
1.06511
1.06489
1.06467
1.06445
1.06424
1.06403
1.06382
1.06362
1.06341
1.06321
1.06302
1.06283
1.06264
1.06245
1.06226
1.06208
1.0619
1.06172
1.06154
1.06137
1.0612
1.06103
1.06087
1.06071
1.06055
1.0604
1.06025
1.0601
1.05996
1.05983
1.0597
1.05958
1.05946
1.05935
1.05925
1.05916
1.05907
1.05899
1.05892
1.05887
1.05882
1.05878
1.05876
1.05874
1.05874
1.05874
1.05876
1.05879
1.05883
1.05887
1.05893
1.059
1.05907
1.05915
1.05924
1.05933
1.05943
1.05953
1.05963
1.05974
1.05985
1.05996
1.06007
1.06018
1.06029
1.06041
1.06052
1.06064
1.06076
1.06088
1.061
1.06112
1.06125
1.06138
1.06152
1.06165
1.0618
1.06194
1.06209
1.06224
1.0624
1.06256
1.06272
1.06289
1.06305
1.06322
1.06339
1.06356
1.06373
1.0639
1.06407
1.06423
1.0644
1.06456
1.06472
1.06487
1.06502
1.06517
1.06531
1.06544
1.06557
1.06569
1.06581
1.06592
1.06602
1.06611
1.0662
1.06629
1.06636
1.06643
1.0665
1.06656
1.06661
1.06666
1.0667
1.06674
1.06678
1.06681
1.06685
1.06688
1.0669
1.08764
1.0877
1.08777
1.08783
1.08789
1.08794
1.08799
1.08804
1.08809
1.08813
1.08817
1.08821
1.08824
1.08827
1.08829
1.08832
1.08834
1.08835
1.08837
1.08838
1.08839
1.0884
1.0884
1.08841
1.08841
1.08841
1.08841
1.0884
1.0884
1.0884
1.0884
1.0884
1.08839
1.08839
1.0884
1.0884
1.0884
1.08841
1.08842
1.08844
1.08845
1.08847
1.0885
1.08852
1.08856
1.08859
1.08864
1.08868
1.08873
1.08879
1.08886
1.08892
1.089
1.08908
1.08917
1.08927
1.08937
1.08948
1.0896
1.08972
1.08985
1.09
1.09015
1.09031
1.09047
1.09065
1.09084
1.09103
1.09123
1.09145
1.09167
1.0919
1.09214
1.09239
1.09265
1.09292
1.0932
1.09349
1.09378
1.09408
1.09439
1.09471
1.09503
1.09536
1.09569
1.09602
1.09636
1.09669
1.09702
1.09734
1.09765
1.09795
1.09824
1.09851
1.09876
1.099
1.09921
1.09939
1.09955
1.09969
1.0998
1.09989
1.09996
1.1
1.10003
1.10004
1.10004
1.10002
1.1
1.09997
1.09993
1.09988
1.09983
1.09978
1.09973
1.09967
1.09962
1.09956
1.09951
1.09945
1.0994
1.09934
1.09929
1.09924
1.09918
1.09912
1.09907
1.09901
1.09895
1.09889
1.09883
1.09876
1.09869
1.09861
1.09853
1.09844
1.09834
1.09823
1.09811
1.09797
1.09782
1.09764
1.09744
1.09721
1.09695
1.09666
1.09633
1.09597
1.09556
1.09512
1.09464
1.09412
1.09356
1.09296
1.09234
1.09168
1.09101
1.09031
1.0896
1.08889
1.08818
1.08749
1.0868
1.08614
1.08551
1.08491
1.08436
1.08384
1.08337
1.08295
1.08258
1.08225
1.08196
1.08171
1.0815
1.08132
1.08117
1.08103
1.08091
1.0808
1.08069
1.08059
1.08048
1.08036
1.08024
1.0801
1.07996
1.07981
1.07965
1.07947
1.07929
1.07911
1.07891
1.07871
1.0785
1.07829
1.07808
1.07786
1.07764
1.07743
1.0772
1.07698
1.07676
1.07653
1.07631
1.07608
1.07586
1.07563
1.07541
1.07518
1.07495
1.07473
1.07451
1.07429
1.07408
1.07387
1.07367
1.07347
1.07329
1.07311
1.07294
1.07278
1.07264
1.0725
1.07237
1.07226
1.07216
1.07207
1.07199
1.07191
1.07185
1.0718
1.07175
1.07171
1.07167
1.07164
1.07161
1.07159
1.07157
1.07154
1.07152
1.0715
1.07147
1.07144
1.0714
1.07136
1.07131
1.07125
1.07119
1.07111
1.07103
1.07093
1.07083
1.07071
1.07059
1.07045
1.0703
1.07015
1.06998
1.0698
1.06962
1.06943
1.06923
1.06903
1.06882
1.06861
1.0684
1.06818
1.06796
1.06774
1.06752
1.06729
1.06707
1.06685
1.06663
1.06641
1.06619
1.06597
1.06576
1.06555
1.06534
1.06513
1.06492
1.06472
1.06452
1.06432
1.06413
1.06393
1.06374
1.06355
1.06336
1.06318
1.06299
1.06281
1.06263
1.06245
1.06227
1.06209
1.06192
1.06174
1.06157
1.0614
1.06124
1.06107
1.06091
1.06076
1.0606
1.06046
1.06031
1.06017
1.06004
1.05991
1.05979
1.05968
1.05957
1.05948
1.05939
1.05931
1.05924
1.05918
1.05913
1.05909
1.05906
1.05905
1.05904
1.05905
1.05906
1.05909
1.05913
1.05918
1.05923
1.05929
1.05937
1.05944
1.05953
1.05961
1.0597
1.0598
1.0599
1.06
1.0601
1.06021
1.06031
1.06042
1.06053
1.06064
1.06075
1.06086
1.06098
1.06109
1.06121
1.06133
1.06146
1.06159
1.06172
1.06186
1.062
1.06214
1.06229
1.06244
1.0626
1.06275
1.06292
1.06308
1.06324
1.06341
1.06357
1.06374
1.06391
1.06407
1.06423
1.0644
1.06455
1.06471
1.06486
1.06501
1.06515
1.06529
1.06543
1.06555
1.06567
1.06579
1.0659
1.066
1.06609
1.06618
1.06626
1.06634
1.06641
1.06647
1.06653
1.06659
1.06663
1.06668
1.06672
1.06676
1.06679
1.06683
1.06686
1.06689
1.08729
1.08736
1.08742
1.08749
1.08755
1.08761
1.08767
1.08772
1.08777
1.08782
1.08786
1.0879
1.08794
1.08798
1.08801
1.08804
1.08807
1.08809
1.08811
1.08813
1.08815
1.08816
1.08818
1.08819
1.0882
1.08821
1.08822
1.08822
1.08823
1.08823
1.08824
1.08825
1.08825
1.08826
1.08827
1.08828
1.08829
1.0883
1.08832
1.08834
1.08836
1.08839
1.08842
1.08845
1.08848
1.08853
1.08857
1.08862
1.08867
1.08873
1.0888
1.08887
1.08895
1.08903
1.08912
1.08922
1.08932
1.08943
1.08955
1.08967
1.0898
1.08995
1.09009
1.09025
1.09042
1.09059
1.09078
1.09097
1.09117
1.09138
1.0916
1.09183
1.09207
1.09232
1.09257
1.09284
1.09311
1.0934
1.09369
1.09399
1.09429
1.09461
1.09493
1.09525
1.09558
1.09591
1.09625
1.09658
1.09691
1.09724
1.09755
1.09786
1.09816
1.09843
1.09869
1.09893
1.09915
1.09934
1.09951
1.09965
1.09976
1.09985
1.09992
1.09997
1.1
1.10001
1.1
1.09998
1.09996
1.09992
1.09988
1.09983
1.09978
1.09973
1.09967
1.09961
1.09956
1.0995
1.09944
1.09938
1.09932
1.09926
1.09921
1.09915
1.09909
1.09903
1.09897
1.0989
1.09884
1.09877
1.09871
1.09863
1.09856
1.09848
1.09839
1.0983
1.09819
1.09808
1.09795
1.09781
1.09765
1.09747
1.09726
1.09703
1.09676
1.09647
1.09613
1.09577
1.09536
1.09491
1.09442
1.09389
1.09333
1.09273
1.0921
1.09144
1.09075
1.09005
1.08934
1.08863
1.08792
1.08721
1.08653
1.08586
1.08523
1.08463
1.08407
1.08355
1.08308
1.08266
1.08228
1.08195
1.08166
1.08141
1.08119
1.08101
1.08085
1.08071
1.08058
1.08047
1.08035
1.08024
1.08012
1.08
1.07987
1.07974
1.07959
1.07944
1.07927
1.0791
1.07891
1.07872
1.07853
1.07832
1.07812
1.07791
1.07769
1.07747
1.07725
1.07703
1.07681
1.07659
1.07636
1.07614
1.07591
1.07568
1.07545
1.07523
1.075
1.07477
1.07454
1.07432
1.0741
1.07389
1.07367
1.07347
1.07327
1.07308
1.0729
1.07273
1.07257
1.07242
1.07228
1.07215
1.07203
1.07193
1.07183
1.07175
1.07168
1.07161
1.07156
1.07151
1.07148
1.07144
1.07142
1.0714
1.07138
1.07137
1.07135
1.07134
1.07133
1.07132
1.0713
1.07128
1.07126
1.07123
1.07119
1.07115
1.07109
1.07103
1.07096
1.07088
1.07079
1.07069
1.07058
1.07046
1.07033
1.07019
1.07004
1.06988
1.06972
1.06955
1.06937
1.06919
1.069
1.06881
1.06861
1.06841
1.06821
1.06801
1.06781
1.06761
1.0674
1.0672
1.067
1.0668
1.06659
1.0664
1.0662
1.066
1.06581
1.06561
1.06542
1.06523
1.06504
1.06486
1.06467
1.06449
1.0643
1.06412
1.06394
1.06376
1.06358
1.0634
1.06322
1.06305
1.06287
1.06269
1.06252
1.06234
1.06217
1.062
1.06183
1.06166
1.06149
1.06133
1.06117
1.06101
1.06086
1.06071
1.06057
1.06043
1.0603
1.06018
1.06006
1.05995
1.05985
1.05975
1.05967
1.0596
1.05954
1.05949
1.05944
1.05942
1.0594
1.05939
1.05939
1.05941
1.05943
1.05947
1.05951
1.05956
1.05962
1.05969
1.05976
1.05984
1.05992
1.06
1.06009
1.06018
1.06028
1.06037
1.06047
1.06057
1.06067
1.06078
1.06088
1.06099
1.0611
1.06121
1.06132
1.06144
1.06156
1.06168
1.06181
1.06194
1.06207
1.06221
1.06235
1.0625
1.06265
1.0628
1.06295
1.06311
1.06327
1.06343
1.06359
1.06376
1.06392
1.06408
1.06424
1.0644
1.06456
1.06471
1.06486
1.065
1.06515
1.06528
1.06541
1.06554
1.06566
1.06577
1.06588
1.06598
1.06607
1.06616
1.06624
1.06632
1.06638
1.06645
1.06651
1.06656
1.06661
1.06665
1.0667
1.06673
1.06677
1.0668
1.06683
1.06686
1.08693
1.08701
1.08708
1.08715
1.08721
1.08727
1.08733
1.08739
1.08745
1.0875
1.08755
1.08759
1.08764
1.08768
1.08772
1.08776
1.08779
1.08782
1.08785
1.08788
1.0879
1.08793
1.08795
1.08797
1.08799
1.088
1.08802
1.08804
1.08805
1.08806
1.08808
1.08809
1.08811
1.08812
1.08814
1.08815
1.08817
1.08819
1.08822
1.08824
1.08827
1.0883
1.08833
1.08837
1.08841
1.08846
1.0885
1.08856
1.08861
1.08868
1.08874
1.08882
1.08889
1.08898
1.08907
1.08917
1.08927
1.08938
1.0895
1.08962
1.08975
1.08989
1.09004
1.0902
1.09036
1.09053
1.09072
1.09091
1.09111
1.09131
1.09153
1.09176
1.09199
1.09223
1.09249
1.09275
1.09302
1.0933
1.09358
1.09388
1.09418
1.09449
1.09481
1.09513
1.09546
1.09579
1.09612
1.09645
1.09679
1.09712
1.09744
1.09775
1.09805
1.09834
1.0986
1.09885
1.09907
1.09927
1.09944
1.09959
1.09971
1.0998
1.09987
1.09992
1.09995
1.09996
1.09995
1.09993
1.0999
1.09987
1.09982
1.09977
1.09972
1.09966
1.0996
1.09954
1.09948
1.09942
1.09936
1.0993
1.09924
1.09918
1.09911
1.09905
1.09899
1.09892
1.09886
1.09879
1.09872
1.09865
1.09858
1.0985
1.09842
1.09833
1.09824
1.09814
1.09804
1.09792
1.09778
1.09764
1.09747
1.09728
1.09707
1.09683
1.09657
1.09627
1.09593
1.09555
1.09514
1.09469
1.09419
1.09366
1.09309
1.09249
1.09185
1.09118
1.09049
1.08979
1.08907
1.08836
1.08764
1.08693
1.08624
1.08558
1.08494
1.08434
1.08378
1.08326
1.08278
1.08236
1.08198
1.08164
1.08135
1.08109
1.08087
1.08068
1.08052
1.08037
1.08024
1.08012
1.08
1.07988
1.07976
1.07963
1.0795
1.07936
1.07921
1.07905
1.07888
1.07871
1.07852
1.07833
1.07813
1.07793
1.07772
1.07751
1.07729
1.07707
1.07685
1.07663
1.0764
1.07618
1.07595
1.07572
1.07549
1.07526
1.07503
1.07481
1.07458
1.07435
1.07412
1.0739
1.07368
1.07347
1.07326
1.07306
1.07286
1.07268
1.0725
1.07234
1.07218
1.07204
1.07191
1.07179
1.07168
1.07158
1.0715
1.07142
1.07136
1.07131
1.07126
1.07122
1.0712
1.07117
1.07116
1.07115
1.07114
1.07114
1.07113
1.07113
1.07113
1.07113
1.07112
1.07112
1.0711
1.07109
1.07106
1.07103
1.07099
1.07094
1.07088
1.07082
1.07074
1.07066
1.07056
1.07046
1.07034
1.07022
1.07009
1.06995
1.0698
1.06965
1.06949
1.06933
1.06916
1.06899
1.06881
1.06864
1.06846
1.06828
1.06809
1.06791
1.06773
1.06754
1.06736
1.06718
1.067
1.06681
1.06663
1.06645
1.06628
1.0661
1.06592
1.06575
1.06557
1.0654
1.06523
1.06505
1.06488
1.06471
1.06454
1.06437
1.0642
1.06402
1.06385
1.06368
1.0635
1.06333
1.06316
1.06298
1.06281
1.06264
1.06247
1.0623
1.06213
1.06196
1.06179
1.06163
1.06147
1.06131
1.06116
1.06101
1.06087
1.06074
1.06061
1.06048
1.06037
1.06026
1.06017
1.06008
1.06001
1.05994
1.05989
1.05984
1.05981
1.05979
1.05978
1.05978
1.05979
1.05981
1.05984
1.05988
1.05992
1.05998
1.06004
1.0601
1.06017
1.06025
1.06032
1.06041
1.06049
1.06058
1.06066
1.06076
1.06085
1.06094
1.06104
1.06114
1.06124
1.06134
1.06145
1.06156
1.06167
1.06179
1.06191
1.06203
1.06216
1.06229
1.06243
1.06257
1.06271
1.06285
1.063
1.06316
1.06331
1.06347
1.06362
1.06378
1.06394
1.0641
1.06425
1.06441
1.06456
1.06471
1.06486
1.065
1.06514
1.06527
1.0654
1.06552
1.06564
1.06575
1.06586
1.06596
1.06605
1.06613
1.06622
1.06629
1.06636
1.06642
1.06648
1.06653
1.06658
1.06663
1.06667
1.06671
1.06674
1.06678
1.06681
1.06684
1.08659
1.08666
1.08674
1.08681
1.08688
1.08695
1.08701
1.08707
1.08713
1.08719
1.08724
1.08729
1.08734
1.08739
1.08744
1.08748
1.08752
1.08756
1.0876
1.08763
1.08766
1.08769
1.08772
1.08775
1.08778
1.0878
1.08783
1.08785
1.08787
1.0879
1.08792
1.08794
1.08796
1.08798
1.08801
1.08803
1.08806
1.08809
1.08811
1.08815
1.08818
1.08822
1.08825
1.0883
1.08834
1.08839
1.08844
1.0885
1.08856
1.08862
1.08869
1.08876
1.08884
1.08893
1.08902
1.08912
1.08922
1.08933
1.08945
1.08957
1.0897
1.08984
1.08998
1.09014
1.0903
1.09047
1.09065
1.09084
1.09103
1.09124
1.09145
1.09167
1.0919
1.09214
1.09239
1.09264
1.09291
1.09318
1.09346
1.09375
1.09405
1.09435
1.09466
1.09498
1.09531
1.09564
1.09597
1.0963
1.09664
1.09697
1.09729
1.09761
1.09792
1.09821
1.09849
1.09874
1.09897
1.09918
1.09936
1.09951
1.09964
1.09974
1.09981
1.09986
1.09988
1.09989
1.09989
1.09987
1.09984
1.0998
1.09975
1.0997
1.09964
1.09958
1.09952
1.09946
1.0994
1.09934
1.09927
1.09921
1.09914
1.09908
1.09901
1.09894
1.09888
1.09881
1.09874
1.09867
1.09859
1.09852
1.09844
1.09836
1.09827
1.09818
1.09808
1.09798
1.09787
1.09774
1.09761
1.09746
1.09729
1.09709
1.09688
1.09664
1.09636
1.09606
1.09572
1.09534
1.09492
1.09446
1.09396
1.09342
1.09285
1.09224
1.09159
1.09092
1.09023
1.08952
1.0888
1.08808
1.08736
1.08665
1.08596
1.08529
1.08465
1.08404
1.08348
1.08296
1.08248
1.08205
1.08167
1.08133
1.08103
1.08077
1.08055
1.08035
1.08018
1.08003
1.07989
1.07976