# vtk DataFile Version 2.0
LBE two cylinders
ASCII
DATASET STRUCTURED_POINTS
DIMENSIONS 400 100 1
ASPECT_RATIO 1 1 1
ORIGIN 0 0 0
POINT_DATA 40000
SCALARS rho double 1
LOOKUP_TABLE default
1.1148
1.11418
1.11344
1.11261
1.11171
1.11076
1.10977
1.10875
1.1077
1.10664
1.10559
1.10457
1.10358
1.10263
1.10172
1.10086
1.10005
1.09927
1.09853
1.09784
1.09718
1.09655
1.09596
1.09539
1.09486
1.09435
1.09386
1.09339
1.09294
1.0925
1.09208
1.09167
1.09128
1.0909
1.09053
1.09017
1.08983
1.08951
1.08921
1.08893
1.08868
1.08846
1.08827
1.08812
1.08801
1.08795
1.08794
1.08798
1.08807
1.08821
1.0884
1.08864
1.08892
1.08924
1.08959
1.08998
1.09039
1.09082
1.09128
1.09176
1.09226
1.09279
1.09336
1.09396
1.09461
1.09532
1.09611
1.097
1.09801
1.09915
1.10045
1.10189
1.10348
1.1052
1.10701
1.10887
1.11074
1.11257
1.11432
1.11595
1.11743
1.11875
1.1199
1.12088
1.12171
1.12241
1.12299
1.12347
1.12388
1.12423
1.12453
1.12479
1.12502
1.12521
1.12538
1.12552
1.12563
1.12572
1.12578
1.12581
1.12581
1.12579
1.12573
1.12565
1.12554
1.12541
1.12525
1.12507
1.12487
1.12465
1.12441
1.12415
1.12389
1.1236
1.12331
1.12301
1.1227
1.12238
1.12205
1.12172
1.12138
1.12104
1.1207
1.12035
1.12
1.11964
1.11928
1.11892
1.11855
1.11818
1.11781
1.11743
1.11705
1.11667
1.11628
1.11588
1.11548
1.11508
1.11467
1.11426
1.11385
1.11344
1.11303
1.11263
1.11225
1.11187
1.11152
1.1112
1.11091
1.11066
1.11046
1.1103
1.1102
1.11015
1.11016
1.11022
1.11033
1.11049
1.1107
1.11095
1.11124
1.11156
1.11191
1.11229
1.11269
1.11311
1.11355
1.11402
1.1145
1.115
1.11551
1.11605
1.1166
1.11718
1.11778
1.1184
1.11905
1.11973
1.12044
1.12118
1.12197
1.12279
1.12366
1.12457
1.12552
1.12653
1.12757
1.12866
1.12978
1.13093
1.1321
1.13327
1.13444
1.1356
1.13672
1.13779
1.1388
1.13975
1.14061
1.14139
1.14208
1.14268
1.1432
1.14364
1.14401
1.1443
1.14453
1.14468
1.14477
1.14476
1.14465
1.14441
1.144
1.14337
1.14249
1.14129
1.13973
1.13776
1.13534
1.13245
1.1291
1.12531
1.12113
1.11666
1.11199
1.10724
1.10254
1.09801
1.09374
1.08982
1.08631
1.08324
1.08063
1.07845
1.07668
1.07529
1.07423
1.07345
1.07291
1.07258
1.07241
1.07237
1.07244
1.07259
1.0728
1.07307
1.07337
1.07371
1.07407
1.07445
1.07485
1.07526
1.07569
1.07612
1.07657
1.07703
1.0775
1.07798
1.07847
1.07897
1.07948
1.07999
1.08051
1.08104
1.08159
1.08214
1.08271
1.0833
1.08391
1.08455
1.08521
1.08589
1.08659
1.0873
1.08799
1.08861
1.08908
1.08926
1.08896
1.0879
1.08575
1.0822
1.07699
1.07008
1.06168
1.05228
1.04257
1.0333
1.02504
1.01815
1.01272
1.00865
1.00572
1.00369
1.00232
1.00143
1.00086
1.00051
1.0003
1.00017
1.00009
1.00005
1.00003
1.00001
1.00001
1
1
1
1
1
1
1
1
1
1
1
1
1
1
1
1
1
1
1
1
1
1
1
1
1
1
1
1
1
1
1
1
1
1
1
1
1
1
1
1
1
1
1
1
1
1
1
1
1
1
1
1
1
1
1
1
1
1
1
1
1
1
1
1
1
1
1
1
1
1
1
1
1
1
1
1
1
1
1
1
1
1
1
1
1
1
1
1
1
1
1
1
1
1
1
1.11475
1.11408
1.11332
1.11249
1.1116
1.11067
1.10969
1.10868
1.10765
1.10661
1.10557
1.10456
1.10357
1.10262
1.10172
1.10086
1.10004
1.09927
1.09853
1.09784
1.09718
1.09655
1.09596
1.0954
1.09486
1.09435
1.09386
1.09339
1.09294
1.0925
1.09208
1.09167
1.09128
1.0909
1.09053
1.09018
1.08984
1.08952
1.08923
1.08895
1.0887
1.08849
1.08831
1.08816
1.08806
1.08801
1.088
1.08804
1.08813
1.08827
1.08846
1.0887
1.08897
1.08929
1.08964
1.09002
1.09042
1.09085
1.09131
1.09178
1.09229
1.09282
1.09338
1.09399
1.09464
1.09536
1.09616
1.09705
1.09806
1.09919
1.10047
1.10189
1.10345
1.10514
1.10691
1.10874
1.11058
1.11239
1.11413
1.11575
1.11724
1.11856
1.11972
1.12072
1.12157
1.12228
1.12287
1.12337
1.12379
1.12414
1.12445
1.12471
1.12493
1.12513
1.12529
1.12543
1.12555
1.12563
1.12569
1.12572
1.12572
1.1257
1.12564
1.12556
1.12546
1.12533
1.12517
1.12499
1.12479
1.12457
1.12434
1.12409
1.12382
1.12354
1.12325
1.12295
1.12264
1.12232
1.122
1.12167
1.12134
1.121
1.12065
1.12031
1.11996
1.1196
1.11924
1.11888
1.11852
1.11815
1.11778
1.1174
1.11702
1.11664
1.11625
1.11586
1.11546
1.11506
1.11465
1.11425
1.11384
1.11343
1.11303
1.11264
1.11226
1.11189
1.11155
1.11123
1.11095
1.11071
1.11051
1.11035
1.11025
1.1102
1.11021
1.11026
1.11037
1.11053
1.11073
1.11098
1.11126
1.11157
1.11192
1.1123
1.1127
1.11312
1.11356
1.11402
1.1145
1.115
1.11552
1.11605
1.11661
1.11719
1.11779
1.11842
1.11907
1.11975
1.12047
1.12122
1.12201
1.12283
1.1237
1.12461
1.12556
1.12656
1.1276
1.12867
1.12978
1.13091
1.13206
1.13321
1.13436
1.13549
1.13659
1.13764
1.13864
1.13957
1.14043
1.1412
1.14189
1.14249
1.14301
1.14344
1.14379
1.14407
1.14426
1.14438
1.1444
1.14433
1.14413
1.14377
1.14324
1.14248
1.14147
1.14015
1.1385
1.13647
1.13405
1.13123
1.12801
1.12443
1.12052
1.11636
1.11201
1.10758
1.10317
1.09886
1.09476
1.09094
1.08747
1.08438
1.0817
1.07943
1.07755
1.07603
1.07485
1.07396
1.07333
1.07291
1.07266
1.07256
1.07258
1.07269
1.07287
1.07311
1.07339
1.07372
1.07407
1.07444
1.07483
1.07524
1.07566
1.07609
1.07654
1.07699
1.07746
1.07794
1.07842
1.07891
1.07942
1.07993
1.08045
1.08097
1.08151
1.08206
1.08263
1.08321
1.08381
1.08443
1.08507
1.08573
1.0864
1.08706
1.08769
1.08823
1.08859
1.08863
1.08815
1.08692
1.08467
1.08116
1.07619
1.06971
1.06185
1.053
1.04372
1.03467
1.02643
1.01941
1.01377
1.00947
1.00633
1.00412
1.00262
1.00163
1.00099
1.00059
1.00034
1.0002
1.00011
1.00006
1.00003
1.00002
1.00001
1
1
1
1
1
1
1
1
1
1
1
1
1
1
1
1
1
1
1
1
1
1
1
1
1
1
1
1
1
1
1
1
1
1
1
1
1
1
1
1
1
1
1
1
1
1
1
1
1
1
1
1
1
1
1
1
1
1
1
1
1
1
1
1
1
1
1
1
1
1
1
1
1
1
1
1
1
1
1
1
1
1
1
1
1
1
1
1
1
1
1
1
1
1
1
1.11467
1.11395
1.11319
1.11237
1.1115
1.11059
1.10963
1.10864
1.10763
1.1066
1.10557
1.10456
1.10357
1.10263
1.10172
1.10086
1.10004
1.09927
1.09854
1.09784
1.09719
1.09656
1.09597
1.09541
1.09487
1.09436
1.09387
1.0934
1.09295
1.09251
1.09209
1.09168
1.09129
1.09091
1.09054
1.09019
1.08986
1.08955
1.08925
1.08898
1.08874
1.08853
1.08835
1.08822
1.08812
1.08807
1.08807
1.08811
1.0882
1.08834
1.08852
1.08875
1.08902
1.08933
1.08967
1.09004
1.09044
1.09087
1.09132
1.09179
1.09229
1.09282
1.09339
1.094
1.09466
1.09538
1.09618
1.09707
1.09807
1.09919
1.10045
1.10185
1.10339
1.10504
1.10679
1.10859
1.11042
1.11221
1.11394
1.11556
1.11705
1.11839
1.11956
1.12058
1.12144
1.12216
1.12277
1.12328
1.1237
1.12406
1.12437
1.12463
1.12486
1.12505
1.12522
1.12536
1.12547
1.12556
1.12562
1.12565
1.12565
1.12562
1.12557
1.12549
1.12538
1.12525
1.1251
1.12492
1.12472
1.1245
1.12427
1.12402
1.12375
1.12347
1.12319
1.12289
1.12258
1.12226
1.12194
1.12161
1.12128
1.12094
1.1206
1.12025
1.1199
1.11955
1.11919
1.11883
1.11847
1.1181
1.11773
1.11735
1.11697
1.11659
1.1162
1.11581
1.11541
1.11501
1.11461
1.11421
1.1138
1.1134
1.11301
1.11262
1.11225
1.1119
1.11156
1.11126
1.11098
1.11075
1.11055
1.11041
1.11031
1.11026
1.11026
1.11032
1.11042
1.11057
1.11077
1.11101
1.11129
1.1116
1.11194
1.11231
1.11271
1.11313
1.11357
1.11403
1.11451
1.11501
1.11553
1.11607
1.11663
1.11722
1.11783
1.11846
1.11912
1.11981
1.12053
1.12129
1.12209
1.12292
1.12379
1.1247
1.12565
1.12665
1.12767
1.12873
1.12982
1.13093
1.13205
1.13317
1.13429
1.13539
1.13646
1.13748
1.13846
1.13937
1.1402
1.14096
1.14164
1.14223
1.14273
1.14314
1.14346
1.14369
1.14383
1.14386
1.14379
1.14358
1.14323
1.1427
1.14197
1.14102
1.13981
1.13832
1.13653
1.13443
1.13201
1.12928
1.12626
1.12297
1.11945
1.11573
1.11186
1.10791
1.10394
1.10001
1.0962
1.09257
1.08919
1.08611
1.08336
1.08097
1.07893
1.07724
1.07588
1.07482
1.07403
1.07347
1.0731
1.0729
1.07283
1.07287
1.073
1.0732
1.07345
1.07375
1.07408
1.07444
1.07482
1.07522
1.07563
1.07606
1.0765
1.07695
1.07741
1.07789
1.07837
1.07885
1.07935
1.07986
1.08037
1.08089
1.08142
1.08197
1.08252
1.08309
1.08368
1.08428
1.0849
1.08553
1.08616
1.08678
1.08734
1.0878
1.08806
1.08799
1.08741
1.0861
1.08385
1.08044
1.0757
1.06957
1.06215
1.05371
1.04474
1.03585
1.02763
1.0205
1.01468
1.01018
1.00686
1.0045
1.00288
1.0018
1.0011
1.00066
1.00039
1.00022
1.00013
1.00007
1.00004
1.00002
1.00001
1.00001
1
1
1
1
1
1
1
1
1
1
1
1
1
1
1
1
1
1
1
1
1
1
1
1
1
1
1
1
1
1
1
1
1
1
1
1
1
1
1
1
1
1
1
1
1
1
1
1
1
1
1
1
1
1
1
1
1
1
1
1
1
1
1
1
1
1
1
1
1
1
1
1
1
1
1
1
1
1
1
1
1
1
1
1
1
1
1
1
1
1
1
1
1
1
1.11451
1.11381
1.11306
1.11226
1.11142
1.11053
1.1096
1.10863
1.10763
1.10662
1.1056
1.10459
1.1036
1.10265
1.10174
1.10087
1.10005
1.09928
1.09855
1.09785
1.0972
1.09657
1.09598
1.09542
1.09489
1.09438
1.09389
1.09342
1.09297
1.09253
1.09211
1.0917
1.09131
1.09093
1.09057
1.09022
1.08989
1.08958
1.08929
1.08902
1.08879
1.08858
1.08841
1.08828
1.08819
1.08814
1.08814
1.08818
1.08827
1.08841
1.08858
1.0888
1.08906
1.08936
1.08969
1.09005
1.09044
1.09086
1.0913
1.09177
1.09227
1.0928
1.09337
1.09398
1.09464
1.09537
1.09617
1.09706
1.09806
1.09917
1.10042
1.1018
1.10331
1.10494
1.10667
1.10845
1.11025
1.11204
1.11376
1.11538
1.11687
1.11822
1.11941
1.12043
1.12131
1.12205
1.12267
1.12319
1.12362
1.12399
1.1243
1.12457
1.1248
1.125
1.12517
1.12531
1.12542
1.12551
1.12557
1.1256
1.1256
1.12557
1.12552
1.12544
1.12533
1.1252
1.12505
1.12487
1.12467
1.12445
1.12421
1.12396
1.12369
1.12341
1.12312
1.12282
1.12251
1.1222
1.12188
1.12155
1.12121
1.12088
1.12053
1.12019
1.11984
1.11948
1.11912
1.11876
1.1184
1.11803
1.11766
1.11728
1.1169
1.11652
1.11613
1.11574
1.11534
1.11494
1.11454
1.11414
1.11374
1.11335
1.11296
1.11259
1.11222
1.11188
1.11156
1.11127
1.11101
1.11078
1.1106
1.11046
1.11036
1.11032
1.11032
1.11038
1.11048
1.11063
1.11082
1.11105
1.11132
1.11163
1.11197
1.11234
1.11273
1.11315
1.11359
1.11405
1.11454
1.11504
1.11556
1.11611
1.11668
1.11727
1.11788
1.11852
1.1192
1.1199
1.12063
1.1214
1.12221
1.12305
1.12393
1.12485
1.1258
1.12678
1.1278
1.12885
1.12991
1.13099
1.13208
1.13317
1.13425
1.13531
1.13634
1.13732
1.13826
1.13914
1.13995
1.14068
1.14133
1.14189
1.14236
1.14273
1.143
1.14316
1.1432
1.14311
1.14288
1.1425
1.14193
1.14117
1.1402
1.13899
1.13754
1.13585
1.13391
1.13173
1.12934
1.12674
1.12397
1.12104
1.11797
1.11479
1.11151
1.10815
1.10473
1.1013
1.09789
1.09456
1.09135
1.08833
1.08554
1.08303
1.08082
1.07892
1.07734
1.07605
1.07505
1.07429
1.07376
1.07341
1.07322
1.07317
1.07322
1.07335
1.07356
1.07382
1.07412
1.07446
1.07482
1.07521
1.07561
1.07603
1.07647
1.07691
1.07737
1.07783
1.07831
1.07879
1.07929
1.07978
1.08029
1.08081
1.08133
1.08187
1.08242
1.08298
1.08355
1.08414
1.08473
1.08534
1.08594
1.08652
1.08703
1.08743
1.08761
1.08746
1.08679
1.08542
1.08315
1.07978
1.07518
1.0693
1.06222
1.05416
1.04553
1.03687
1.02872
1.02155
1.0156
1.01092
1.00742
1.0049
1.00316
1.00199
1.00122
1.00074
1.00044
1.00025
1.00014
1.00008
1.00004
1.00002
1.00001
1.00001
1
1
1
1
1
1
1
1
1
1
1
1
1
1
1
1
1
1
1
1
1
1
1
1
1
1
1
1
1
1
1
1
1
1
1
1
1
1
1
1
1
1
1
1
1
1
1
1
1
1
1
1
1
1
1
1
1
1
1
1
1
1
1
1
1
1
1
1
1
1
1
1
1
1
1
1
1
1
1
1
1
1
1
1
1
1
1
1
1
1
1
1
1
1
1.11428
1.11362
1.11291
1.11214
1.11133
1.11047
1.10957
1.10862
1.10765
1.10664
1.10563
1.10462
1.10364
1.10268
1.10177
1.1009
1.10008
1.0993
1.09857
1.09787
1.09722
1.0966
1.09601
1.09545
1.09492
1.09441
1.09392
1.09345
1.093
1.09256
1.09214
1.09173
1.09134
1.09096
1.0906
1.09026
1.08993
1.08962
1.08933
1.08908
1.08885
1.08865
1.08848
1.08836
1.08827
1.08822
1.08822
1.08826
1.08835
1.08847
1.08864
1.08885
1.0891
1.08938
1.08969
1.09004
1.09042
1.09082
1.09126
1.09172
1.09222
1.09274
1.09331
1.09393
1.0946
1.09533
1.09614
1.09703
1.09803
1.09914
1.10038
1.10174
1.10323
1.10484
1.10654
1.1083
1.11008
1.11185
1.11357
1.11519
1.11669
1.11804
1.11924
1.12028
1.12117
1.12193
1.12256
1.12309
1.12353
1.12391
1.12423
1.1245
1.12474
1.12494
1.12511
1.12525
1.12537
1.12546
1.12552
1.12555
1.12555
1.12552
1.12547
1.12539
1.12528
1.12515
1.12499
1.12481
1.12461
1.12438
1.12415
1.12389
1.12362
1.12334
1.12305
1.12275
1.12244
1.12212
1.1218
1.12147
1.12113
1.12079
1.12045
1.1201
1.11975
1.1194
1.11904
1.11868
1.11831
1.11794
1.11757
1.11719
1.11681
1.11642
1.11603
1.11564
1.11524
1.11485
1.11445
1.11405
1.11366
1.11327
1.11289
1.11253
1.11218
1.11185
1.11155
1.11127
1.11102
1.11081
1.11064
1.11051
1.11043
1.11039
1.11039
1.11044
1.11054
1.11069
1.11088
1.1111
1.11137
1.11167
1.11201
1.11237
1.11277
1.11318
1.11362
1.11409
1.11457
1.11508
1.11561
1.11616
1.11674
1.11734
1.11797
1.11862
1.11931
1.12002
1.12077
1.12156
1.12238
1.12323
1.12412
1.12504
1.12599
1.12698
1.12798
1.12901
1.13005
1.13109
1.13214
1.13319
1.13422
1.13523
1.13621
1.13715
1.13804
1.13888
1.13964
1.14033
1.14094
1.14146
1.14187
1.14217
1.14235
1.1424
1.1423
1.14204
1.14161
1.14099
1.14017
1.13914
1.13788
1.13641
1.13473
1.13284
1.13079
1.12859
1.12627
1.12386
1.12139
1.11887
1.1163
1.11369
1.11102
1.1083
1.10549
1.10262
1.09969
1.09673
1.09377
1.09088
1.08811
1.08552
1.08314
1.08103
1.0792
1.07766
1.0764
1.07541
1.07466
1.07413
1.07378
1.07359
1.07354
1.07359
1.07373
1.07393
1.0742
1.0745
1.07484
1.07521
1.0756
1.07601
1.07644
1.07688
1.07733
1.07779
1.07826
1.07874
1.07923
1.07972
1.08022
1.08073
1.08125
1.08178
1.08232
1.08288
1.08344
1.08401
1.08459
1.08518
1.08575
1.08629
1.08676
1.08709
1.08719
1.08694
1.08616
1.0847
1.08237
1.07902
1.07455
1.06892
1.06218
1.0545
1.04623
1.03782
1.02979
1.02259
1.01652
1.01168
1.00801
1.00534
1.00346
1.00219
1.00136
1.00082
1.00049
1.00028
1.00016
1.00009
1.00005
1.00003
1.00001
1.00001
1
1
1
1
1
1
1
1
1
1
1
1
1
1
1
1
1
1
1
1
1
1
1
1
1
1
1
1
1
1
1
1
1
1
1
1
1
1
1
1
1
1
1
1
1
1
1
1
1
1
1
1
1
1
1
1
1
1
1
1
1
1
1
1
1
1
1
1
1
1
1
1
1
1
1
1
1
1
1
1
1
1
1
1
1
1
1
1
1
1
1
1
1
1
1.11395
1.11336
1.1127
1.11198
1.11121
1.11039
1.10952
1.1086
1.10765
1.10666
1.10566
1.10466
1.10368
1.10273
1.10182
1.10095
1.10012
1.09934
1.09861
1.09791
1.09726
1.09663
1.09605
1.09549
1.09495
1.09445
1.09396
1.09349
1.09304
1.0926
1.09218
1.09178
1.09139
1.09101
1.09065
1.0903
1.08998
1.08968
1.08939
1.08914
1.08892
1.08872
1.08856
1.08844
1.08836
1.08831
1.08831
1.08834
1.08842
1.08854
1.0887
1.08889
1.08912
1.08939
1.08968
1.09002
1.09038
1.09077
1.09119
1.09165
1.09214
1.09267
1.09324
1.09386
1.09453
1.09527
1.09609
1.09699
1.09799
1.0991
1.10032
1.10167
1.10314
1.10472
1.1064
1.10814
1.1099
1.11166
1.11336
1.11498
1.11649
1.11785
1.11906
1.12012
1.12103
1.1218
1.12245
1.12299
1.12345
1.12383
1.12416
1.12444
1.12468
1.12489
1.12507
1.12521
1.12533
1.12543
1.12549
1.12552
1.12552
1.1255
1.12544
1.12536
1.12525
1.12511
1.12495
1.12476
1.12456
1.12433
1.12409
1.12383
1.12356
1.12327
1.12297
1.12267
1.12236
1.12204
1.12171
1.12138
1.12104
1.1207
1.12035
1.12
1.11965
1.1193
1.11893
1.11857
1.1182
1.11783
1.11746
1.11708
1.11669
1.1163
1.11591
1.11552
1.11512
1.11472
1.11433
1.11394
1.11355
1.11317
1.1128
1.11245
1.11212
1.11181
1.11152
1.11126
1.11103
1.11084
1.11068
1.11057
1.11049
1.11046
1.11047
1.11052
1.11062
1.11076
1.11094
1.11117
1.11143
1.11173
1.11206
1.11242
1.11281
1.11323
1.11367
1.11414
1.11463
1.11514
1.11568
1.11624
1.11683
1.11744
1.11808
1.11875
1.11946
1.12019
1.12096
1.12176
1.1226
1.12346
1.12436
1.12528
1.12624
1.12721
1.1282
1.1292
1.13021
1.13122
1.13223
1.13323
1.13421
1.13516
1.13608
1.13696
1.13779
1.13857
1.13927
1.1399
1.14044
1.14088
1.1412
1.14139
1.14144
1.14133
1.14105
1.14057
1.1399
1.13901
1.1379
1.13658
1.13506
1.13335
1.13147
1.12947
1.12737
1.12522
1.12305
1.12088
1.11875
1.11665
1.11459
1.11253
1.11047
1.10835
1.10615
1.10385
1.10144
1.0989
1.09627
1.09359
1.09092
1.0883
1.08581
1.08351
1.08144
1.07963
1.07809
1.07683
1.07583
1.07507
1.07453
1.07417
1.07398
1.07392
1.07397
1.07411
1.07432
1.07458
1.07489
1.07524
1.07561
1.07601
1.07643
1.07686
1.0773
1.07775
1.07822
1.07869
1.07917
1.07966
1.08016
1.08067
1.08118
1.08171
1.08224
1.08278
1.08334
1.0839
1.08446
1.08502
1.08556
1.08606
1.08647
1.08673
1.08675
1.08639
1.08552
1.08397
1.08158
1.07825
1.07388
1.06846
1.06203
1.05472
1.04681
1.03868
1.03081
1.02363
1.01747
1.01247
1.00863
1.00579
1.00379
1.00242
1.00151
1.00092
1.00055
1.00032
1.00018
1.0001
1.00006
1.00003
1.00002
1.00001
1
1
1
1
1
1
1
1
1
1
1
1
1
1
1
1
1
1
1
1
1
1
1
1
1
1
1
1
1
1
1
1
1
1
1
1
1
1
1
1
1
1
1
1
1
1
1
1
1
1
1
1
1
1
1
1
1
1
1
1
1
1
1
1
1
1
1
1
1
1
1
1
1
1
1
1
1
1
1
1
1
1
1
1
1
1
1
1
1
1
1
1
1
1
1.11346
1.11296
1.11239
1.11174
1.11103
1.11026
1.10942
1.10854
1.10761
1.10665
1.10567
1.10469
1.10373
1.10279
1.10188
1.10101
1.10019
1.0994
1.09867
1.09797
1.09731
1.09669
1.0961
1.09554
1.09501
1.0945
1.09401
1.09354
1.09309
1.09266
1.09224
1.09183
1.09144
1.09107
1.09071
1.09037
1.09005
1.08974
1.08947
1.08922
1.089
1.08881
1.08865
1.08853
1.08845
1.08841
1.0884
1.08843
1.0885
1.08861
1.08875
1.08893
1.08914
1.08939
1.08967
1.08998
1.09032
1.0907
1.09111
1.09156
1.09204
1.09257
1.09314
1.09376
1.09445
1.0952
1.09602
1.09693
1.09793
1.09904
1.10025
1.10159
1.10304
1.1046
1.10625
1.10796
1.10971
1.11145
1.11315
1.11476
1.11627
1.11765
1.11887
1.11994
1.12087
1.12165
1.12232
1.12287
1.12334
1.12374
1.12408
1.12436
1.12461
1.12483
1.12501
1.12516
1.12529
1.12538
1.12545
1.12548
1.12548
1.12546
1.1254
1.12531
1.1252
1.12506
1.12489
1.1247
1.12449
1.12426
1.12401
1.12375
1.12347
1.12318
1.12288
1.12257
1.12226
1.12193
1.1216
1.12127
1.12093
1.12058
1.12024
1.11988
1.11953
1.11917
1.11881
1.11844
1.11807
1.11769
1.11731
1.11693
1.11654
1.11615
1.11576
1.11537
1.11497
1.11458
1.11418
1.1138
1.11342
1.11305
1.1127
1.11236
1.11204
1.11175
1.11148
1.11124
1.11104
1.11086
1.11072
1.11062
1.11055
1.11053
1.11055
1.1106
1.1107
1.11084
1.11102
1.11124
1.1115
1.1118
1.11213
1.11249
1.11288
1.11329
1.11374
1.11421
1.11471
1.11523
1.11578
1.11635
1.11695
1.11758
1.11824
1.11893
1.11965
1.1204
1.12119
1.12201
1.12285
1.12373
1.12464
1.12557
1.12651
1.12747
1.12845
1.12942
1.1304
1.13137
1.13232
1.13326
1.13418
1.13507
1.13592
1.13673
1.13748
1.13817
1.1388
1.13933
1.13977
1.14009
1.14028
1.14032
1.14019
1.13988
1.13936
1.13863
1.13768
1.13651
1.13513
1.13355
1.1318
1.12992
1.12794
1.1259
1.12386
1.12184
1.11988
1.11801
1.11623
1.11455
1.11296
1.11141
1.10988
1.10832
1.10668
1.10492
1.10302
1.10094
1.09869
1.0963
1.0938
1.09125
1.08873
1.08629
1.08402
1.08195
1.08013
1.07858
1.0773
1.07628
1.0755
1.07495
1.07458
1.07438
1.07431
1.07436
1.0745
1.07471
1.07498
1.07529
1.07564
1.07602
1.07642
1.07684
1.07728
1.07772
1.07818
1.07865
1.07913
1.07961
1.0801
1.08061
1.08112
1.08163
1.08216
1.08269
1.08323
1.08378
1.08432
1.08485
1.08536
1.08582
1.08617
1.08637
1.0863
1.08584
1.08487
1.08322
1.08078
1.07744
1.07316
1.06792
1.06178
1.05484
1.04729
1.03947
1.03178
1.02465
1.01842
1.01329
1.00927
1.00628
1.00414
1.00266
1.00166
1.00102
1.00061
1.00036
1.00021
1.00012
1.00006
1.00003
1.00002
1.00001
1
1
1
1
1
1
1
1
1
1
1
1
1
1
1
1
1
1
1
1
1
1
1
1
1
1
1
1
1
1
1
1
1
1
1
1
1
1
1
1
1
1
1
1
1
1
1
1
1
1
1
1
1
1
1
1
1
1
1
1
1
1
1
1
1
1
1
1
1
1
1
1
1
1
1
1
1
1
1
1
1
1
1
1
1
1
1
1
1
1
1
1
1
1
1.11273
1.11237
1.11191
1.11136
1.11072
1.11001
1.10923
1.10839
1.1075
1.10658
1.10564
1.1047
1.10376
1.10284
1.10195
1.1011
1.10028
1.0995
1.09876
1.09806
1.09739
1.09677
1.09617
1.09561
1.09508
1.09457
1.09408
1.09361
1.09316
1.09273
1.09231
1.09191
1.09152
1.09114
1.09079
1.09045
1.09013
1.08983
1.08956
1.08931
1.08909
1.08891
1.08876
1.08864
1.08856
1.08851
1.0885
1.08852
1.08858
1.08868
1.0888
1.08896
1.08916
1.08938
1.08964
1.08993
1.09026
1.09062
1.09102
1.09145
1.09193
1.09245
1.09302
1.09365
1.09434
1.0951
1.09594
1.09686
1.09786
1.09897
1.10018
1.1015
1.10293
1.10446
1.10608
1.10777
1.1095
1.11122
1.11291
1.11453
1.11604
1.11742
1.11866
1.11975
1.1207
1.1215
1.12218
1.12275
1.12324
1.12364
1.12399
1.12429
1.12455
1.12477
1.12496
1.12512
1.12525
1.12535
1.12542
1.12546
1.12546
1.12543
1.12538
1.12529
1.12517
1.12502
1.12485
1.12465
1.12443
1.1242
1.12394
1.12367
1.12339
1.12309
1.12278
1.12247
1.12215
1.12182
1.12148
1.12114
1.1208
1.12045
1.1201
1.11975
1.11939
1.11902
1.11866
1.11829
1.11791
1.11753
1.11715
1.11676
1.11637
1.11598
1.11559
1.11519
1.11479
1.1144
1.11402
1.11364
1.11327
1.11291
1.11257
1.11225
1.11196
1.11169
1.11144
1.11122
1.11104
1.11088
1.11076
1.11067
1.11062
1.11061
1.11063
1.11069
1.11079
1.11093
1.11111
1.11133
1.11159
1.11188
1.11221
1.11257
1.11296
1.11338
1.11383
1.11431
1.11481
1.11534
1.1159
1.11649
1.11711
1.11775
1.11843
1.11914
1.11988
1.12065
1.12146
1.12229
1.12316
1.12404
1.12495
1.12588
1.12682
1.12776
1.12871
1.12965
1.13059
1.13151
1.13241
1.13329
1.13413
1.13494
1.13571
1.13642
1.13708
1.13766
1.13817
1.13857
1.13887
1.13903
1.13903
1.13887
1.13851
1.13795
1.13717
1.13616
1.13494
1.13351
1.13189
1.13012
1.12823
1.12628
1.12429
1.12233
1.12042
1.11861
1.11692
1.11537
1.11395
1.11266
1.11148
1.11037
1.1093
1.10821
1.10706
1.10579
1.10436
1.10274
1.1009
1.09885
1.09661
1.09422
1.09175
1.08927
1.08686
1.08458
1.0825
1.08066
1.07908
1.07778
1.07673
1.07594
1.07537
1.07499
1.07478
1.07471
1.07476
1.0749
1.07511
1.07538
1.0757
1.07605
1.07643
1.07684
1.07726
1.0777
1.07815
1.07861
1.07908
1.07956
1.08005
1.08054
1.08105
1.08156
1.08208
1.0826
1.08313
1.08366
1.08418
1.08469
1.08516
1.08558
1.08588
1.086
1.08584
1.08529
1.08421
1.08247
1.07995
1.0766
1.07238
1.06732
1.06145
1.05486
1.04769
1.04018
1.0327
1.02565
1.01938
1.01412
1.00995
1.00679
1.00451
1.00291
1.00184
1.00113
1.00068
1.0004
1.00023
1.00013
1.00007
1.00004
1.00002
1.00001
1.00001
1
1
1
1
1
1
1
1
1
1
1
1
1
1
1
1
1
1
1
1
1
1
1
1
1
1
1
1
1
1
1
1
1
1
1
1
1
1
1
1
1
1
1
1
1
1
1
1
1
1
1
1
1
1
1
1
1
1
1
1
1
1
1
1
1
1
1
1
1
1
1
1
1
1
1
1
1
1
1
1
1
1
1
1
1
1
1
1
1
1
1
1
1
1.11166
1.11148
1.11118
1.11076
1.11023
1.1096
1.1089
1.10813
1.1073
1.10644
1.10556
1.10467
1.10378
1.1029
1.10204
1.1012
1.1004
1.09962
1.09888
1.09817
1.0975
1.09687
1.09627
1.09571
1.09517
1.09466
1.09417
1.0937
1.09325
1.09282
1.0924
1.092
1.09161
1.09124
1.09088
1.09054
1.09023
1.08993
1.08966
1.08942
1.0892
1.08902
1.08887
1.08875
1.08867
1.08862
1.08861
1.08862
1.08867
1.08875
1.08886
1.089
1.08917
1.08938
1.08961
1.08988
1.09019
1.09053
1.09091
1.09133
1.0918
1.09232
1.09289
1.09352
1.09422
1.09499
1.09584
1.09676
1.09777
1.09888
1.10008
1.10139
1.10279
1.1043
1.1059
1.10757
1.10927
1.11098
1.11266
1.11427
1.11579
1.11718
1.11843
1.11954
1.1205
1.12132
1.12202
1.12261
1.12311
1.12353
1.12389
1.1242
1.12447
1.1247
1.1249
1.12506
1.1252
1.1253
1.12537
1.12541
1.12542
1.12539
1.12533
1.12524
1.12511
1.12496
1.12478
1.12458
1.12435
1.12411
1.12385
1.12357
1.12328
1.12298
1.12266
1.12234
1.12202
1.12168
1.12134
1.121
1.12065
1.1203
1.11994
1.11958
1.11922
1.11885
1.11848
1.11811
1.11773
1.11734
1.11696
1.11656
1.11617
1.11578
1.11538
1.11498
1.11459
1.1142
1.11382
1.11345
1.1131
1.11276
1.11244
1.11214
1.11186
1.11161
1.11139
1.1112
1.11104
1.1109
1.1108
1.11073
1.11069
1.11069
1.11072
1.11079
1.11089
1.11103
1.11121
1.11143
1.11168
1.11198
1.1123
1.11267
1.11306
1.11349
1.11394
1.11443
1.11494
1.11549
1.11606
1.11667
1.1173
1.11797
1.11867
1.1194
1.12016
1.12095
1.12177
1.12262
1.12349
1.12439
1.12529
1.12621
1.12714
1.12806
1.12898
1.12989
1.13077
1.13164
1.13247
1.13327
1.13403
1.13474
1.1354
1.136
1.13652
1.13697
1.13731
1.13755
1.13765
1.1376
1.13737
1.13696
1.13634
1.1355
1.13445
1.13318
1.13171
1.13007
1.1283
1.12643
1.12451
1.12259
1.1207
1.1189
1.11722
1.11568
1.11429
1.11305
1.11198
1.11104
1.11021
1.10947
1.10876
1.10806
1.10731
1.10646
1.10545
1.10425
1.10282
1.10114
1.09921
1.09707
1.09475
1.09232
1.08986
1.08745
1.08516
1.08306
1.08119
1.07958
1.07825
1.07719
1.07637
1.07579
1.0754
1.07519
1.07511
1.07516
1.0753
1.07551
1.07579
1.07611
1.07647
1.07685
1.07726
1.07768
1.07812
1.07858
1.07904
1.07951
1.08
1.08049
1.08098
1.08149
1.082
1.08251
1.08303
1.08354
1.08404
1.08453
1.08497
1.08533
1.08558
1.08563
1.08538
1.08473
1.08354
1.08169
1.0791
1.07572
1.07156
1.06666
1.06105
1.05479
1.04799
1.04082
1.03358
1.02663
1.02034
1.01498
1.01065
1.00733
1.0049
1.00319
1.00202
1.00125
1.00076
1.00045
1.00026
1.00015
1.00008
1.00004
1.00002
1.00001
1.00001
1
1
1
1
1
1
1
1
1
1
1
1
1
1
1
1
1
1
1
1
1
1
1
1
1
1
1
1
1
1
1
1
1
1
1
1
1
1
1
1
1
1
1
1
1
1
1
1
1
1
1
1
1
1
1
1
1
1
1
1
1
1
1
1
1
1
1
1
1
1
1
1
1
1
1
1
1
1
1
1
1
1
1
1
1
1
1
1
1
1
1
1
1
1.11014
1.11019
1.11008
1.10983
1.10945
1.10895
1.10836
1.1077
1.10697
1.10621
1.10541
1.1046
1.10377
1.10295
1.10213
1.10133
1.10054
1.09977
1.09903
1.09832
1.09765
1.09701
1.0964
1.09583
1.09528
1.09477
1.09427
1.09381
1.09336
1.09292
1.09251
1.0921
1.09172
1.09135
1.09099
1.09066
1.09034
1.09005
1.08978
1.08954
1.08933
1.08915
1.089
1.08888
1.0888
1.08874
1.08872
1.08872
1.08876
1.08882
1.08892
1.08904
1.08919
1.08937
1.08958
1.08983
1.09011
1.09043
1.0908
1.0912
1.09166
1.09217
1.09274
1.09337
1.09408
1.09486
1.09572
1.09665
1.09767
1.09878
1.09997
1.10126
1.10265
1.10414
1.10571
1.10734
1.10903
1.11072
1.11239
1.114
1.11552
1.11692
1.11819
1.11931
1.12029
1.12113
1.12185
1.12245
1.12297
1.1234
1.12378
1.1241
1.12438
1.12462
1.12483
1.125
1.12515
1.12526
1.12533
1.12537
1.12538
1.12535
1.12529
1.12519
1.12506
1.1249
1.12472
1.12451
1.12427
1.12402
1.12375
1.12346
1.12316
1.12285
1.12253
1.12221
1.12187
1.12153
1.12119
1.12084
1.12049
1.12013
1.11977
1.1194
1.11903
1.11866
1.11828
1.1179
1.11752
1.11713
1.11673
1.11634
1.11594
1.11555
1.11515
1.11475
1.11437
1.11398
1.11361
1.11326
1.11292
1.11259
1.11229
1.11202
1.11176
1.11154
1.11134
1.11118
1.11104
1.11093
1.11084
1.11079
1.11077
1.11078
1.11082
1.11089
1.111
1.11114
1.11132
1.11154
1.1118
1.11209
1.11242
1.11279
1.11319
1.11362
1.11408
1.11458
1.11511
1.11567
1.11626
1.11689
1.11754
1.11823
1.11895
1.1197
1.12048
1.12129
1.12213
1.12299
1.12386
1.12476
1.12566
1.12656
1.12747
1.12836
1.12924
1.1301
1.13093
1.13172
1.13247
1.13318
1.13383
1.13442
1.13495
1.13539
1.13575
1.13601
1.13615
1.13616
1.13602
1.13571
1.13521
1.13452
1.13362
1.13252
1.13121
1.12973
1.12809
1.12634
1.12451
1.12265
1.12081
1.11902
1.11733
1.11577
1.11436
1.11311
1.11202
1.1111
1.11032
1.10968
1.10915
1.10869
1.10828
1.10788
1.10745
1.10693
1.10627
1.10545
1.1044
1.10309
1.10152
1.09968
1.0976
1.09532
1.09292
1.09046
1.08804
1.08573
1.0836
1.08171
1.08007
1.07872
1.07763
1.0768
1.07621
1.07581
1.07559
1.07552
1.07556
1.0757
1.07592
1.0762
1.07652
1.07688
1.07727
1.07768
1.07811
1.07855
1.079
1.07947
1.07995
1.08043
1.08092
1.08142
1.08192
1.08243
1.08293
1.08343
1.08391
1.08436
1.08477
1.08509
1.08527
1.08525
1.08491
1.08416
1.08285
1.0809
1.07822
1.07481
1.0707
1.06593
1.06057
1.05465
1.04821
1.04139
1.0344
1.02759
1.0213
1.01585
1.01137
1.00789
1.00531
1.00348
1.00222
1.00138
1.00084
1.0005
1.00029
1.00017
1.00009
1.00005
1.00003
1.00001
1.00001
1
1
1
1
1
1
1
1
1
1
1
1
1
1
1
1
1
1
1
1
1
1
1
1
1
1
1
1
1
1
1
1
1
1
1
1
1
1
1
1
1
1
1
1
1
1
1
1
1
1
1
1
1
1
1
1
1
1
1
1
1
1
1
1
1
1
1
1
1
1
1
1
1
1
1
1
1
1
1
1
1
1
1
1
1
1
1
1
1
1
1
1
1
1.10807
1.10839
1.10852
1.10848
1.10829
1.10798
1.10755
1.10704
1.10646
1.10583
1.10515
1.10444
1.10371
1.10296
1.10221
1.10145
1.10069
1.09994
1.09921
1.09851
1.09783
1.09718
1.09656
1.09598
1.09543
1.0949
1.09441
1.09394
1.09348
1.09305
1.09263
1.09223
1.09185
1.09148
1.09113
1.09079
1.09048
1.09019
1.08992
1.08968
1.08947
1.08929
1.08914
1.08902
1.08893
1.08887
1.08884
1.08884
1.08886
1.08891
1.08898
1.08908
1.08921
1.08937
1.08955
1.08978
1.09004
1.09033
1.09067
1.09106
1.0915
1.09201
1.09257
1.09321
1.09392
1.09471
1.09558
1.09653
1.09755
1.09865
1.09984
1.10112
1.10248
1.10394
1.10549
1.1071
1.10876
1.11043
1.11209
1.1137
1.11522
1.11663
1.11791
1.11905
1.12005
1.12091
1.12165
1.12227
1.1228
1.12325
1.12364
1.12398
1.12427
1.12452
1.12473
1.12492
1.12506
1.12518
1.12526
1.1253
1.12531
1.12528
1.12522
1.12511
1.12498
1.12482
1.12462
1.12441
1.12416
1.1239
1.12362
1.12333
1.12302
1.1227
1.12238
1.12205
1.1217
1.12136
1.12101
1.12065
1.12029
1.11993
1.11956
1.11919
1.11881
1.11844
1.11805
1.11766
1.11727
1.11688
1.11648
1.11608
1.11568
1.11528
1.11489
1.1145
1.11412
1.11374
1.11339
1.11304
1.11272
1.11242
1.11214
1.11189
1.11166
1.11147
1.11129
1.11115
1.11104
1.11095
1.11089
1.11085
1.11085
1.11087
1.11092
1.111
1.11112
1.11127
1.11145
1.11167
1.11193
1.11223
1.11256
1.11293
1.11334
1.11378
1.11426
1.11477
1.11532
1.11589
1.11651
1.11715
1.11783
1.11854
1.11928
1.12005
1.12085
1.12167
1.12252
1.12338
1.12426
1.12515
1.12603
1.12692
1.12779
1.12864
1.12947
1.13027
1.13102
1.13173
1.13238
1.13297
1.13348
1.13392
1.13427
1.13453
1.13467
1.1347
1.13458
1.13432
1.1339
1.1333
1.13251
1.13154
1.13038
1.12905
1.12756
1.12594
1.12423
1.12247
1.1207
1.11896
1.11729
1.11573
1.11429
1.11301
1.11189
1.11093
1.11014
1.10949
1.10898
1.10858
1.10828
1.10805
1.10787
1.10769
1.10749
1.10723
1.10687
1.10635
1.10564
1.10469
1.10348
1.10198
1.10019
1.09815
1.0959
1.0935
1.09104
1.08861
1.08628
1.08412
1.0822
1.08055
1.07917
1.07807
1.07722
1.07662
1.07622
1.07599
1.07592
1.07597
1.07611
1.07633
1.07661
1.07693
1.0773
1.07769
1.0781
1.07853
1.07897
1.07943
1.0799
1.08038
1.08086
1.08135
1.08185
1.08234
1.08283
1.08331
1.08377
1.0842
1.08456
1.08484
1.08496
1.08486
1.08444
1.08357
1.08215
1.08008
1.07732
1.07387
1.06979
1.06516
1.06003
1.05443
1.04837
1.04189
1.03518
1.02852
1.02226
1.01672
1.01211
1.00847
1.00575
1.00378
1.00243
1.00152
1.00093
1.00056
1.00032
1.00019
1.0001
1.00006
1.00003
1.00002
1.00001
1
1
1
1
1
1
1
1
1
1
1
1
1
1
1
1
1
1
1
1
1
1
1
1
1
1
1
1
1
1
1
1
1
1
1
1
1
1
1
1
1
1
1
1
1
1
1
1
1
1
1
1
1
1
1
1
1
1
1
1
1
1
1
1
1
1
1
1
1
1
1
1
1
1
1
1
1
1
1
1
1
1
1
1
1
1
1
1
1
1
1
1
1
1.1054
1.10599
1.10638
1.1066
1.10667
1.10659
1.10639
1.10609
1.10571
1.10525
1.10473
1.10417
1.10356
1.10291
1.10224
1.10154
1.10083
1.10012
1.09941
1.09871
1.09803
1.09738
1.09676
1.09616
1.0956
1.09507
1.09457
1.09409
1.09364
1.0932
1.09279
1.09239
1.092
1.09164
1.09128
1.09095
1.09064
1.09035
1.09008
1.08984
1.08963
1.08945
1.0893
1.08917
1.08908
1.08901
1.08897
1.08895
1.08896
1.08899
1.08905
1.08913
1.08923
1.08937
1.08953
1.08973
1.08996
1.09023
1.09055
1.09092
1.09135
1.09184
1.0924
1.09304
1.09376
1.09456
1.09543
1.09638
1.09741
1.09851
1.09969
1.10095
1.1023
1.10373
1.10525
1.10684
1.10847
1.11013
1.11177
1.11338
1.1149
1.11632
1.11762
1.11877
1.11979
1.12067
1.12143
1.12207
1.12262
1.12308
1.12349
1.12383
1.12414
1.1244
1.12462
1.12481
1.12497
1.12509
1.12518
1.12522
1.12523
1.1252
1.12513
1.12503
1.12489
1.12472
1.12452
1.12429
1.12404
1.12377
1.12348
1.12318
1.12286
1.12254
1.12221
1.12186
1.12152
1.12116
1.12081
1.12044
1.12008
1.11971
1.11933
1.11895
1.11857
1.11818
1.11779
1.1174
1.117
1.1166
1.1162
1.1158
1.1154
1.115
1.11461
1.11422
1.11385
1.11349
1.11315
1.11282
1.11252
1.11224
1.11199
1.11176
1.11156
1.11139
1.11125
1.11113