# vtk DataFile Version 2.0
LBE two cylinders
ASCII
DATASET STRUCTURED_POINTS
DIMENSIONS 400 100 1
ASPECT_RATIO 1 1 1
ORIGIN 0 0 0
POINT_DATA 40000
SCALARS rho double 1
LOOKUP_TABLE default
1.09316
1.0932
1.09323
1.09326
1.09327
1.09328
1.09328
1.09327
1.09326
1.09323
1.0932
1.09316
1.09312
1.09306
1.093
1.09293
1.09286
1.09278
1.09269
1.09259
1.0925
1.09239
1.09229
1.09218
1.09206
1.09195
1.09183
1.09172
1.0916
1.09149
1.09137
1.09126
1.09115
1.09105
1.09094
1.09084
1.09075
1.09066
1.09058
1.0905
1.09042
1.09035
1.09029
1.09023
1.09018
1.09014
1.0901
1.09007
1.09004
1.09003
1.09002
1.09001
1.09002
1.09003
1.09005
1.09008
1.09012
1.09017
1.09022
1.09029
1.09036
1.09045
1.09055
1.09065
1.09077
1.0909
1.09104
1.09119
1.09135
1.09153
1.09172
1.09192
1.09213
1.09235
1.09259
1.09283
1.09309
1.09336
1.09364
1.09393
1.09423
1.09454
1.09485
1.09517
1.09549
1.09582
1.09614
1.09647
1.09679
1.0971
1.09741
1.0977
1.09798
1.09824
1.09849
1.09871
1.09892
1.09911
1.09927
1.09942
1.09954
1.09965
1.09974
1.09981
1.09987
1.09992
1.09996
1.09999
1.10001
1.10003
1.10005
1.10006
1.10008
1.1001
1.10011
1.10013
1.10015
1.10018
1.1002
1.10023
1.10026
1.10029
1.10032
1.10034
1.10037
1.1004
1.10043
1.10045
1.10048
1.1005
1.10052
1.10053
1.10055
1.10056
1.10057
1.10058
1.10058
1.10059
1.10059
1.10059
1.10059
1.10059
1.10059
1.10058
1.10058
1.10057
1.10057
1.10056
1.10056
1.10055
1.10055
1.10054
1.10053
1.10053
1.10052
1.10052
1.10052
1.10051
1.10051
1.10051
1.10052
1.10052
1.10052
1.10053
1.10054
1.10055
1.10056
1.10058
1.10059
1.10061
1.10063
1.10065
1.10068
1.1007
1.10073
1.10075
1.10078
1.10081
1.10084
1.10087
1.10089
1.10092
1.10095
1.10097
1.101
1.10102
1.10105
1.10106
1.10108
1.1011
1.10111
1.10111
1.10112
1.10112
1.10111
1.1011
1.10108
1.10106
1.10103
1.101
1.10095
1.10091
1.10085
1.10079
1.10072
1.10065
1.10057
1.10048
1.10038
1.10028
1.10018
1.10006
1.09994
1.09982
1.09969
1.09955
1.09941
1.09926
1.09911
1.09895
1.09879
1.09862
1.09845
1.09827
1.09808
1.09789
1.09768
1.09746
1.09723
1.09698
1.09671
1.09642
1.0961
1.09574
1.09535
1.09492
1.09443
1.09389
1.0933
1.09264
1.09192
1.09113
1.09028
1.08936
1.08838
1.08734
1.08624
1.0851
1.08391
1.0827
1.08146
1.08022
1.07897
1.07774
1.07652
1.07535
1.07421
1.07313
1.07212
1.07117
1.0703
1.06951
1.0688
1.06818
1.06763
1.06715
1.06674
1.06639
1.06609
1.06582
1.06559
1.06537
1.06517
1.06497
1.06478
1.06458
1.06438
1.06416
1.06394
1.06371
1.06347
1.06321
1.06295
1.06268
1.0624
1.06211
1.06181
1.0615
1.06118
1.06086
1.06054
1.06021
1.05988
1.05956
1.05923
1.05892
1.05861
1.05832
1.05804
1.05778
1.05754
1.05732
1.05713
1.05696
1.05682
1.05671
1.05662
1.05656
1.05652
1.0565
1.05651
1.05653
1.05657
1.05662
1.05668
1.05676
1.05684
1.05693
1.05702
1.05712
1.05722
1.05732
1.05743
1.05754
1.05766
1.05777
1.05789
1.05802
1.05814
1.05827
1.0584
1.05853
1.05866
1.05879
1.05893
1.05906
1.0592
1.05934
1.05948
1.05962
1.05976
1.0599
1.06005
1.06019
1.06034
1.06049
1.06064
1.0608
1.06096
1.06113
1.06131
1.0615
1.0617
1.06191
1.06213
1.06238
1.06263
1.06291
1.0632
1.06352
1.06385
1.0642
1.06458
1.06497
1.06538
1.0658
1.06625
1.06671
1.06719
1.06768
1.06818
1.0687
1.06923
1.06977
1.07031
1.07087
1.07142
1.07199
1.07255
1.07311
1.07366
1.07421
1.07475
1.07528
1.0758
1.07631
1.07681
1.0773
1.07777
1.07823
1.07868
1.07913
1.07956
1.07998
1.08039
1.0808
1.08119
1.08158
1.08197
1.08234
1.09299
1.09302
1.09306
1.09308
1.0931
1.09311
1.09311
1.09311
1.0931
1.09308
1.09305
1.09301
1.09297
1.09292
1.09286
1.0928
1.09272
1.09265
1.09256
1.09248
1.09238
1.09228
1.09218
1.09208
1.09197
1.09186
1.09175
1.09164
1.09153
1.09142
1.09131
1.0912
1.09109
1.09099
1.09089
1.09079
1.0907
1.09061
1.09053
1.09045
1.09038
1.09031
1.09025
1.09019
1.09015
1.0901
1.09006
1.09003
1.09001
1.08999
1.08998
1.08998
1.08999
1.09
1.09002
1.09005
1.09009
1.09014
1.0902
1.09026
1.09034
1.09043
1.09052
1.09063
1.09075
1.09088
1.09102
1.09117
1.09133
1.09151
1.09169
1.09189
1.0921
1.09232
1.09256
1.0928
1.09306
1.09333
1.0936
1.09389
1.09418
1.09449
1.0948
1.09511
1.09543
1.09575
1.09607
1.09639
1.09671
1.09702
1.09732
1.09761
1.09788
1.09814
1.09839
1.09861
1.09882
1.09901
1.09917
1.09932
1.09945
1.09955
1.09965
1.09972
1.09979
1.09984
1.09988
1.09991
1.09994
1.09996
1.09998
1.1
1.10002
1.10004
1.10005
1.10007
1.1001
1.10012
1.10014
1.10017
1.1002
1.10023
1.10026
1.10028
1.10031
1.10034
1.10036
1.10039
1.10041
1.10043
1.10045
1.10047
1.10048
1.10049
1.1005
1.10051
1.10052
1.10052
1.10052
1.10052
1.10052
1.10052
1.10052
1.10052
1.10051
1.10051
1.1005
1.10049
1.10049
1.10048
1.10047
1.10047
1.10046
1.10046
1.10045
1.10045
1.10044
1.10044
1.10044
1.10043
1.10043
1.10044
1.10044
1.10044
1.10045
1.10046
1.10047
1.10048
1.1005
1.10051
1.10053
1.10055
1.10057
1.1006
1.10062
1.10064
1.10067
1.10069
1.10072
1.10075
1.10077
1.1008
1.10082
1.10085
1.10087
1.10089
1.10091
1.10093
1.10094
1.10095
1.10096
1.10097
1.10097
1.10097
1.10096
1.10095
1.10093
1.1009
1.10087
1.10084
1.1008
1.10075
1.10069
1.10063
1.10056
1.10049
1.10041
1.10032
1.10022
1.10012
1.10002
1.0999
1.09978
1.09966
1.09953
1.0994
1.09926
1.09911
1.09896
1.09881
1.09864
1.09848
1.09831
1.09813
1.09794
1.09775
1.09755
1.09733
1.0971
1.09685
1.09659
1.0963
1.09598
1.09562
1.09523
1.0948
1.09432
1.09378
1.09319
1.09253
1.09182
1.09103
1.09018
1.08927
1.0883
1.08726
1.08618
1.08504
1.08387
1.08267
1.08145
1.08022
1.07899
1.07778
1.07658
1.07542
1.07431
1.07325
1.07225
1.07132
1.07046
1.06969
1.06899
1.06837
1.06783
1.06736
1.06696
1.0666
1.0663
1.06603
1.06579
1.06557
1.06536
1.06516
1.06496
1.06476
1.06455
1.06433
1.0641
1.06387
1.06362
1.06336
1.06309
1.06282
1.06253
1.06223
1.06193
1.06162
1.0613
1.06097
1.06065
1.06031
1.05998
1.05965
1.05933
1.05901
1.0587
1.0584
1.05812
1.05786
1.05762
1.0574
1.05721
1.05704
1.05689
1.05678
1.05669
1.05662
1.05658
1.05656
1.05656
1.05658
1.05661
1.05666
1.05672
1.05679
1.05687
1.05695
1.05704
1.05714
1.05724
1.05734
1.05745
1.05756
1.05767
1.05779
1.05791
1.05803
1.05815
1.05828
1.05841
1.05854
1.05867
1.0588
1.05894
1.05908
1.05921
1.05935
1.05949
1.05963
1.05977
1.05992
1.06006
1.06021
1.06035
1.06051
1.06066
1.06082
1.06098
1.06115
1.06133
1.06152
1.06172
1.06193
1.06215
1.06239
1.06265
1.06292
1.06321
1.06352
1.06385
1.0642
1.06457
1.06496
1.06537
1.06579
1.06624
1.0667
1.06717
1.06766
1.06816
1.06868
1.06921
1.06975
1.07029
1.07085
1.07141
1.07197
1.07253
1.07309
1.07364
1.07419
1.07473
1.07526
1.07579
1.0763
1.07679
1.07728
1.07776
1.07822
1.07867
1.07912
1.07955
1.07997
1.08039
1.08079
1.08119
1.08158
1.08196
1.08234
1.09265
1.09269
1.09273
1.09275
1.09278
1.09279
1.0928
1.0928
1.09279
1.09277
1.09275
1.09272
1.09268
1.09264
1.09259
1.09253
1.09247
1.0924
1.09232
1.09224
1.09216
1.09207
1.09198
1.09188
1.09178
1.09168
1.09158
1.09147
1.09137
1.09126
1.09116
1.09106
1.09096
1.09086
1.09077
1.09068
1.09059
1.0905
1.09042
1.09035
1.09028
1.09021
1.09015
1.0901
1.09005
1.09001
1.08997
1.08994
1.08992
1.08991
1.0899
1.08989
1.0899
1.08992
1.08994
1.08997
1.09001
1.09006
1.09011
1.09018
1.09026
1.09035
1.09044
1.09055
1.09067
1.0908
1.09094
1.0911
1.09126
1.09144
1.09162
1.09182
1.09203
1.09226
1.09249
1.09274
1.09299
1.09326
1.09354
1.09382
1.09412
1.09442
1.09473
1.09504
1.09536
1.09568
1.096
1.09632
1.09663
1.09694
1.09724
1.09753
1.0978
1.09806
1.09831
1.09853
1.09874
1.09893
1.09909
1.09924
1.09937
1.09948
1.09957
1.09965
1.09972
1.09977
1.09981
1.09985
1.09987
1.0999
1.09992
1.09993
1.09995
1.09997
1.09999
1.1
1.10002
1.10005
1.10007
1.10009
1.10012
1.10014
1.10017
1.10019
1.10022
1.10024
1.10027
1.10029
1.10031
1.10033
1.10034
1.10036
1.10037
1.10038
1.10039
1.1004
1.1004
1.1004
1.1004
1.1004
1.1004
1.10039
1.10039
1.10038
1.10038
1.10037
1.10036
1.10035
1.10035
1.10034
1.10033
1.10032
1.10031
1.1003
1.10029
1.10029
1.10028
1.10027
1.10027
1.10027
1.10026
1.10026
1.10026
1.10027
1.10027
1.10027
1.10028
1.10029
1.1003
1.10032
1.10033
1.10035
1.10036
1.10038
1.1004
1.10042
1.10044
1.10047
1.10049
1.10051
1.10053
1.10056
1.10058
1.1006
1.10062
1.10063
1.10065
1.10066
1.10067
1.10068
1.10069
1.10069
1.10069
1.10068
1.10067
1.10065
1.10063
1.10061
1.10057
1.10054
1.10049
1.10044
1.10038
1.10032
1.10025
1.10018
1.1001
1.10001
1.09991
1.09981
1.09971
1.0996
1.09948
1.09936
1.09923
1.0991
1.09896
1.09882
1.09867
1.09852
1.09836
1.0982
1.09803
1.09786
1.09768
1.09749
1.0973
1.09709
1.09686
1.09662
1.09636
1.09608
1.09577
1.09542
1.09504
1.09462
1.09414
1.09361
1.09303
1.09239
1.09168
1.09091
1.09007
1.08917
1.08821
1.08719
1.08612
1.08501
1.08386
1.08268
1.08148
1.08027
1.07907
1.07787
1.0767
1.07557
1.07448
1.07344
1.07247
1.07156
1.07073
1.06997
1.06929
1.06869
1.06817
1.06771
1.06731
1.06696
1.06666
1.06639
1.06615
1.06593
1.06571
1.06551
1.0653
1.06509
1.06487
1.06465
1.06441
1.06417
1.06391
1.06365
1.06337
1.06309
1.06279
1.06249
1.06217
1.06185
1.06152
1.06119
1.06085
1.06051
1.06018
1.05984
1.05951
1.05918
1.05887
1.05857
1.05828
1.05801
1.05776
1.05754
1.05734
1.05717
1.05702
1.0569
1.0568
1.05673
1.05668
1.05665
1.05665
1.05666
1.05669
1.05673
1.05678
1.05685
1.05692
1.057
1.05709
1.05718
1.05727
1.05737
1.05748
1.05759
1.0577
1.05781
1.05793
1.05805
1.05818
1.0583
1.05843
1.05856
1.05869
1.05882
1.05896
1.05909
1.05923
1.05937
1.05951
1.05965
1.05979
1.05994
1.06008
1.06023
1.06037
1.06052
1.06068
1.06084
1.061
1.06117
1.06135
1.06154
1.06173
1.06194
1.06217
1.06241
1.06266
1.06293
1.06322
1.06353
1.06386
1.0642
1.06457
1.06496
1.06536
1.06578
1.06622
1.06668
1.06716
1.06764
1.06815
1.06866
1.06919
1.06973
1.07028
1.07084
1.07139
1.07196
1.07252
1.07308
1.07364
1.07419
1.07473
1.07526
1.07578
1.07629
1.07679
1.07728
1.07776
1.07822
1.07868
1.07912
1.07955
1.07998
1.08039
1.0808
1.0812
1.08159
1.08198
1.08235
1.09217
1.09221
1.09225
1.09228
1.09231
1.09233
1.09234
1.09235
1.09234
1.09234
1.09232
1.0923
1.09227
1.09224
1.0922
1.09215
1.0921
1.09204
1.09198
1.09191
1.09183
1.09176
1.09167
1.09159
1.0915
1.09141
1.09132
1.09123
1.09113
1.09104
1.09095
1.09085
1.09076
1.09067
1.09058
1.0905
1.09042
1.09034
1.09026
1.09019
1.09012
1.09006
1.09001
1.08995
1.08991
1.08987
1.08983
1.0898
1.08978
1.08977
1.08976
1.08976
1.08977
1.08978
1.0898
1.08984
1.08988
1.08993
1.08998
1.09005
1.09013
1.09022
1.09032
1.09043
1.09055
1.09068
1.09083
1.09098
1.09115
1.09132
1.09151
1.09171
1.09193
1.09215
1.09239
1.09263
1.09289
1.09316
1.09344
1.09372
1.09402
1.09432
1.09463
1.09495
1.09527
1.09559
1.09591
1.09623
1.09655
1.09685
1.09716
1.09745
1.09772
1.09799
1.09823
1.09846
1.09867
1.09886
1.09903
1.09918
1.09931
1.09942
1.09951
1.09959
1.09965
1.09971
1.09975
1.09978
1.09981
1.09983
1.09985
1.09986
1.09988
1.09989
1.09991
1.09992
1.09994
1.09995
1.09997
1.09999
1.10001
1.10003
1.10006
1.10008
1.1001
1.10012
1.10014
1.10016
1.10017
1.10019
1.1002
1.10021
1.10022
1.10022
1.10023
1.10023
1.10023
1.10023
1.10023
1.10022
1.10022
1.10021
1.1002
1.10019
1.10018
1.10017
1.10016
1.10015
1.10014
1.10012
1.10011
1.1001
1.10009
1.10008
1.10006
1.10005
1.10004
1.10003
1.10002
1.10002
1.10001
1.10001
1.1
1.1
1.1
1.1
1.1
1.10001
1.10001
1.10002
1.10003
1.10004
1.10006
1.10007
1.10008
1.1001
1.10012
1.10013
1.10015
1.10017
1.10018
1.1002
1.10022
1.10023
1.10025
1.10026
1.10027
1.10028
1.10028
1.10029
1.10029
1.10028
1.10028
1.10027
1.10025
1.10023
1.10021
1.10018
1.10014
1.1001
1.10005
1.1
1.09994
1.09988
1.09981
1.09974
1.09965
1.09957
1.09947
1.09937
1.09927
1.09916
1.09905
1.09893
1.0988
1.09867
1.09854
1.0984
1.09826
1.09811
1.09796
1.09781
1.09765
1.09748
1.09731
1.09713
1.09694
1.09674
1.09653
1.0963
1.09605
1.09578
1.09548
1.09515
1.09478
1.09437
1.09391
1.0934
1.09283
1.0922
1.09151
1.09076
1.08994
1.08906
1.08812
1.08713
1.08608
1.08499
1.08386
1.08271
1.08154
1.08036
1.07918
1.07802
1.07688
1.07578
1.07472
1.07371
1.07276
1.07189
1.07108
1.07035
1.0697
1.06912
1.06861
1.06816
1.06777
1.06744
1.06714
1.06688
1.06664
1.06641
1.0662
1.06598
1.06577
1.06556
1.06533
1.0651
1.06485
1.0646
1.06434
1.06406
1.06377
1.06348
1.06317
1.06285
1.06253
1.0622
1.06186
1.06151
1.06116
1.06081
1.06047
1.06012
1.05978
1.05944
1.05912
1.05881
1.05851
1.05824
1.05798
1.05775
1.05754
1.05736
1.0572
1.05707
1.05696
1.05688
1.05682
1.05679
1.05677
1.05677
1.05679
1.05682
1.05687
1.05693
1.05699
1.05706
1.05715
1.05723
1.05732
1.05742
1.05752
1.05763
1.05774
1.05785
1.05796
1.05808
1.0582
1.05833
1.05846
1.05858
1.05872
1.05885
1.05898
1.05912
1.05926
1.05939
1.05953
1.05967
1.05981
1.05996
1.0601
1.06025
1.0604
1.06055
1.0607
1.06086
1.06102
1.06119
1.06137
1.06156
1.06175
1.06196
1.06218
1.06242
1.06267
1.06294
1.06323
1.06353
1.06386
1.0642
1.06457
1.06495
1.06535
1.06577
1.06621
1.06667
1.06714
1.06763
1.06814
1.06865
1.06918
1.06973
1.07028
1.07083
1.07139
1.07196
1.07252
1.07308
1.07364
1.07419
1.07474
1.07527
1.07579
1.0763
1.0768
1.07729
1.07777
1.07824
1.07869
1.07914
1.07957
1.08
1.08042
1.08082
1.08123
1.08162
1.08201
1.08239
1.09157
1.09162
1.09166
1.0917
1.09173
1.09175
1.09177
1.09178
1.09179
1.09179
1.09179
1.09177
1.09176
1.09173
1.0917
1.09167
1.09163
1.09159
1.09154
1.09148
1.09142
1.09136
1.09129
1.09122
1.09115
1.09107
1.09099
1.09091
1.09083
1.09075
1.09067
1.09059
1.09051
1.09043
1.09035
1.09027
1.09019
1.09012
1.09005
1.08999
1.08992
1.08987
1.08981
1.08976
1.08972
1.08968
1.08965
1.08962
1.0896
1.08959
1.08958
1.08958
1.08959
1.0896
1.08963
1.08966
1.0897
1.08975
1.08981
1.08988
1.08996
1.09005
1.09015
1.09027
1.09039
1.09052
1.09067
1.09082
1.09099
1.09117
1.09136
1.09157
1.09178
1.09201
1.09225
1.0925
1.09276
1.09303
1.09331
1.0936
1.0939
1.0942
1.09451
1.09483
1.09516
1.09548
1.0958
1.09613
1.09645
1.09676
1.09707
1.09736
1.09764
1.09791
1.09816
1.09839
1.09861
1.0988
1.09897
1.09912
1.09925
1.09936
1.09946
1.09954
1.0996
1.09965
1.09969
1.09972
1.09974
1.09976
1.09977
1.09978
1.09979
1.0998
1.09981
1.09982
1.09983
1.09985
1.09986
1.09987
1.09989
1.0999
1.09992
1.09994
1.09995
1.09996
1.09998
1.09999
1.1
1.10001
1.10002
1.10002
1.10003
1.10003
1.10003
1.10002
1.10002
1.10001
1.1
1.09999
1.09998
1.09997
1.09996
1.09994
1.09993
1.09991
1.0999
1.09988
1.09986
1.09985
1.09983
1.09981
1.0998
1.09978
1.09976
1.09975
1.09973
1.09972
1.09971
1.09969
1.09968
1.09967
1.09966
1.09966
1.09965
1.09965
1.09964
1.09964
1.09964
1.09965
1.09965
1.09965
1.09966
1.09967
1.09968
1.09969
1.0997
1.09971
1.09972
1.09973
1.09974
1.09975
1.09976
1.09977
1.09977
1.09978
1.09979
1.09979
1.09979
1.09978
1.09978
1.09977
1.09976
1.09974
1.09972
1.0997
1.09967
1.09964
1.0996
1.09955
1.09951
1.09945
1.09939
1.09933
1.09926
1.09918
1.0991
1.09901
1.09892
1.09882
1.09872
1.09861
1.0985
1.09839
1.09827
1.09814
1.09802
1.09788
1.09775
1.09761
1.09747
1.09732
1.09717
1.09701
1.09685
1.09668
1.09651
1.09632
1.09612
1.09591
1.09567
1.09542
1.09514
1.09482
1.09447
1.09408
1.09364
1.09314
1.0926
1.09199
1.09132
1.09059
1.08979
1.08894
1.08802
1.08705
1.08603
1.08497
1.08388
1.08275
1.08162
1.08047
1.07933
1.0782
1.0771
1.07603
1.075
1.07403
1.07312
1.07228
1.07151
1.07081
1.07018
1.06963
1.06914
1.06871
1.06834
1.06802
1.06773
1.06747
1.06723
1.06701
1.06679
1.06658
1.06636
1.06614
1.0659
1.06566
1.06541
1.06515
1.06487
1.06459
1.06429
1.06398
1.06366
1.06333
1.06299
1.06265
1.06229
1.06194
1.06157
1.06121
1.06085
1.06049
1.06014
1.05979
1.05946
1.05913
1.05883
1.05854
1.05827
1.05803
1.05781
1.05761
1.05744
1.0573
1.05718
1.05708
1.05701
1.05696
1.05693
1.05692
1.05693
1.05695
1.05698
1.05703
1.05709
1.05715
1.05722
1.0573
1.05739
1.05748
1.05758
1.05768
1.05778
1.05789
1.058
1.05812
1.05824
1.05836
1.05849
1.05862
1.05875
1.05888
1.05901
1.05915
1.05928
1.05942
1.05956
1.0597
1.05984
1.05998
1.06013
1.06027
1.06042
1.06057
1.06072
1.06088
1.06104
1.06121
1.06139
1.06158
1.06177
1.06198
1.0622
1.06243
1.06268
1.06295
1.06323
1.06354
1.06386
1.0642
1.06456
1.06494
1.06534
1.06576
1.0662
1.06666
1.06713
1.06762
1.06813
1.06865
1.06918
1.06973
1.07028
1.07084
1.0714
1.07197
1.07254
1.0731
1.07366
1.07421
1.07476
1.07529
1.07582
1.07633
1.07683
1.07732
1.0778
1.07827
1.07872
1.07917
1.07961
1.08003
1.08045
1.08086
1.08127
1.08166
1.08206
1.08244
1.09087
1.09093
1.09097
1.09102
1.09105
1.09108
1.09111
1.09113
1.09115
1.09116
1.09116
1.09116
1.09116
1.09115
1.09113
1.09111
1.09109
1.09106
1.09102
1.09098
1.09094
1.09089
1.09084
1.09079
1.09073
1.09067
1.09061
1.09054
1.09048
1.09041
1.09034
1.09027
1.0902
1.09013
1.09006
1.09
1.08993
1.08986
1.0898
1.08974
1.08968
1.08963
1.08958
1.08954
1.08949
1.08946
1.08943
1.0894
1.08938
1.08937
1.08937
1.08937
1.08938
1.08939
1.08942
1.08945
1.08949
1.08955
1.08961
1.08968
1.08976
1.08985
1.08996
1.09007
1.09019
1.09033
1.09048
1.09064
1.09081
1.09099
1.09118
1.09139
1.09161
1.09184
1.09208
1.09233
1.09259
1.09286
1.09315
1.09344
1.09374
1.09405
1.09437
1.09469
1.09501
1.09534
1.09567
1.096
1.09633
1.09665
1.09696
1.09726
1.09755
1.09782
1.09808
1.09832
1.09854
1.09873
1.09891
1.09906
1.09919
1.09931
1.0994
1.09948
1.09954
1.09959
1.09962
1.09965
1.09967
1.09968
1.09969
1.0997
1.0997
1.0997
1.09971
1.09971
1.09972
1.09972
1.09973
1.09974
1.09974
1.09975
1.09976
1.09977
1.09978
1.09979
1.09979
1.0998
1.0998
1.0998
1.09981
1.0998
1.0998
1.09979
1.09979
1.09978
1.09977
1.09975
1.09974
1.09972
1.09971
1.09969
1.09967
1.09965
1.09963
1.09961
1.09959
1.09956
1.09954
1.09952
1.0995
1.09947
1.09945
1.09943
1.09941
1.09939
1.09936
1.09934
1.09933
1.09931
1.09929
1.09927
1.09926
1.09925
1.09924
1.09922
1.09922
1.09921
1.0992
1.0992
1.09919
1.09919
1.09919
1.09919
1.09919
1.0992
1.0992
1.0992
1.09921
1.09921
1.09921
1.09922
1.09922
1.09922
1.09922
1.09922
1.09922
1.09921
1.09921
1.0992
1.09918
1.09917
1.09915
1.09913
1.09911
1.09908
1.09904
1.09901
1.09896
1.09892
1.09887
1.09881
1.09875
1.09868
1.09861
1.09854
1.09846
1.09837
1.09828
1.09819
1.09809
1.09799
1.09788
1.09777
1.09765
1.09754
1.09742
1.09729
1.09716
1.09703
1.0969
1.09676
1.09662
1.09648
1.09633
1.09618
1.09601
1.09584
1.09566
1.09546
1.09525
1.09501
1.09474
1.09445
1.09412
1.09375
1.09333
1.09286
1.09233
1.09175
1.09111
1.0904
1.08963
1.0888
1.08792
1.08697
1.08599
1.08496
1.08389
1.0828
1.0817
1.08059
1.07949
1.0784
1.07733
1.0763
1.07532
1.07439
1.07352
1.07272
1.07198
1.07132
1.07072
1.0702
1.06973
1.06933
1.06898
1.06867
1.06839
1.06814
1.06791
1.06769
1.06747
1.06726
1.06704
1.06681
1.06657
1.06633
1.06607
1.06579
1.06551
1.06521
1.0649
1.06458
1.06425
1.06391
1.06355
1.06319
1.06283
1.06246
1.06208
1.06171
1.06133
1.06096
1.06059
1.06023
1.05988
1.05955
1.05923
1.05893
1.05864
1.05838
1.05815
1.05794
1.05775
1.05759
1.05745
1.05734
1.05725
1.05719
1.05714
1.05711
1.0571
1.05711
1.05713
1.05716
1.05721
1.05726
1.05732
1.0574
1.05747
1.05756
1.05765
1.05774
1.05784
1.05795
1.05806
1.05817
1.05829
1.05841
1.05853
1.05866
1.05879
1.05892
1.05905
1.05918
1.05932
1.05945
1.05959
1.05973
1.05987
1.06001
1.06015
1.0603
1.06045
1.0606
1.06075
1.06091
1.06107
1.06124
1.06141
1.0616
1.06179
1.062
1.06221
1.06245
1.06269
1.06296
1.06324
1.06354
1.06386
1.06419
1.06455
1.06493
1.06533
1.06575
1.06619
1.06665
1.06712
1.06762
1.06813
1.06865
1.06919
1.06974
1.07029
1.07086
1.07143
1.072
1.07256
1.07313
1.07369
1.07425
1.07479
1.07533
1.07586
1.07637
1.07687
1.07736
1.07784
1.07831
1.07877
1.07922
1.07966
1.08008
1.0805
1.08092
1.08132
1.08172
1.08211
1.0825
1.09011
1.09017
1.09022
1.09027
1.09032
1.09036
1.09039
1.09042
1.09045
1.09047
1.09048
1.09049
1.0905
1.0905
1.0905
1.0905
1.09049
1.09047
1.09046
1.09043
1.09041
1.09038
1.09034
1.09031
1.09027
1.09022
1.09018
1.09013
1.09008
1.09003
1.08997
1.08992
1.08986
1.0898
1.08974
1.08969
1.08963
1.08957
1.08952
1.08947
1.08941
1.08937
1.08932
1.08928
1.08924
1.08921
1.08918
1.08916
1.08914
1.08913
1.08913
1.08913
1.08914
1.08916
1.08918
1.08922
1.08926
1.08932
1.08938
1.08945
1.08953
1.08963
1.08973
1.08985
1.08997
1.09011
1.09026
1.09042
1.09059
1.09078
1.09098
1.09118
1.0914
1.09163
1.09188
1.09213
1.0924
1.09267
1.09296
1.09325
1.09356
1.09387
1.09419
1.09452
1.09485
1.09518
1.09552
1.09585
1.09619
1.09651
1.09683
1.09714
1.09744
1.09772
1.09799
1.09823
1.09846
1.09866
1.09884
1.099
1.09913
1.09924
1.09934
1.09941
1.09947
1.09952
1.09955
1.09957
1.09959
1.09959
1.0996
1.0996
1.0996
1.09959
1.09959
1.09959
1.09959
1.09958
1.09958
1.09958
1.09958
1.09959
1.09959
1.09959
1.09959
1.09959
1.09959
1.09958
1.09958
1.09957
1.09957
1.09956
1.09955
1.09953
1.09952
1.0995
1.09948
1.09946
1.09944
1.09942
1.09939
1.09937
1.09934
1.09932
1.09929
1.09926
1.09923
1.0992
1.09917
1.09914
1.09912
1.09909
1.09906
1.09903
1.099
1.09897
1.09895
1.09892
1.0989
1.09887
1.09885
1.09883
1.09881
1.09879
1.09877
1.09875
1.09873
1.09872
1.09871
1.09869
1.09868
1.09867
1.09867
1.09866
1.09865
1.09865
1.09864
1.09864
1.09863
1.09863
1.09862
1.09862
1.09861
1.09861
1.0986
1.09859
1.09858
1.09857
1.09856
1.09854
1.09852
1.0985
1.09848
1.09845
1.09842
1.09839
1.09835
1.09831
1.09827
1.09822
1.09816
1.09811
1.09805
1.09798
1.09791
1.09784
1.09776
1.09767
1.09759
1.0975
1.0974
1.0973
1.0972
1.0971
1.09699
1.09688
1.09677
1.09665
1.09653
1.09641
1.09629
1.09617
1.09604
1.09591
1.09577
1.09563
1.09549
1.09533
1.09516
1.09499
1.09479
1.09457
1.09433
1.09405
1.09374
1.09339
1.093
1.09255
1.09205
1.0915
1.09088
1.0902
1.08946
1.08865
1.0878
1.08689
1.08593
1.08493
1.0839
1.08285
1.08178
1.08071
1.07964
1.07859
1.07757
1.07659
1.07565
1.07476
1.07393
1.07317
1.07247
1.07185
1.07129
1.0708
1.07037
1.06999
1.06966
1.06936
1.0691
1.06886
1.06864
1.06843
1.06821
1.068
1.06778
1.06755
1.06731
1.06706
1.06679
1.06652
1.06622
1.06592
1.0656
1.06527
1.06492
1.06457
1.06421
1.06383
1.06345
1.06307
1.06268
1.06229
1.0619
1.06151
1.06113
1.06076
1.0604
1.06005
1.05971
1.05939
1.0591
1.05882
1.05857
1.05834
1.05813
1.05795
1.05779
1.05766
1.05755
1.05746
1.0574
1.05735
1.05732
1.05731
1.05731
1.05733
1.05736
1.0574
1.05745
1.05751
1.05758
1.05766
1.05774
1.05783
1.05792
1.05802
1.05813
1.05823
1.05835
1.05846
1.05858
1.05871
1.05883
1.05896
1.05909
1.05922
1.05936
1.05949
1.05963
1.05977
1.05991
1.06005
1.06019
1.06033
1.06048
1.06063
1.06078
1.06093
1.06109
1.06126
1.06144
1.06162
1.06181
1.06201
1.06223
1.06246
1.0627
1.06296
1.06324
1.06354
1.06385
1.06419
1.06455
1.06492
1.06532
1.06574
1.06618
1.06664
1.06712
1.06762
1.06813
1.06866
1.0692
1.06975
1.07032
1.07088
1.07146
1.07203
1.0726
1.07317
1.07374
1.0743
1.07484
1.07538
1.07591
1.07643
1.07693
1.07742
1.0779
1.07837
1.07883
1.07928
1.07972
1.08015
1.08057
1.08098
1.08139
1.08179
1.08218
1.08257
1.08932
1.08939
1.08944
1.0895
1.08955
1.08959
1.08964
1.08968
1.08971
1.08974
1.08977
1.08979
1.08981
1.08983
1.08984
1.08985
1.08986
1.08986
1.08986
1.08985
1.08984
1.08983
1.08981
1.08979
1.08977
1.08974
1.08972
1.08968
1.08965
1.08961
1.08957
1.08953
1.08949
1.08944
1.0894
1.08935
1.08931
1.08926
1.08921
1.08917
1.08912
1.08908
1.08904
1.08901
1.08897
1.08894
1.08892
1.0889
1.08889
1.08888
1.08887
1.08888
1.08889
1.08891
1.08894
1.08897
1.08902
1.08907
1.08913
1.08921
1.08929
1.08939
1.08949
1.08961
1.08973
1.08987
1.09003
1.09019
1.09036
1.09055
1.09075
1.09096
1.09118
1.09141
1.09166
1.09191
1.09218
1.09246
1.09275
1.09304
1.09335
1.09367
1.09399
1.09432
1.09466
1.095
1.09534
1.09568
1.09602
1.09636
1.09668
1.097
1.09731
1.0976
1.09787
1.09813
1.09836
1.09857
1.09875
1.09891
1.09905
1.09917
1.09926
1.09934
1.09939
1.09943
1.09946
1.09948
1.09949
1.09949
1.09949
1.09949
1.09948
1.09947
1.09946
1.09945
1.09944
1.09943
1.09943
1.09942
1.09941
1.0994
1.0994
1.09939
1.09938
1.09937
1.09936
1.09935
1.09934
1.09932
1.09931
1.09929
1.09927
1.09925
1.09923
1.0992
1.09917
1.09915
1.09912
1.09909
1.09905
1.09902
1.09899
1.09895
1.09892
1.09888
1.09885
1.09881
1.09877
1.09874
1.0987
1.09867
1.09863
1.0986
1.09856
1.09853
1.0985
1.09846
1.09843
1.0984
1.09837
1.09834
1.09831
1.09829
1.09826
1.09824
1.09821
1.09819
1.09817
1.09815
1.09813
1.09811
1.0981
1.09808
1.09807
1.09805
1.09804
1.09803
1.09802
1.098
1.09799
1.09798
1.09797
1.09795
1.09794
1.09792
1.09791
1.09789
1.09787
1.09785
1.09782
1.09779
1.09777
1.09773
1.0977
1.09766
1.09762
1.09758
1.09753
1.09748
1.09742
1.09737
1.09731
1.09724
1.09717
1.0971
1.09702
1.09694
1.09686
1.09677
1.09669
1.09659
1.0965
1.0964
1.0963
1.0962
1.0961
1.09599
1.09588
1.09577
1.09566
1.09555
1.09544
1.09532
1.0952
1.09508
1.09494
1.09481
1.09466
1.0945
1.09432
1.09412
1.0939
1.09365
1.09336
1.09304
1.09266
1.09224
1.09177
1.09123
1.09064
1.08999
1.08927
1.0885
1.08767
1.08679
1.08586
1.08489
1.0839
1.08288
1.08185
1.08081
1.07979
1.07878
1.0778
1.07686
1.07596
1.07512
1.07434
1.07362
1.07296
1.07238
1.07186
1.0714
1.071
1.07065
1.07035
1.07008
1.06983
1.06961
1.0694
1.06919
1.06899
1.06878
1.06856
1.06833
1.06809
1.06784
1.06757
1.06729
1.067
1.06669
1.06636
1.06602
1.06567
1.06531
1.06494
1.06455
1.06416
1.06377
1.06336
1.06296
1.06256
1.06216
1.06177
1.06138
1.061
1.06064
1.06029
1.05995
1.05964
1.05934
1.05907
1.05882
1.05859
1.05838
1.0582
1.05805
1.05791
1.0578
1.05771
1.05764
1.05759
1.05756
1.05754
1.05754
1.05755
1.05758
1.05761
1.05766
1.05772
1.05778
1.05785
1.05793
1.05802
1.05811
1.05821
1.05831
1.05842
1.05853
1.05865
1.05877
1.05889
1.05902
1.05915
1.05928
1.05941
1.05954
1.05967
1.05981
1.05995
1.06008
1.06022
1.06037
1.06051
1.06066
1.06081
1.06096
1.06112
1.06129
1.06146
1.06164
1.06183
1.06203
1.06224
1.06247
1.06271
1.06297
1.06324
1.06354
1.06385
1.06418
1.06454
1.06491
1.06531
1.06573
1.06617
1.06664
1.06712
1.06762
1.06814
1.06867
1.06922
1.06978
1.07035
1.07092
1.0715
1.07208
1.07265
1.07323
1.0738
1.07436
1.07491
1.07545
1.07598
1.0765
1.077
1.07749
1.07798
1.07845
1.07891
1.07935
1.07979
1.08022
1.08064
1.08106
1.08146
1.08186
1.08226
1.08265
1.08853
1.0886
1.08866
1.08872
1.08877
1.08883
1.08888
1.08892
1.08897
1.08901
1.08905
1.08908
1.08911
1.08914
1.08917
1.08919
1.08921
1.08923
1.08924
1.08925
1.08926
1.08926
1.08927
1.08926
1.08926
1.08925
1.08924
1.08922
1.0892
1.08918
1.08916
1.08913
1.0891
1.08907
1.08904
1.089
1.08897
1.08893
1.08889
1.08886
1.08882
1.08879
1.08875
1.08872
1.08869
1.08867
1.08865
1.08863
1.08862
1.08861
1.08861
1.08862
1.08863
1.08865
1.08868
1.08872
1.08876
1.08882
1.08888
1.08896
1.08904
1.08914
1.08924
1.08936
1.08949
1.08963
1.08978
1.08994
1.09012
1.09031
1.09051
1.09072
1.09094
1.09118
1.09142
1.09168
1.09195
1.09223
1.09252
1.09282
1.09313
1.09344
1.09377
1.0941
1.09444
1.09479
1.09513
1.09548
1.09583
1.09617
1.09651
1.09684
1.09715
1.09745
1.09774
1.098
1.09824
1.09846
1.09865
1.09882
1.09896
1.09908
1.09917
1.09925
1.0993
1.09934
1.09937
1.09938
1.09938
1.09938
1.09938
1.09936
1.09935
1.09934
1.09932
1.0993
1.09929
1.09927
1.09926
1.09924
1.09923
1.09921
1.0992
1.09918
1.09916
1.09915
1.09913
1.09911
1.09909
1.09906
1.09904
1.09901
1.09898
1.09895
1.09892
1.09888
1.09885
1.09881
1.09877
1.09874
1.09869
1.09865
1.09861
1.09857
1.09853
1.09848
1.09844
1.0984
1.09836
1.09831
1.09827
1.09823
1.09819
1.09814
1.0981
1.09806
1.09802
1.09798
1.09794
1.09791
1.09787
1.09783
1.0978
1.09776
1.09773
1.0977
1.09767
1.09764
1.09761
1.09758
1.09756
1.09753
1.09751
1.09748
1.09746
1.09744
1.09742
1.0974
1.09738
1.09736
1.09734
1.09732
1.0973
1.09727
1.09725
1.09723
1.09721
1.09718
1.09716
1.09713
1.0971
1.09707
1.09703
1.097
1.09696
1.09692
1.09687
1.09683
1.09678
1.09673
1.09667
1.09661
1.09655
1.09649
1.09642
1.09635
1.09628
1.09621
1.09613
1.09605
1.09597
1.09588
1.09579
1.0957
1.09561
1.09552
1.09543
1.09533
1.09523
1.09514
1.09504
1.09494
1.09484
1.09474
1.09463
1.09452
1.09441
1.09429
1.09416
1.09402
1.09386
1.09368
1.09348
1.09325
1.09299
1.09268
1.09233
1.09193
1.09148
1.09097
1.0904
1.08977
1.08908
1.08833
1.08753
1.08667
1.08577
1.08484
1.08387
1.08289
1.08189
1.08089
1.07991
1.07894
1.078
1.0771
1.07625
1.07545
1.07472
1.07404
1.07343
1.07289
1.07241
1.07199
1.07162
1.0713
1.07102
1.07077
1.07055
1.07034
1.07015
1.06995
1.06976
1.06956
1.06935
1.06913
1.06889
1.06864
1.06838
1.0681
1.0678
1.06749
1.06717
1.06683
1.06647
1.0661
1.06572
1.06533
1.06494
1.06453
1.06412
1.06371
1.0633
1.06289
1.06248
1.06208
1.06169
1.06131
1.06095
1.0606
1.06026
1.05995
1.05965
1.05938
1.05913
1.0589
1.05869
1.05851
1.05835
1.05821
1.05809
1.058
1.05792
1.05786
1.05782
1.0578
1.05779
1.0578
1.05782
1.05785
1.05789
1.05794
1.058
1.05807
1.05814
1.05823
1.05832
1.05841
1.05851
1.05862
1.05873
1.05885
1.05897
1.05909
1.05921
1.05934
1.05946
1.05959
1.05973
1.05986
1.05999
1.06013
1.06027
1.06041
1.06055
1.06069
1.06084
1.06099
1.06115
1.06131
1.06148
1.06166
1.06185
1.06205
1.06226
1.06248
1.06272
1.06297
1.06324
1.06353
1.06385
1.06418
1.06453
1.06491
1.06531
1.06573
1.06617
1.06664
1.06712
1.06763
1.06815
1.06869
1.06924
1.06981
1.07038
1.07096
1.07155
1.07213
1.07271
1.07329
1.07386
1.07443
1.07498
1.07553
1.07606
1.07658
1.07708
1.07758
1.07806
1.07853
1.07899
1.07944
1.07988
1.08031
1.08073
1.08115
1.08155
1.08195
1.08234
1.08273
1.08776
1.08783
1.08789
1.08796
1.08802
1.08808
1.08814
1.08819
1.08824
1.08829
1.08834
1.08839
1.08843
1.08847
1.08851
1.08854
1.08858
1.08861
1.08864
1.08866
1.08868
1.0887
1.08872
1.08873
1.08874
1.08875
1.08875
1.08875
1.08875
1.08875
1.08874
1.08872
1.08871
1.08869
1.08867
1.08865
1.08862
1.0886
1.08857
1.08854
1.08852
1.08849
1.08846
1.08844
1.08841
1.0884
1.08838
1.08837
1.08836
1.08835
1.08836
1.08836
1.08838
1.0884
1.08843
1.08847
1.08852
1.08857
1.08864
1.08871
1.08879
1.08889
1.089
1.08911
1.08924
1.08938
1.08953
1.0897
1.08987
1.09006
1.09026
1.09047
1.09069
1.09093
1.09118
1.09143
1.0917
1.09198
1.09227
1.09257
1.09288
1.0932
1.09353
1.09386
1.0942
1.09455
1.0949
1.09526
1.09561
1.09596
1.09631
1.09664
1.09697
1.09728
1.09758
1.09785
1.0981
1.09833
1.09853
1.0987
1.09885
1.09897
1.09907
1.09914
1.09919
1.09923
1.09925
1.09926
1.09927
1.09926
1.09925
1.09923
1.09921
1.09919
1.09917
1.09914
1.09912
1.0991
1.09908
1.09906
1.09903
1.09901
1.09899
1.09896
1.09894
1.09891
1.09888
1.09885
1.09882
1.09879
1.09876
1.09872
1.09868
1.09864
1.0986
1.09856
1.09851
1.09847
1.09842
1.09837
1.09833
1.09828
1.09823
1.09818
1.09813
1.09808
1.09803
1.09798
1.09793
1.09788
1.09783
1.09778
1.09773
1.09768
1.09763
1.09759
1.09754
1.09749
1.09745
1.0974
1.09736
1.09732
1.09728
1.09724
1.0972
1.09716
1.09712
1.09708
1.09704
1.09701
1.09697
1.09694
1.09691
1.09688
1.09685
1.09682
1.09679
1.09676
1.09673
1.0967