# vtk DataFile Version 2.0
LBE two cylinders
ASCII
DATASET STRUCTURED_POINTS
DIMENSIONS 400 100 1
ASPECT_RATIO 1 1 1
ORIGIN 0 0 0
POINT_DATA 40000
SCALARS rho double 1
LOOKUP_TABLE default
1.07295
1.07288
1.07282
1.07277
1.07274
1.07271
1.0727
1.0727
1.07271
1.07273
1.07277
1.07283
1.07289
1.07297
1.07306
1.07317
1.07329
1.07342
1.07356
1.07371
1.07387
1.07404
1.07422
1.07441
1.0746
1.0748
1.07501
1.07522
1.07543
1.07565
1.07587
1.0761
1.07632
1.07655
1.07678
1.07701
1.07723
1.07746
1.07769
1.07792
1.07815
1.07838
1.0786
1.07883
1.07906
1.07929
1.07952
1.07975
1.07999
1.08022
1.08046
1.0807
1.08095
1.0812
1.08145
1.08171
1.08197
1.08224
1.08251
1.08279
1.08308
1.08337
1.08367
1.08397
1.08429
1.08461
1.08494
1.08528
1.08563
1.08599
1.08636
1.08674
1.08713
1.08753
1.08794
1.08836
1.08879
1.08923
1.08967
1.09012
1.09057
1.09103
1.09148
1.09194
1.09239
1.09283
1.09327
1.0937
1.09412
1.09452
1.09491
1.09528
1.09563
1.09595
1.09625
1.09652
1.09676
1.09697
1.09715
1.0973
1.09741
1.09749
1.09754
1.09756
1.09755
1.09752
1.09745
1.09737
1.09726
1.09713
1.09699
1.09683
1.09665
1.09646
1.09626
1.09605
1.09583
1.09561
1.09537
1.09512
1.09487
1.09462
1.09435
1.09409
1.09382
1.09354
1.09327
1.09299
1.09272
1.09244
1.09217
1.09189
1.09162
1.09135
1.09109
1.09083
1.09057
1.09031
1.09006
1.08981
1.08957
1.08932
1.08908
1.08884
1.08861
1.08837
1.08814
1.08791
1.08768
1.08746
1.08723
1.08702
1.08681
1.0866
1.0864
1.08621
1.08603
1.08587
1.08571
1.08557
1.08544
1.08533
1.08524
1.08516
1.08511
1.08507
1.08505
1.08504
1.08506
1.08509
1.08513
1.08518
1.08525
1.08532
1.0854
1.08549
1.08558
1.08568
1.08578
1.08588
1.08599
1.0861
1.08621
1.08633
1.08645
1.08658
1.08671
1.08686
1.08701
1.08716
1.08733
1.0875
1.08768
1.08786
1.08805
1.08825
1.08845
1.08865
1.08886
1.08908
1.08931
1.08955
1.08981
1.09008
1.09038
1.09071
1.09106
1.09144
1.09186
1.09232
1.09281
1.09333
1.09389
1.09447
1.09507
1.0957
1.09634
1.09698
1.09762
1.09826
1.09888
1.09948
1.10006
1.1006
1.10111
1.10158
1.102
1.10239
1.10273
1.10303
1.1033
1.10352
1.1037
1.10385
1.10397
1.10406
1.10413
1.10418
1.1042
1.10422
1.10422
1.10421
1.10419
1.10417
1.10415
1.10412
1.1041
1.10408
1.10407
1.10406
1.10406
1.10407
1.10409
1.10412
1.10416
1.10422
1.1043
1.10439
1.10449
1.10461
1.10475
1.1049
1.10507
1.10525
1.10544
1.10565
1.10587
1.1061
1.10634
1.10658
1.10684
1.1071
1.10737
1.10765
1.10794
1.10823
1.10852
1.10883
1.10914
1.10946
1.10979
1.11012
1.11047
1.11082
1.11119
1.11156
1.11195
1.11234
1.11275
1.11317
1.11361
1.11405
1.1145
1.11496
1.11543
1.11591
1.11638
1.11686
1.11733
1.1178
1.11825
1.11869
1.1191
1.11948
1.11983
1.12013
1.12038
1.12056
1.12067
1.12068
1.1206
1.12041
1.12009
1.11964
1.11904
1.11827
1.11735
1.11625
1.11499
1.11356
1.11198
1.11027
1.10845
1.10654
1.10458
1.10259
1.10062
1.0987
1.09685
1.09512
1.09351
1.09205
1.09076
1.08964
1.08869
1.08791
1.0873
1.08684
1.08653
1.08635
1.0863
1.08635
1.0865
1.08674
1.08704
1.08741
1.08783
1.08829
1.08878
1.0893
1.08984
1.09038
1.09094
1.0915
1.09206
1.09261
1.09316
1.09369
1.09422
1.09473
1.09524
1.09573
1.0962
1.09666
1.09711
1.09753
1.09793
1.0983
1.09862
1.09889
1.09909
1.0992
1.0992
1.09907
1.09878
1.09833
1.09772
1.09694
1.09604
1.09505
1.09403
1.09305
1.09215
1.09139
1.0908
1.09039
1.09013
1.08999
1.08993
1.08988
1.0898
1.08964
1.08936
1.08894
1.08835
1.08759
1.08663
1.08546
1.08401
1.08238
1.07295
1.07289
1.07283
1.07278
1.07275
1.07272
1.07271
1.07271
1.07272
1.07275
1.07279
1.07284
1.07291
1.07299
1.07308
1.07319
1.0733
1.07343
1.07358
1.07373
1.07389
1.07406
1.07424
1.07443
1.07462
1.07482
1.07502
1.07523
1.07545
1.07567
1.07589
1.07611
1.07634
1.07657
1.0768
1.07702
1.07725
1.07748
1.07771
1.07794
1.07817
1.0784
1.07863
1.07886
1.07909
1.07932
1.07955
1.07979
1.08002
1.08026
1.0805
1.08074
1.08098
1.08123
1.08149
1.08174
1.08201
1.08228
1.08255
1.08283
1.08311
1.0834
1.0837
1.08401
1.08432
1.08464
1.08497
1.08531
1.08565
1.08601
1.08638
1.08676
1.08715
1.08755
1.08795
1.08837
1.0888
1.08923
1.08967
1.09011
1.09056
1.09101
1.09146
1.09191
1.09235
1.09279
1.09322
1.09365
1.09406
1.09446
1.09484
1.0952
1.09554
1.09586
1.09616
1.09642
1.09666
1.09687
1.09705
1.0972
1.09731
1.09739
1.09745
1.09747
1.09746
1.09743
1.09737
1.09729
1.09719
1.09707
1.09693
1.09677
1.0966
1.09642
1.09622
1.09601
1.0958
1.09557
1.09534
1.0951
1.09485
1.0946
1.09434
1.09407
1.09381
1.09353
1.09326
1.09299
1.09271
1.09244
1.09217
1.0919
1.09163
1.09136
1.0911
1.09084
1.09058
1.09033
1.09008
1.08983
1.08958
1.08934
1.0891
1.08886
1.08863
1.0884
1.08816
1.08793
1.08771
1.08748
1.08726
1.08705
1.08684
1.08663
1.08644
1.08625
1.08607
1.0859
1.08575
1.08561
1.08548
1.08537
1.08528
1.0852
1.08515
1.08511
1.08508
1.08508
1.08509
1.08512
1.08516
1.08521
1.08527
1.08534
1.08542
1.08551
1.0856
1.0857
1.0858
1.0859
1.086
1.08611
1.08622
1.08634
1.08646
1.08659
1.08672
1.08687
1.08702
1.08717
1.08734
1.08751
1.08768
1.08787
1.08806
1.08825
1.08845
1.08866
1.08887
1.08909
1.08932
1.08956
1.08982
1.0901
1.0904
1.09072
1.09108
1.09146
1.09188
1.09233
1.09282
1.09334
1.09389
1.09446
1.09506
1.09568
1.09631
1.09695
1.09759
1.09822
1.09883
1.09943
1.1
1.10054
1.10105
1.10152
1.10195
1.10233
1.10268
1.10298
1.10325
1.10347
1.10366
1.10381
1.10394
1.10403
1.1041
1.10415
1.10419
1.1042
1.10421
1.1042
1.10419
1.10417
1.10415
1.10413
1.10411
1.10409
1.10408
1.10407
1.10407
1.10409
1.10411
1.10414
1.10419
1.10425
1.10432
1.10441
1.10452
1.10464
1.10477
1.10492
1.10509
1.10527
1.10546
1.10567
1.10588
1.10611
1.10635
1.1066
1.10685
1.10711
1.10738
1.10766
1.10795
1.10824
1.10853
1.10884
1.10915
1.10947
1.1098
1.11013
1.11048
1.11083
1.11119
1.11157
1.11195
1.11235
1.11275
1.11317
1.1136
1.11404
1.11448
1.11494
1.1154
1.11587
1.11633
1.1168
1.11726
1.11771
1.11815
1.11857
1.11897
1.11933
1.11966
1.11994
1.12016
1.12031
1.12039
1.12038
1.12027
1.12005
1.1197
1.11923
1.11861
1.11784
1.11691
1.11583
1.11459
1.1132
1.11168
1.11003
1.10828
1.10646
1.10458
1.10268
1.10079
1.09894
1.09716
1.09547
1.0939
1.09247
1.09118
1.09005
1.08909
1.08829
1.08765
1.08716
1.08682
1.08661
1.08652
1.08654
1.08666
1.08687
1.08715
1.08749
1.08789
1.08833
1.08881
1.08931
1.08984
1.09038
1.09093
1.09148
1.09203
1.09258
1.09312
1.09366
1.09418
1.09469
1.0952
1.09568
1.09616
1.09662
1.09706
1.09748
1.09788
1.09824
1.09855
1.09881
1.099
1.09909
1.09907
1.09891
1.09861
1.09814
1.09751
1.09674
1.09584
1.09487
1.09388
1.09293
1.09207
1.09134
1.09077
1.09036
1.0901
1.08994
1.08984
1.08976
1.08964
1.08944
1.08913
1.08868
1.08806
1.08727
1.0863
1.08513
1.08374
1.08216
1.07296
1.0729
1.07284
1.0728
1.07276
1.07274
1.07273
1.07273
1.07274
1.07277
1.07281
1.07286
1.07293
1.07301
1.0731
1.0732
1.07332
1.07345
1.07359
1.07374
1.07391
1.07408
1.07425
1.07444
1.07463
1.07483
1.07504
1.07525
1.07547
1.07569
1.07591
1.07613
1.07636
1.07659
1.07682
1.07705
1.07728
1.07751
1.07775
1.07798
1.07821
1.07844
1.07867
1.0789
1.07913
1.07937
1.0796
1.07983
1.08007
1.08031
1.08055
1.08079
1.08104
1.08129
1.08154
1.0818
1.08206
1.08233
1.0826
1.08288
1.08316
1.08345
1.08375
1.08405
1.08436
1.08468
1.08501
1.08535
1.08569
1.08605
1.08642
1.08679
1.08718
1.08757
1.08797
1.08839
1.08881
1.08923
1.08967
1.09011
1.09055
1.09099
1.09144
1.09188
1.09232
1.09276
1.09318
1.0936
1.09401
1.09441
1.09479
1.09515
1.09549
1.0958
1.0961
1.09636
1.0966
1.09681
1.09699
1.09713
1.09725
1.09733
1.09739
1.09741
1.09741
1.09738
1.09732
1.09724
1.09714
1.09702
1.09689
1.09673
1.09657
1.09639
1.09619
1.09599
1.09578
1.09555
1.09532
1.09509
1.09484
1.09459
1.09433
1.09407
1.09381
1.09354
1.09327
1.093
1.09273
1.09245
1.09218
1.09191
1.09165
1.09138
1.09112
1.09086
1.09061
1.09036
1.09011
1.08986
1.08962
1.08937
1.08914
1.0889
1.08867
1.08843
1.0882
1.08797
1.08775
1.08753
1.08731
1.08709
1.08688
1.08668
1.08649
1.0863
1.08612
1.08595
1.0858
1.08566
1.08553
1.08542
1.08533
1.08526
1.0852
1.08516
1.08513
1.08513
1.08514
1.08516
1.0852
1.08525
1.08531
1.08538
1.08546
1.08554
1.08563
1.08573
1.08582
1.08593
1.08603
1.08614
1.08625
1.08636
1.08648
1.08661
1.08674
1.08688
1.08703
1.08718
1.08734
1.08751
1.08769
1.08787
1.08806
1.08825
1.08845
1.08866
1.08887
1.08909
1.08932
1.08957
1.08983
1.09011
1.09041
1.09074
1.09109
1.09148
1.09189
1.09234
1.09283
1.09334
1.09389
1.09446
1.09505
1.09567
1.09629
1.09692
1.09755
1.09818
1.09879
1.09938
1.09995
1.10049
1.10099
1.10146
1.10189
1.10227
1.10262
1.10293
1.10319
1.10342
1.10361
1.10377
1.1039
1.104
1.10407
1.10412
1.10416
1.10418
1.10419
1.10419
1.10418
1.10416
1.10415
1.10413
1.10411
1.1041
1.10409
1.10409
1.1041
1.10411
1.10414
1.10418
1.10422
1.10429
1.10436
1.10445
1.10456
1.10468
1.10481
1.10496
1.10513
1.10531
1.1055
1.1057
1.10592
1.10614
1.10638
1.10662
1.10688
1.10714
1.10741
1.10769
1.10797
1.10826
1.10856
1.10887
1.10918
1.1095
1.10983
1.11016
1.11051
1.11086
1.11122
1.11159
1.11197
1.11237
1.11277
1.11318
1.1136
1.11403
1.11447
1.11491
1.11536
1.11581
1.11626
1.11671
1.11716
1.11759
1.118
1.1184
1.11876
1.1191
1.11939
1.11962
1.1198
1.11991
1.11994
1.11988
1.11973
1.11946
1.11907
1.11855
1.1179
1.11712
1.11619
1.11512
1.11392
1.11259
1.11115
1.1096
1.10797
1.10627
1.10452
1.10275
1.10099
1.09926
1.09758
1.09598
1.09447
1.09308
1.09182
1.09069
1.08972
1.08889
1.08821
1.08768
1.08729
1.08703
1.08689
1.08686
1.08693
1.0871
1.08734
1.08764
1.08801
1.08842
1.08888
1.08936
1.08987
1.09039
1.09093
1.09147
1.09201
1.09256
1.09309
1.09363
1.09415
1.09466
1.09516
1.09565
1.09612
1.09658
1.09702
1.09744
1.09783
1.09818
1.09849
1.09874
1.09892
1.09899
1.09896
1.09879
1.09846
1.09798
1.09733
1.09654
1.09565
1.09468
1.0937
1.09277
1.09193
1.09123
1.09068
1.09028
1.09001
1.08984
1.08972
1.0896
1.08944
1.0892
1.08885
1.08835
1.08771
1.08689
1.08589
1.0847
1.08335
1.08178
1.07297
1.07291
1.07285
1.07281
1.07277
1.07275
1.07274
1.07274
1.07276
1.07278
1.07282
1.07288
1.07294
1.07302
1.07312
1.07322
1.07334
1.07347
1.07361
1.07376
1.07392
1.07409
1.07427
1.07446
1.07465
1.07485
1.07506
1.07527
1.07549
1.07571
1.07593
1.07616
1.07639
1.07662
1.07685
1.07708
1.07732
1.07755
1.07779
1.07802
1.07825
1.07849
1.07872
1.07896
1.07919
1.07943
1.07966
1.0799
1.08013
1.08037
1.08061
1.08086
1.0811
1.08135
1.08161
1.08186
1.08213
1.08239
1.08267
1.08294
1.08323
1.08352
1.08381
1.08412
1.08443
1.08474
1.08507
1.0854
1.08575
1.0861
1.08646
1.08683
1.08721
1.0876
1.088
1.08841
1.08882
1.08924
1.08967
1.0901
1.09054
1.09098
1.09141
1.09185
1.09229
1.09272
1.09315
1.09356
1.09397
1.09436
1.09474
1.0951
1.09544
1.09576
1.09605
1.09632
1.09656
1.09677
1.09695
1.09709
1.09721
1.0973
1.09735
1.09738
1.09738
1.09735
1.09729
1.09722
1.09712
1.097
1.09687
1.09672
1.09655
1.09637
1.09618
1.09598
1.09577
1.09555
1.09532
1.09509
1.09485
1.0946
1.09434
1.09408
1.09382
1.09356
1.09329
1.09302
1.09275
1.09248
1.09221
1.09194
1.09168
1.09142
1.09116
1.0909
1.09065
1.09039
1.09015
1.0899
1.08966
1.08942
1.08918
1.08895
1.08871
1.08848
1.08825
1.08803
1.0878
1.08758
1.08736
1.08715
1.08694
1.08674
1.08654
1.08636
1.08618
1.08602
1.08586
1.08572
1.0856
1.08549
1.0854
1.08532
1.08526
1.08522
1.0852
1.08519
1.0852
1.08522
1.08526
1.08531
1.08537
1.08543
1.08551
1.08559
1.08568
1.08577
1.08587
1.08596
1.08607
1.08617
1.08628
1.08639
1.08651
1.08663
1.08676
1.0869
1.08704
1.0872
1.08735
1.08752
1.08769
1.08787
1.08806
1.08825
1.08845
1.08866
1.08887
1.08909
1.08933
1.08958
1.08984
1.09012
1.09042
1.09075
1.09111
1.0915
1.09191
1.09236
1.09284
1.09335
1.0939
1.09446
1.09505
1.09566
1.09628
1.0969
1.09752
1.09814
1.09875
1.09933
1.0999
1.10043
1.10093
1.1014
1.10182
1.10221
1.10256
1.10286
1.10313
1.10336
1.10356
1.10372
1.10385
1.10395
1.10403
1.10409
1.10413
1.10415
1.10416
1.10417
1.10416
1.10416
1.10414
1.10413
1.10412
1.10412
1.10411
1.10412
1.10413
1.10415
1.10418
1.10422
1.10427
1.10434
1.10442
1.10451
1.10462
1.10474
1.10487
1.10502
1.10518
1.10536
1.10555
1.10575
1.10596
1.10619
1.10642
1.10667
1.10692
1.10718
1.10745
1.10773
1.10801
1.10831
1.10861
1.10891
1.10923
1.10955
1.10987
1.11021
1.11055
1.11091
1.11127
1.11163
1.11201
1.1124
1.11279
1.1132
1.11361
1.11403
1.11445
1.11488
1.11532
1.11575
1.11618
1.11661
1.11702
1.11742
1.11781
1.11817
1.11849
1.11878
1.11902
1.1192
1.11932
1.11937
1.11933
1.11921
1.11898
1.11865
1.1182
1.11763
1.11694
1.11613
1.11521
1.11416
1.11301
1.11175
1.11041
1.10898
1.10749
1.10595
1.10438
1.10279
1.1012
1.09962
1.09808
1.0966
1.09518
1.09386
1.09264
1.09153
1.09055
1.08969
1.08897
1.08839
1.08794
1.08761
1.08741
1.08732
1.08733
1.08743
1.08762
1.08788
1.0882
1.08857
1.08899
1.08945
1.08993
1.09043
1.09095
1.09148
1.09201
1.09255
1.09308
1.0936
1.09412
1.09463
1.09513
1.09561
1.09608
1.09654
1.09698
1.09739
1.09778
1.09813
1.09843
1.09868
1.09884
1.09891
1.09885
1.09866
1.09832
1.09782
1.09716
1.09636
1.09546
1.0945
1.09353
1.09261
1.09179
1.0911
1.09056
1.09017
1.0899
1.08971
1.08956
1.08941
1.08921
1.08893
1.08853
1.08799
1.0873
1.08645
1.08543
1.08422
1.08283
1.08124
1.07299
1.07292
1.07287
1.07282
1.07279
1.07277
1.07276
1.07276
1.07278
1.0728
1.07284
1.0729
1.07296
1.07304
1.07313
1.07324
1.07335
1.07348
1.07362
1.07377
1.07394
1.07411
1.07429
1.07447
1.07467
1.07487
1.07508
1.07529
1.07551
1.07573
1.07596
1.07619
1.07642
1.07665
1.07689
1.07712
1.07736
1.0776
1.07783
1.07807
1.07831
1.07855
1.07878
1.07902
1.07926
1.07949
1.07973
1.07997
1.08021
1.08045
1.08069
1.08094
1.08118
1.08143
1.08169
1.08194
1.08221
1.08247
1.08274
1.08302
1.0833
1.08359
1.08389
1.08419
1.0845
1.08481
1.08514
1.08547
1.08581
1.08616
1.08652
1.08688
1.08726
1.08764
1.08803
1.08843
1.08884
1.08925
1.08967
1.0901
1.09053
1.09096
1.09139
1.09182
1.09226
1.09269
1.09311
1.09352
1.09393
1.09432
1.0947
1.09507
1.09541
1.09573
1.09602
1.09629
1.09654
1.09675
1.09693
1.09708
1.0972
1.09729
1.09734
1.09737
1.09737
1.09734
1.09729
1.09721
1.09712
1.097
1.09687
1.09672
1.09655
1.09638
1.09619
1.09599
1.09578
1.09556
1.09534
1.0951
1.09486
1.09462
1.09436
1.09411
1.09385
1.09358
1.09332
1.09305
1.09278
1.09252
1.09225
1.09198
1.09172
1.09146
1.0912
1.09095
1.09069
1.09044
1.0902
1.08995
1.08971
1.08948
1.08924
1.08901
1.08877
1.08854
1.08831
1.08809
1.08787
1.08765
1.08743
1.08722
1.08701
1.08681
1.08661
1.08643
1.08625
1.08609
1.08594
1.0858
1.08568
1.08557
1.08548
1.0854
1.08534
1.0853
1.08528
1.08527
1.08528
1.0853
1.08533
1.08538
1.08544
1.0855
1.08557
1.08565
1.08574
1.08583
1.08592
1.08601
1.08611
1.08622
1.08632
1.08643
1.08655
1.08667
1.08679
1.08693
1.08707
1.08721
1.08737
1.08753
1.0877
1.08788
1.08806
1.08825
1.08845
1.08865
1.08887
1.08909
1.08933
1.08958
1.08985
1.09013
1.09044
1.09077
1.09113
1.09152
1.09193
1.09238
1.09286
1.09337
1.09391
1.09447
1.09506
1.09566
1.09627
1.09689
1.0975
1.09811
1.09871
1.09929
1.09985
1.10037
1.10087
1.10133
1.10176
1.10214
1.10249
1.1028
1.10306
1.1033
1.10349
1.10366
1.10379
1.1039
1.10398
1.10404
1.10409
1.10412
1.10414
1.10414
1.10415
1.10414
1.10414
1.10414
1.10413
1.10413
1.10414
1.10415
1.10417
1.10419
1.10423
1.10428
1.10433
1.1044
1.10448
1.10458
1.10469
1.10481
1.10494
1.10509
1.10526
1.10543
1.10562
1.10582
1.10603
1.10625
1.10649
1.10673
1.10698
1.10724
1.10751
1.10779
1.10808
1.10837
1.10867
1.10898
1.10929
1.10961
1.10994
1.11028
1.11062
1.11097
1.11133
1.11169
1.11207
1.11245
1.11283
1.11323
1.11363
1.11403
1.11444
1.11485
1.11527
1.11567
1.11608
1.11647
1.11685
1.11722
1.11756
1.11787
1.11814
1.11837
1.11854
1.11865
1.1187
1.11867
1.11855
1.11834
1.11803
1.11762
1.1171
1.11648
1.11575
1.11493
1.114
1.11299
1.1119
1.11073
1.10951
1.10823
1.10691
1.10556
1.10418
1.10279
1.10139
1.1
1.09863
1.0973
1.096
1.09477
1.0936
1.09253
1.09155
1.09067
1.08991
1.08928
1.08876
1.08836
1.08808
1.08791
1.08784
1.08788
1.088
1.08819
1.08846
1.08879
1.08916
1.08958
1.09003
1.09051
1.091
1.09151
1.09203
1.09255
1.09307
1.09359
1.0941
1.0946
1.0951
1.09558
1.09605
1.0965
1.09694
1.09735
1.09774
1.09808
1.09838
1.09861
1.09877
1.09882
1.09875
1.09855
1.09819
1.09767
1.09699
1.09619
1.09528
1.09432
1.09336
1.09246
1.09165
1.09098
1.09045
1.09005
1.08977
1.08956
1.08938
1.08919
1.08894
1.08861
1.08816
1.08758
1.08684
1.08594
1.08488
1.08365
1.08223
1.08062
1.07301
1.07294
1.07289
1.07284
1.07281
1.07279
1.07278
1.07278
1.0728
1.07283
1.07287
1.07292
1.07298
1.07306
1.07315
1.07326
1.07338
1.0735
1.07364
1.07379
1.07396
1.07413
1.07431
1.07449
1.07469
1.07489
1.0751
1.07532
1.07554
1.07576
1.07599
1.07622
1.07646
1.07669
1.07693
1.07717
1.07741
1.07765
1.07789
1.07813
1.07837
1.07861
1.07885
1.07909
1.07933
1.07957
1.07981
1.08005
1.08029
1.08054
1.08078
1.08103
1.08127
1.08152
1.08178
1.08204
1.0823
1.08256
1.08284
1.08311
1.08339
1.08368
1.08398
1.08428
1.08458
1.0849
1.08522
1.08555
1.08588
1.08623
1.08658
1.08694
1.08731
1.08768
1.08807
1.08846
1.08886
1.08926
1.08967
1.09009
1.09051
1.09093
1.09136
1.09179
1.09222
1.09264
1.09306
1.09348
1.09389
1.09428
1.09466
1.09503
1.09538
1.0957
1.096
1.09628
1.09652
1.09674
1.09692
1.09708
1.0972
1.09729
1.09734
1.09737
1.09737
1.09734
1.09729
1.09722
1.09712
1.097
1.09687
1.09672
1.09656
1.09639
1.0962
1.096
1.0958
1.09558
1.09536
1.09513
1.09489
1.09464
1.0944
1.09414
1.09388
1.09362
1.09336
1.09309
1.09283
1.09256
1.0923
1.09204
1.09177
1.09151
1.09126
1.091
1.09075
1.0905
1.09026
1.09002
1.08978
1.08954
1.08931
1.08907
1.08884
1.08861
1.08839
1.08816
1.08794
1.08772
1.0875
1.08729
1.08708
1.08688
1.08669
1.08651
1.08634
1.08617
1.08602
1.08589
1.08576
1.08566
1.08557
1.08549
1.08544
1.0854
1.08537
1.08536
1.08537
1.08539
1.08542
1.08547
1.08552
1.08558
1.08565
1.08573
1.08581
1.08589
1.08598
1.08608
1.08617
1.08627
1.08637
1.08648
1.08659
1.08671
1.08683
1.08696
1.08709
1.08723
1.08738
1.08754
1.08771
1.08788
1.08806
1.08825
1.08845
1.08865
1.08887
1.08909
1.08933
1.08958
1.08985
1.09014
1.09045
1.09079
1.09115
1.09154
1.09196
1.09241
1.09289
1.0934
1.09393
1.09449
1.09507
1.09566
1.09627
1.09688
1.09748
1.09809
1.09868
1.09925
1.0998
1.10032
1.10081
1.10127
1.10169
1.10207
1.10242
1.10272
1.10299
1.10322
1.10342
1.10359
1.10373
1.10384
1.10392
1.10399
1.10404
1.10408
1.1041
1.10412
1.10413
1.10413
1.10414
1.10414
1.10414
1.10415
1.10417
1.10418
1.10421
1.10424
1.10429
1.10434
1.1044
1.10448
1.10456
1.10466
1.10477
1.1049
1.10503
1.10518
1.10534
1.10552
1.1057
1.1059
1.10611
1.10633
1.10656
1.10681
1.10706
1.10732
1.10759
1.10787
1.10815
1.10845
1.10875
1.10906
1.10937
1.10969
1.11002
1.11036
1.1107
1.11105
1.1114
1.11177
1.11213
1.11251
1.11288
1.11326
1.11365
1.11404
1.11443
1.11481
1.1152
1.11558
1.11595
1.1163
1.11664
1.11695
1.11724
1.11748
1.11769
1.11784
1.11794
1.11797
1.11792
1.1178
1.11758
1.11728
1.11689
1.11639
1.11581
1.11514
1.11438
1.11354
1.11263
1.11167
1.11065
1.1096
1.1085
1.10739
1.10625
1.1051
1.10393
1.10276
1.10158
1.10039
1.09921
1.09803
1.09688
1.09575
1.09467
1.09364
1.09268
1.09179
1.091
1.09031
1.08973
1.08925
1.08889
1.08863
1.08848
1.08843
1.08847
1.0886
1.0888
1.08907
1.08939
1.08976
1.09017
1.09062
1.09108
1.09157
1.09207
1.09257
1.09308
1.09359
1.09409
1.09459
1.09508
1.09556
1.09602
1.09647
1.09691
1.09732
1.0977
1.09804
1.09833
1.09855
1.09869
1.09873
1.09865
1.09843
1.09805
1.09752
1.09683
1.09601
1.0951
1.09415
1.09319
1.0923
1.09151
1.09085
1.09032
1.08992
1.08962
1.08938
1.08917
1.08893
1.08864
1.08825
1.08775
1.08711
1.08632
1.08538
1.08428
1.08301
1.08157
1.07996
1.07303
1.07297
1.07291
1.07287
1.07284
1.07282
1.07281
1.07281
1.07283
1.07285
1.07289
1.07295
1.07301
1.07309
1.07318
1.07329
1.0734
1.07353
1.07367
1.07382
1.07398
1.07415
1.07433
1.07452
1.07472
1.07492
1.07513
1.07535
1.07557
1.0758
1.07603
1.07626
1.0765
1.07674
1.07698
1.07722
1.07746
1.07771
1.07795
1.0782
1.07844
1.07868
1.07893
1.07917
1.07941
1.07966
1.0799
1.08014
1.08039
1.08063
1.08088
1.08112
1.08137
1.08162
1.08188
1.08214
1.0824
1.08266
1.08294
1.08321
1.08349
1.08378
1.08407
1.08437
1.08467
1.08499
1.0853
1.08563
1.08596
1.0863
1.08664
1.087
1.08736
1.08773
1.0881
1.08848
1.08887
1.08927
1.08967
1.09007
1.09049
1.0909
1.09133
1.09175
1.09217
1.0926
1.09302
1.09343
1.09384
1.09424
1.09462
1.09499
1.09535
1.09568
1.09598
1.09626
1.09651
1.09674
1.09692
1.09708
1.0972
1.0973
1.09735
1.09738
1.09738
1.09736
1.09731
1.09723
1.09713
1.09702
1.09689
1.09674
1.09658
1.09641
1.09622
1.09603
1.09582
1.09561
1.09539
1.09516
1.09492
1.09468
1.09443
1.09418
1.09393
1.09367
1.09341
1.09314
1.09288
1.09262
1.09235
1.09209
1.09183
1.09158
1.09132
1.09107
1.09082
1.09057
1.09033
1.09009
1.08985
1.08961
1.08938
1.08915
1.08892
1.08869
1.08846
1.08824
1.08802
1.0878
1.08758
1.08737
1.08717
1.08697
1.08678
1.0866
1.08643
1.08627
1.08612
1.08598
1.08586
1.08576
1.08567
1.0856
1.08554
1.0855
1.08548
1.08547
1.08548
1.08549
1.08552
1.08557
1.08562
1.08568
1.08574
1.08581
1.08589
1.08597
1.08606
1.08615
1.08624
1.08633
1.08643
1.08653
1.08664
1.08675
1.08687
1.08699
1.08712
1.08726
1.08741
1.08756
1.08772
1.08789
1.08807
1.08825
1.08845
1.08865
1.08886
1.08909
1.08933
1.08959
1.08986
1.09015
1.09047
1.09081
1.09117
1.09157
1.09199
1.09244
1.09292
1.09342
1.09396
1.09451
1.09508
1.09567
1.09627
1.09687
1.09747
1.09806
1.09865
1.09921
1.09975
1.10027
1.10075
1.1012
1.10162
1.102
1.10234
1.10265
1.10291
1.10315
1.10335
1.10352
1.10366
1.10377
1.10386
1.10394
1.10399
1.10404
1.10407
1.10409
1.10411
1.10412
1.10413
1.10414
1.10416
1.10418
1.1042
1.10423
1.10426
1.1043
1.10436
1.10442
1.10449
1.10457
1.10466
1.10476
1.10487
1.105
1.10514
1.10529
1.10545
1.10562
1.10581
1.106
1.10621
1.10643
1.10666
1.1069
1.10715
1.10741
1.10768
1.10796
1.10825
1.10854
1.10885
1.10916
1.10947
1.10979
1.11012
1.11046
1.1108
1.11114
1.11149
1.11185
1.11221
1.11257
1.11294
1.1133
1.11367
1.11403
1.1144
1.11476
1.11511
1.11545
1.11577
1.11608
1.11636
1.11661
1.11683
1.117
1.11713
1.11719
1.11719
1.11713
1.11698
1.11675
1.11644
1.11604
1.11556
1.11499
1.11435
1.11363
1.11286
1.11203
1.11116
1.11026
1.10933
1.1084
1.10745
1.10651
1.10556
1.10461
1.10366
1.1027
1.10174
1.10076
1.09977
1.09878
1.09778
1.09678
1.09579
1.09483
1.0939
1.09302
1.09221
1.09148
1.09083
1.09028
1.08983
1.08949
1.08925
1.0891
1.08906
1.0891
1.08923
1.08942
1.08969
1.09
1.09037
1.09077
1.0912
1.09166
1.09213
1.09261
1.0931
1.0936
1.09409
1.09458
1.09506
1.09554
1.096
1.09645
1.09688
1.09728
1.09766
1.09799
1.09828
1.09849
1.09862
1.09865
1.09855
1.09831
1.09792
1.09737
1.09667
1.09584
1.09493
1.09397
1.09303
1.09215
1.09137
1.09071
1.09018
1.08977
1.08945
1.08918
1.08893
1.08864
1.08829
1.08785
1.08728
1.08659
1.08575
1.08476
1.08362
1.08232
1.08086
1.07925
1.07306
1.073
1.07295
1.07291
1.07288
1.07286
1.07285
1.07285
1.07286
1.07289
1.07293
1.07298
1.07305
1.07313
1.07322
1.07332
1.07343
1.07356
1.0737
1.07385
1.07401
1.07418
1.07436
1.07455
1.07475
1.07496
1.07517
1.07539
1.07561
1.07584
1.07607
1.07631
1.07655
1.07679
1.07703
1.07728
1.07752
1.07777
1.07802
1.07827
1.07851
1.07876
1.07901
1.07925
1.0795
1.07975
1.07999
1.08024
1.08048
1.08073
1.08098
1.08123
1.08148
1.08173
1.08198
1.08224
1.0825
1.08277
1.08304
1.08332
1.0836
1.08388
1.08417
1.08447
1.08477
1.08508
1.08539
1.08571
1.08604
1.08637
1.08671
1.08706
1.08741
1.08776
1.08813
1.0885
1.08888
1.08926
1.08965
1.09005
1.09046
1.09087
1.09128
1.0917
1.09212
1.09254
1.09296
1.09337
1.09378
1.09419
1.09458
1.09495
1.09531
1.09565
1.09596
1.09625
1.09651
1.09673
1.09693
1.09709
1.09721
1.09731
1.09737
1.0974
1.0974
1.09737
1.09732
1.09725
1.09715
1.09704
1.09691
1.09676
1.0966
1.09643
1.09625
1.09605
1.09585
1.09564
1.09542
1.09519
1.09496
1.09472
1.09448
1.09423
1.09398
1.09372
1.09346
1.0932
1.09294
1.09268
1.09242
1.09216
1.0919
1.09164
1.09139
1.09114
1.09089
1.09065
1.0904
1.09016
1.08993
1.08969
1.08946
1.08923
1.089
1.08877
1.08855
1.08832
1.0881
1.08789
1.08767
1.08746
1.08726
1.08706
1.08687
1.08669
1.08652
1.08637
1.08622
1.08609
1.08597
1.08587
1.08578
1.08571
1.08566
1.08562
1.0856
1.08559
1.08559
1.08561
1.08564
1.08568
1.08573
1.08578
1.08584
1.08591
1.08599
1.08607
1.08615
1.08623
1.08632
1.08641
1.0865
1.0866
1.0867
1.08681
1.08692
1.08704
1.08716
1.0873
1.08744
1.08758
1.08774
1.0879
1.08808
1.08826
1.08845
1.08865
1.08887
1.08909
1.08933
1.08959
1.08987
1.09016
1.09048
1.09083
1.0912
1.09159
1.09202
1.09247
1.09295
1.09346
1.09399
1.09454
1.0951
1.09569
1.09628
1.09687
1.09746
1.09805
1.09862
1.09917
1.09971
1.10022
1.10069
1.10114
1.10155
1.10192
1.10226
1.10257
1.10283
1.10307
1.10327
1.10344
1.10358
1.1037
1.1038
1.10388
1.10394
1.10399
1.10403
1.10406
1.10409
1.10411
1.10413
1.10415
1.10418
1.1042
1.10424
1.10427
1.10432
1.10437
1.10443
1.1045
1.10458
1.10466
1.10476
1.10487
1.10499
1.10511
1.10525
1.1054
1.10556
1.10574
1.10592
1.10612
1.10633
1.10654
1.10677
1.10701
1.10726
1.10752
1.10779
1.10807
1.10836
1.10866
1.10896
1.10927
1.10959
1.10991
1.11024
1.11057
1.11091
1.11125
1.11159
1.11194
1.11229
1.11264
1.11299
1.11333
1.11368
1.11402
1.11435
1.11467
1.11498
1.11527
1.11555
1.11579
1.11601
1.11619
1.11632
1.11641
1.11644
1.1164
1.1163
1.11612
1.11587
1.11554
1.11512
1.11463
1.11407
1.11344
1.11275
1.11201
1.11124
1.11044
1.10962
1.1088
1.10799
1.10719
1.1064
1.10562
1.10486
1.10411
1.10337
1.10263
1.10187
1.1011
1.10031
1.0995
1.09866
1.0978
1.09692
1.09605
1.09517
1.09432
1.09351
1.09275
1.09205
1.09144
1.09091
1.09047
1.09013
1.08989
1.08975
1.08971
1.08974
1.08986
1.09005
1.0903
1.09061
1.09096
1.09135
1.09177
1.09222
1.09268
1.09315
1.09363
1.09411
1.09459
1.09506
1.09553
1.09599
1.09643
1.09685
1.09726
1.09763
1.09795
1.09823
1.09844
1.09855
1.09857
1.09845
1.0982
1.09779
1.09722
1.09651
1.09567
1.09475
1.0938
1.09286
1.09199
1.09122
1.09056
1.09003
1.08961
1.08926
1.08896
1.08865
1.08831
1.0879
1.0874
1.08677
1.08602
1.08513
1.0841
1.08292
1.08159
1.08013
1.07853
1.0731
1.07304
1.07299
1.07295
1.07292
1.0729
1.07289
1.0729
1.07291
1.07294
1.07298
1.07303
1.07309
1.07317
1.07326
1.07336
1.07348
1.07361
1.07374
1.07389
1.07405
1.07423
1.07441
1.0746
1.07479
1.075
1.07521
1.07543
1.07566
1.07589
1.07612
1.07636
1.0766
1.07685
1.07709
1.07734
1.07759
1.07784
1.07809
1.07834
1.07859
1.07884
1.07909
1.07934
1.07959
1.07984
1.08009
1.08033
1.08058
1.08083
1.08108
1.08133
1.08158
1.08183
1.08209
1.08235
1.08261
1.08288
1.08315
1.08342
1.0837
1.08399
1.08428
1.08457
1.08487
1.08517
1.08548
1.0858
1.08612
1.08644
1.08677
1.08711
1.08745
1.0878
1.08815
1.08851
1.08888
1.08925
1.08964
1.09002
1.09042
1.09082
1.09123
1.09164
1.09206
1.09247
1.09289
1.09331
1.09372
1.09413
1.09452
1.09491
1.09527
1.09562
1.09594
1.09623
1.09649
1.09673
1.09693
1.09709
1.09722
1.09732
1.09738
1.09741
1.09741
1.09739
1.09734
1.09726
1.09717
1.09705
1.09693
1.09678
1.09662
1.09645
1.09627
1.09608
1.09588
1.09568
1.09546
1.09524
1.09501
1.09477
1.09453
1.09428
1.09403
1.09378
1.09352
1.09326
1.093
1.09274
1.09248
1.09223
1.09197
1.09171
1.09146
1.09121
1.09097
1.09072
1.09048
1.09024
1.09001
1.08977
1.08954
1.08931
1.08908
1.08886
1.08863
1.08841
1.08819
1.08798
1.08776
1.08756
1.08735
1.08716
1.08697
1.08679
1.08663
1.08647
1.08633
1.0862
1.08609
1.08599
1.08591
1.08584
1.08579
1.08575
1.08573
1.08572
1.08572
1.08574
1.08576
1.0858
1.08585
1.0859
1.08596
1.08602
1.08609
1.08617
1.08624
1.08633
1.08641
1.0865
1.08658
1.08668
1.08678
1.08688
1.08698
1.0871
1.08721
1.08734
1.08747
1.08761
1.08776
1.08792
1.08809
1.08827
1.08846
1.08866
1.08887
1.0891
1.08934
1.0896
1.08988
1.09018
1.0905
1.09085
1.09122
1.09162
1.09205
1.09251
1.09299
1.09349
1.09402
1.09457
1.09513
1.0957
1.09629
1.09687
1.09746
1.09803
1.0986
1.09914
1.09967
1.10017
1.10064
1.10107
1.10148
1.10185
1.10218
1.10248
1.10275
1.10298
1.10319
1.10336
1.10351
1.10363
1.10373
1.10382
1.10389
1.10394
1.10399
1.10403
1.10407
1.1041
1.10413
1.10416
1.1042
1.10424
1.10428
1.10433
1.10438
1.10445
1.10451
1.10459
1.10468
1.10477
1.10487
1.10499
1.10511
1.10524
1.10538
1.10553
1.1057
1.10587
1.10605
1.10625
1.10646
1.10667
1.1069
1.10714
1.10739
1.10765
1.10792
1.1082
1.10849
1.10879
1.10909
1.1094
1.10972
1.11004
1.11036
1.11069
1.11103
1.11136
1.1117
1.11204
1.11237
1.1127
1.11303
1.11336
1.11367
1.11398
1.11427
1.11455
1.11481
1.11504
1.11525
1.11543
1.11556
1.11565
1.1157
1.11568
1.1156
1.11546
1.11524
1.11495
1.11459
1.11415
1.11365
1.11308
1.11245
1.11177
1.11106
1.11032
1.10957
1.10882
1.10808
1.10736
1.10667
1.106
1.10537
1.10476
1.10418
1.10363
1.10308
1.10253
1.10198
1.10141
1.1008
1.10017
1.0995
1.09879
1.09804
1.09726
1.09646
1.09566
1.09486
1.09409
1.09336
1.09269
1.09209
1.09157
1.09114
1.0908
1.09056
1.09042
1.09036
1.09039
1.0905
1.09068
1.09092
1.09122
1.09156
1.09193
1.09234
1.09277
1.09322
1.09368
1.09414
1.09461
1.09507
1.09553
1.09598
1.09642
1.09684
1.09723
1.0976
1.09792
1.09818
1.09838
1.09849
1.09848
1.09835
1.09808
1.09765
1.09707
1.09634
1.0955
1.09458
1.09363
1.0927
1.09183
1.09106
1.0904
1.08986
1.08942
1.08904
1.0887
1.08834
1.08794
1.08747
1.0869
1.08622
1.08541
1.08447
1.08339
1.08218
1.08084
1.07937
1.07779
1.07315
1.0731
1.07305
1.07301
1.07298
1.07296
1.07295
1.07295
1.07297
1.073
1.07304
1.07309
1.07315
1.07323
1.07332
1.07342
1.07353
1.07366
1.0738
1.07395
1.07411
1.07428
1.07446
1.07465
1.07485
1.07505
1.07526
1.07548
1.07571
1.07594
1.07618
1.07642
1.07666
1.07691
1.07716
1.07741
1.07766
1.07791
1.07816
1.07842
1.07867
1.07892
1.07917
1.07943
1.07968
1.07993
1.08018
1.08043
1.08068
1.08093
1.08118
1.08143
1.08168
1.08194
1.0822
1.08246
1.08272
1.08299
1.08326
1.08353
1.08381
1.08409
1.08438
1.08467
1.08496
1.08526
1.08557
1.08588
1.08619
1.0865
1.08683
1.08715
1.08749
1.08782
1.08817
1.08852
1.08887
1.08923
1.08961
1.08998
1.09037
1.09076
1.09116
1.09157
1.09198
1.0924
1.09282
1.09323
1.09365
1.09406
1.09446
1.09485
1.09522
1.09557
1.0959
1.0962
1.09648
1.09671
1.09692
1.09709
1.09722
1.09732
1.09739
1.09742
1.09742
1.0974
1.09735
1.09727
1.09718
1.09707
1.09694
1.0968
1.09664
1.09648
1.0963
1.09611
1.09592
1.09571
1.0955
1.09528
1.09505
1.09482
1.09458
1.09434
1.09409
1.09384
1.09358
1.09333
1.09307
1.09281
1.09255
1.0923
1.09204
1.09179
1.09154
1.09129
1.09104
1.0908
1.09056
1.09032
1.09009
1.08986
1.08963
1.0894
1.08917
1.08894
1.08872
1.0885
1.08828
1.08807
1.08786
1.08765
1.08745
1.08726
1.08707
1.0869
1.08674
1.08659
1.08645
1.08632
1.08621
1.08612
1.08604
1.08597
1.08592
1.08589
1.08586
1.08585
1.08586
1.08587
1.0859
1.08593
1.08598
1.08603
1.08608
1.08614
1.08621