# vtk DataFile Version 2.0
LBE two cylinders
ASCII
DATASET STRUCTURED_POINTS
DIMENSIONS 400 100 1
ASPECT_RATIO 1 1 1
ORIGIN 0 0 0
POINT_DATA 40000
SCALARS rho double 1
LOOKUP_TABLE default
1.0902
1.09023
1.09027
1.09031
1.09036
1.09041
1.09046
1.09051
1.09056
1.09061
1.09066
1.0907
1.09074
1.09078
1.09081
1.09083
1.09085
1.09087
1.09088
1.09089
1.0909
1.0909
1.09089
1.09089
1.09088
1.09088
1.09087
1.09086
1.09085
1.09084
1.09084
1.09083
1.09083
1.09083
1.09083
1.09084
1.09085
1.09086
1.09088
1.09089
1.09092
1.09094
1.09097
1.091
1.09103
1.09107
1.09111
1.09115
1.0912
1.09125
1.0913
1.09135
1.09141
1.09147
1.09154
1.09161
1.09169
1.09177
1.09186
1.09196
1.09206
1.09217
1.09229
1.09242
1.09256
1.09271
1.09287
1.09305
1.09324
1.09344
1.09366
1.0939
1.09415
1.09442
1.09471
1.09501
1.09533
1.09567
1.09603
1.0964
1.09678
1.09718
1.09759
1.09801
1.09844
1.09888
1.09931
1.09975
1.10018
1.10061
1.10102
1.10143
1.10181
1.10218
1.10252
1.10284
1.10312
1.10338
1.10361
1.10381
1.10398
1.10412
1.10423
1.10431
1.10437
1.1044
1.1044
1.10439
1.10435
1.1043
1.10423
1.10415
1.10406
1.10395
1.10383
1.10371
1.10357
1.10343
1.10328
1.10312
1.10296
1.10279
1.10262
1.10244
1.10226
1.10207
1.10188
1.10169
1.1015
1.10131
1.10112
1.10092
1.10073
1.10054
1.10035
1.10017
1.09999
1.09981
1.09964
1.09948
1.09932
1.09917
1.09903
1.0989
1.09878
1.09866
1.09856
1.09847
1.09838
1.09831
1.09825
1.09819
1.09814
1.09811
1.09808
1.09805
1.09804
1.09803
1.09803
1.09803
1.09803
1.09804
1.09806
1.09807
1.09809
1.09811
1.09814
1.09816
1.09818
1.09821
1.09823
1.09826
1.09828
1.09831
1.09833
1.09835
1.09837
1.09839
1.0984
1.09842
1.09843
1.09843
1.09844
1.09844
1.09843
1.09843
1.09842
1.09841
1.0984
1.09838
1.09836
1.09835
1.09833
1.09831
1.0983
1.09828
1.09827
1.09827
1.09827
1.09827
1.09829
1.09831
1.09833
1.09837
1.09841
1.09846
1.09852
1.09859
1.09866
1.09873
1.09881
1.0989
1.09899
1.09908
1.09916
1.09925
1.09934
1.09943
1.09951
1.09958
1.09966
1.09972
1.09979
1.09984
1.0999
1.09994
1.09999
1.10002
1.10006
1.10009
1.10012
1.10015
1.10018
1.10021
1.10025
1.10028
1.10032
1.10036
1.10041
1.10046
1.10052
1.10059
1.10066
1.10075
1.10084
1.10094
1.10105
1.10117
1.10129
1.10143
1.10158
1.10173
1.1019
1.10207
1.10225
1.10244
1.10264
1.10285
1.10306
1.10329
1.10353
1.10378
1.10405
1.10432
1.10462
1.10493
1.10525
1.1056
1.10596
1.10635
1.10676
1.10718
1.10763
1.1081
1.10858
1.10908
1.1096
1.11012
1.11065
1.11118
1.11171
1.11223
1.11273
1.11321
1.11366
1.11408
1.11445
1.11476
1.11502
1.11521
1.11532
1.11536
1.1153
1.11516
1.11492
1.11457
1.11413
1.11358
1.11293
1.11218
1.11132
1.11036
1.10931
1.10816
1.10691
1.10557
1.10415
1.10264
1.10104
1.09937
1.09763
1.09583
1.09398
1.09209
1.09018
1.08827
1.08637
1.0845
1.08269
1.08093
1.07924
1.07764
1.07612
1.07469
1.07336
1.07211
1.07095
1.06987
1.06889
1.06799
1.06718
1.06646
1.06583
1.0653
1.06485
1.06449
1.0642
1.06399
1.06384
1.06374
1.06368
1.06366
1.06367
1.0637
1.06375
1.06381
1.0639
1.06399
1.06409
1.06421
1.06434
1.06447
1.06461
1.06476
1.06492
1.06508
1.06525
1.06543
1.0656
1.06579
1.06598
1.06617
1.06636
1.06655
1.06675
1.06694
1.06714
1.06733
1.06752
1.0677
1.06789
1.06807
1.06825
1.06844
1.06863
1.06883
1.06904
1.06927
1.06952
1.06981
1.07012
1.07046
1.07084
1.07126
1.07171
1.07218
1.07269
1.07322
1.07377
1.07435
1.07493
1.07553
1.07615
1.07676
1.07739
1.07801
1.07864
1.07926
1.07988
1.08047
1.09021
1.09024
1.09027
1.09032
1.09036
1.09041
1.09046
1.09051
1.09056
1.09061
1.09065
1.09069
1.09073
1.09076
1.09079
1.09082
1.09084
1.09086
1.09087
1.09088
1.09088
1.09088
1.09088
1.09088
1.09087
1.09086
1.09086
1.09085
1.09084
1.09083
1.09083
1.09082
1.09082
1.09082
1.09083
1.09083
1.09084
1.09085
1.09087
1.09089
1.09091
1.09093
1.09096
1.09099
1.09102
1.09106
1.0911
1.09114
1.09118
1.09123
1.09128
1.09134
1.0914
1.09146
1.09153
1.0916
1.09168
1.09177
1.09186
1.09195
1.09206
1.09217
1.09229
1.09242
1.09257
1.09272
1.09288
1.09306
1.09326
1.09346
1.09368
1.09392
1.09417
1.09444
1.09473
1.09503
1.09535
1.09568
1.09603
1.0964
1.09678
1.09717
1.09757
1.09799
1.09841
1.09883
1.09926
1.09969
1.10012
1.10053
1.10094
1.10134
1.10171
1.10207
1.10241
1.10272
1.10301
1.10327
1.10349
1.10369
1.10386
1.104
1.10411
1.1042
1.10426
1.10429
1.1043
1.10429
1.10426
1.10421
1.10415
1.10407
1.10398
1.10388
1.10377
1.10364
1.10351
1.10337
1.10322
1.10307
1.10291
1.10274
1.10257
1.1024
1.10222
1.10204
1.10185
1.10166
1.10147
1.10128
1.10109
1.1009
1.10071
1.10052
1.10034
1.10016
1.09998
1.0998
1.09963
1.09947
1.09932
1.09917
1.09903
1.0989
1.09878
1.09867
1.09856
1.09847
1.09839
1.09831
1.09825
1.09819
1.09815
1.09811
1.09808
1.09806
1.09804
1.09803
1.09803
1.09803
1.09803
1.09804
1.09805
1.09807
1.09809
1.09811
1.09813
1.09815
1.09818
1.0982
1.09823
1.09825
1.09828
1.0983
1.09833
1.09835
1.09837
1.09838
1.0984
1.09841
1.09842
1.09843
1.09843
1.09844
1.09843
1.09843
1.09842
1.09841
1.0984
1.09838
1.09837
1.09835
1.09834
1.09832
1.09831
1.09829
1.09829
1.09828
1.09828
1.09829
1.0983
1.09832
1.09835
1.09838
1.09842
1.09847
1.09853
1.09859
1.09866
1.09873
1.09881
1.0989
1.09898
1.09907
1.09916
1.09925
1.09933
1.09942
1.0995
1.09957
1.09965
1.09971
1.09978
1.09983
1.09989
1.09994
1.09998
1.10002
1.10006
1.10009
1.10012
1.10016
1.10019
1.10022
1.10026
1.10029
1.10033
1.10038
1.10043
1.10048
1.10054
1.10061
1.10069
1.10077
1.10086
1.10096
1.10107
1.10119
1.10132
1.10146
1.1016
1.10176
1.10192
1.10209
1.10227
1.10246
1.10266
1.10286
1.10308
1.1033
1.10354
1.10378
1.10404
1.10432
1.1046
1.10491
1.10522
1.10556
1.10592
1.10629
1.10669
1.1071
1.10753
1.10798
1.10845
1.10893
1.10942
1.10993
1.11043
1.11094
1.11144
1.11194
1.11242
1.11288
1.1133
1.1137
1.11405
1.11435
1.11459
1.11477
1.11488
1.11492
1.11487
1.11473
1.1145
1.11418
1.11377
1.11325
1.11264
1.11192
1.11111
1.1102
1.10919
1.10809
1.10689
1.1056
1.10421
1.10274
1.10118
1.09954
1.09782
1.09604
1.09421
1.09233
1.09044
1.08853
1.08664
1.08477
1.08295
1.08119
1.0795
1.07788
1.07636
1.07492
1.07356
1.0723
1.07113
1.07004
1.06904
1.06814
1.06732
1.0666
1.06596
1.06542
1.06497
1.0646
1.06431
1.06409
1.06393
1.06382
1.06375
1.06372
1.06372
1.06375
1.0638
1.06386
1.06394
1.06403
1.06413
1.06424
1.06437
1.0645
1.06464
1.06479
1.06495
1.06511
1.06528
1.06545
1.06563
1.06581
1.066
1.06619
1.06638
1.06657
1.06676
1.06695
1.06715
1.06733
1.06752
1.06771
1.06789
1.06807
1.06825
1.06844
1.06863
1.06883
1.06904
1.06928
1.06953
1.06982
1.07013
1.07048
1.07086
1.07128
1.07172
1.0722
1.0727
1.07323
1.07378
1.07435
1.07493
1.07553
1.07613
1.07675
1.07737
1.07799
1.07861
1.07923
1.07984
1.08044
1.09021
1.09024
1.09028
1.09032
1.09036
1.09041
1.09046
1.0905
1.09055
1.09059
1.09064
1.09068
1.09071
1.09074
1.09077
1.0908
1.09082
1.09083
1.09085
1.09085
1.09086
1.09086
1.09086
1.09085
1.09085
1.09084
1.09083
1.09083
1.09082
1.09081
1.09081
1.09081
1.0908
1.0908
1.09081
1.09081
1.09082
1.09083
1.09085
1.09086
1.09088
1.0909
1.09093
1.09096
1.09099
1.09102
1.09106
1.0911
1.09114
1.09119
1.09124
1.0913
1.09135
1.09142
1.09149
1.09156
1.09164
1.09173
1.09182
1.09192
1.09203
1.09214
1.09227
1.0924
1.09255
1.09271
1.09287
1.09306
1.09325
1.09346
1.09368
1.09392
1.09417
1.09444
1.09473
1.09503
1.09535
1.09568
1.09603
1.09639
1.09677
1.09715
1.09755
1.09796
1.09837
1.09879
1.09922
1.09964
1.10006
1.10047
1.10087
1.10126
1.10163
1.10198
1.10232
1.10263
1.10291
1.10316
1.10339
1.10359
1.10376
1.1039
1.10401
1.1041
1.10416
1.10419
1.1042
1.1042
1.10417
1.10413
1.10407
1.10399
1.1039
1.1038
1.10369
1.10357
1.10344
1.10331
1.10316
1.10301
1.10285
1.10269
1.10252
1.10235
1.10217
1.10199
1.10181
1.10162
1.10144
1.10125
1.10106
1.10087
1.10068
1.1005
1.10031
1.10013
1.09996
1.09978
1.09962
1.09946
1.09931
1.09916
1.09902
1.09889
1.09877
1.09866
1.09856
1.09847
1.09838
1.09831
1.09824
1.09819
1.09814
1.0981
1.09807
1.09805
1.09803
1.09802
1.09802
1.09802
1.09802
1.09803
1.09804
1.09806
1.09808
1.0981
1.09812
1.09814
1.09817
1.09819
1.09822
1.09824
1.09827
1.09829
1.09831
1.09834
1.09836
1.09837
1.09839
1.0984
1.09841
1.09842
1.09843
1.09843
1.09843
1.09843
1.09842
1.09841
1.0984
1.09839
1.09838
1.09836
1.09835
1.09833
1.09832
1.09831
1.0983
1.0983
1.0983
1.0983
1.09832
1.09834
1.09836
1.09839
1.09843
1.09848
1.09853
1.0986
1.09866
1.09873
1.09881
1.09889
1.09898
1.09906
1.09915
1.09923
1.09932
1.0994
1.09948
1.09956
1.09963
1.0997
1.09976
1.09982
1.09988
1.09993
1.09997
1.10002
1.10005
1.10009
1.10013
1.10016
1.1002
1.10023
1.10027
1.10031
1.10036
1.1004
1.10046
1.10051
1.10058
1.10065
1.10073
1.10081
1.10091
1.10101
1.10112
1.10124
1.10137
1.1015
1.10165
1.1018
1.10196
1.10213
1.10231
1.10249
1.10268
1.10288
1.10309
1.10331
1.10354
1.10378
1.10403
1.10429
1.10456
1.10485
1.10516
1.10548
1.10581
1.10617
1.10654
1.10692
1.10733
1.10775
1.10818
1.10863
1.10909
1.10955
1.11002
1.11049
1.11096
1.11141
1.11185
1.11227
1.11267
1.11303
1.11335
1.11363
1.11385
1.11402
1.11412
1.11416
1.11412
1.114
1.11381
1.11352
1.11315
1.1127
1.11215
1.1115
1.11077
1.10994
1.10902
1.108
1.10689
1.10568
1.10437
1.10297
1.10147
1.09989
1.09822
1.09648
1.09468
1.09282
1.09094
1.08904
1.08715
1.08528
1.08345
1.08167
1.07996
1.07833
1.07677
1.07531
1.07393
1.07264
1.07144
1.07033
1.06931
1.06838
1.06755
1.06681
1.06616
1.06561
1.06514
1.06476
1.06446
1.06423
1.06405
1.06393
1.06386
1.06382
1.06381
1.06383
1.06386
1.06392
1.064
1.06408
1.06418
1.06429
1.06441
1.06455
1.06468
1.06483
1.06499
1.06515
1.06531
1.06549
1.06566
1.06584
1.06603
1.06621
1.0664
1.06659
1.06678
1.06697
1.06716
1.06735
1.06753
1.06771
1.06789
1.06807
1.06825
1.06844
1.06863
1.06883
1.06905
1.06929
1.06955
1.06984
1.07016
1.07051
1.07089
1.07131
1.07175
1.07222
1.07272
1.07325
1.07379
1.07435
1.07493
1.07553
1.07613
1.07674
1.07735
1.07797
1.07859
1.07921
1.07981
1.08042
1.0902
1.09024
1.09027
1.09031
1.09036
1.0904
1.09044
1.09049
1.09053
1.09058
1.09062
1.09065
1.09069
1.09072
1.09074
1.09077
1.09078
1.0908
1.09081
1.09082
1.09082
1.09083
1.09082
1.09082
1.09082
1.09081
1.0908
1.0908
1.09079
1.09078
1.09078
1.09078
1.09077
1.09077
1.09078
1.09078
1.09079
1.0908
1.09081
1.09082
1.09084
1.09086
1.09088
1.0909
1.09093
1.09096
1.09099
1.09103
1.09107
1.09112
1.09117
1.09122
1.09128
1.09134
1.09141
1.09148
1.09156
1.09165
1.09175
1.09185
1.09196
1.09208
1.09221
1.09235
1.0925
1.09267
1.09284
1.09303
1.09323
1.09344
1.09367
1.09391
1.09416
1.09443
1.09472
1.09502
1.09534
1.09567
1.09601
1.09637
1.09674
1.09713
1.09752
1.09792
1.09833
1.09875
1.09916
1.09958
1.09999
1.1004
1.10079
1.10118
1.10155
1.1019
1.10223
1.10253
1.10281
1.10307
1.10329
1.10349
1.10366
1.1038
1.10391
1.10399
1.10405
1.10409
1.1041
1.1041
1.10407
1.10403
1.10397
1.1039
1.10381
1.10372
1.10361
1.10349
1.10337
1.10323
1.10309
1.10294
1.10279
1.10263
1.10246
1.10229
1.10211
1.10194
1.10176
1.10157
1.10139
1.1012
1.10101
1.10083
1.10064
1.10046
1.10028
1.1001
1.09993
1.09976
1.09959
1.09943
1.09928
1.09914
1.099
1.09887
1.09876
1.09864
1.09854
1.09845
1.09837
1.0983
1.09823
1.09818
1.09813
1.09809
1.09806
1.09803
1.09802
1.09801
1.098
1.098
1.098
1.09801
1.09802
1.09804
1.09806
1.09808
1.0981
1.09812
1.09815
1.09817
1.0982
1.09822
1.09825
1.09827
1.0983
1.09832
1.09834
1.09836
1.09838
1.09839
1.0984
1.09841
1.09842
1.09843
1.09843
1.09843
1.09842
1.09842
1.09841
1.0984
1.09839
1.09838
1.09836
1.09835
1.09834
1.09833
1.09832
1.09832
1.09832
1.09833
1.09834
1.09836
1.09838
1.09841
1.09845
1.09849
1.09854
1.0986
1.09867
1.09874
1.09881
1.09889
1.09897
1.09905
1.09914
1.09922
1.0993
1.09939
1.09947
1.09954
1.09961
1.09968
1.09975
1.09981
1.09986
1.09992
1.09996
1.10001
1.10005
1.10009
1.10013
1.10017
1.10021
1.10025
1.10029
1.10034
1.10038
1.10044
1.10049
1.10056
1.10062
1.1007
1.10078
1.10087
1.10097
1.10107
1.10118
1.1013
1.10143
1.10156
1.10171
1.10186
1.10201
1.10218
1.10235
1.10253
1.10271
1.10291
1.10311
1.10331
1.10353
1.10376
1.10399
1.10424
1.10449
1.10476
1.10504
1.10534
1.10565
1.10597
1.10631
1.10666
1.10702
1.1074
1.10779
1.10819
1.1086
1.10902
1.10943
1.10985
1.11026
1.11067
1.11106
1.11143
1.11178
1.1121
1.11238
1.11263
1.11283
1.11299
1.11309
1.11313
1.11311
1.11302
1.11286
1.11263
1.11233
1.11194
1.11148
1.11093
1.1103
1.10958
1.10878
1.10787
1.10688
1.10578
1.10458
1.10328
1.10188
1.10037
1.09878
1.0971
1.09534
1.09353
1.09167
1.08978
1.0879
1.08602
1.08417
1.08237
1.08064
1.07897
1.07738
1.07587
1.07446
1.07313
1.07189
1.07075
1.06969
1.06874
1.06787
1.06711
1.06644
1.06587
1.06538
1.06498
1.06466
1.06441
1.06422
1.06408
1.06399
1.06394
1.06392
1.06392
1.06395
1.064
1.06407
1.06415
1.06425
1.06436
1.06447
1.0646
1.06474
1.06488
1.06504
1.0652
1.06536
1.06553
1.06571
1.06589
1.06607
1.06625
1.06644
1.06663
1.06681
1.067
1.06718
1.06737
1.06755
1.06773
1.0679
1.06808
1.06826
1.06845
1.06864
1.06885
1.06907
1.06931
1.06958
1.06987
1.0702
1.07055
1.07093
1.07135
1.07179
1.07226
1.07276
1.07328
1.07382
1.07437
1.07495
1.07553
1.07613
1.07673
1.07735
1.07796
1.07858
1.07919
1.0798
1.08041
1.0902
1.09024
1.09027
1.09031
1.09035
1.09039
1.09043
1.09047
1.09051
1.09055
1.09059
1.09062
1.09065
1.09068
1.09071
1.09073
1.09074
1.09076
1.09077
1.09078
1.09078
1.09078
1.09078
1.09078
1.09078
1.09077
1.09076
1.09076
1.09075
1.09075
1.09074
1.09074
1.09073
1.09073
1.09073
1.09074
1.09074
1.09075
1.09075
1.09076
1.09078
1.09079
1.09081
1.09083
1.09085
1.09087
1.0909
1.09094
1.09097
1.09101
1.09106
1.09111
1.09117
1.09123
1.0913
1.09137
1.09145
1.09154
1.09164
1.09175
1.09187
1.09199
1.09213
1.09227
1.09243
1.0926
1.09278
1.09297
1.09318
1.0934
1.09363
1.09387
1.09413
1.09441
1.09469
1.095
1.09531
1.09564
1.09598
1.09634
1.09671
1.09709
1.09748
1.09787
1.09828
1.09869
1.0991
1.09951
1.09992
1.10032
1.10071
1.10109
1.10146
1.10181
1.10213
1.10244
1.10272
1.10297
1.10319
1.10339
1.10356
1.1037
1.10381
1.10389
1.10395
1.10399
1.104
1.10399
1.10397
1.10393
1.10387
1.1038
1.10372
1.10362
1.10352
1.1034
1.10328
1.10314
1.103
1.10286
1.10271
1.10255
1.10238
1.10222
1.10204
1.10187
1.10169
1.10151
1.10133
1.10114
1.10096
1.10077
1.10059
1.10041
1.10023
1.10005
1.09988
1.09972
1.09955
1.0994
1.09925
1.09911
1.09897
1.09885
1.09873
1.09862
1.09852
1.09843
1.09835
1.09827
1.09821
1.09815
1.0981
1.09807
1.09803
1.09801
1.09799
1.09798
1.09797
1.09797
1.09798
1.09798
1.098
1.09801
1.09803
1.09805
1.09807
1.09809
1.09812
1.09814
1.09817
1.0982
1.09822
1.09825
1.09827
1.0983
1.09832
1.09834
1.09836
1.09838
1.09839
1.0984
1.09841
1.09842
1.09842
1.09843
1.09842
1.09842
1.09842
1.09841
1.0984
1.09839
1.09838
1.09837
1.09836
1.09836
1.09835
1.09835
1.09835
1.09835
1.09837
1.09838
1.0984
1.09843
1.09847
1.09851
1.09856
1.09861
1.09867
1.09874
1.09881
1.09889
1.09896
1.09904
1.09913
1.09921
1.09929
1.09937
1.09945
1.09952
1.09959
1.09966
1.09973
1.09979
1.09985
1.0999
1.09995
1.1
1.10005
1.10009
1.10014
1.10018
1.10022
1.10027
1.10032
1.10037
1.10042
1.10048
1.10054
1.10061
1.10068
1.10076
1.10085
1.10094
1.10104
1.10114
1.10126
1.10137
1.1015
1.10163
1.10177
1.10192
1.10207
1.10223
1.10239
1.10256
1.10274
1.10292
1.1031
1.1033
1.1035
1.10371
1.10392
1.10414
1.10438
1.10462
1.10487
1.10513
1.1054
1.10568
1.10598
1.10628
1.1066
1.10693
1.10726
1.10761
1.10796
1.10831
1.10866
1.10902
1.10937
1.10971
1.11005
1.11036
1.11066
1.11094
1.11119
1.1114
1.11158
1.11173
1.11183
1.11188
1.11188
1.11183
1.11173
1.11156
1.11134
1.11104
1.11068
1.11025
1.10974
1.10915
1.10847
1.10771
1.10685
1.10588
1.10481
1.10363
1.10235
1.10095
1.09944
1.09784
1.09615
1.09439
1.09256
1.0907
1.08882
1.08695
1.08509
1.08327
1.0815
1.07979
1.07816
1.07661
1.07515
1.07377
1.07249
1.0713
1.0702
1.0692
1.06831
1.06751
1.06681
1.0662
1.06569
1.06527
1.06492
1.06464
1.06443
1.06427
1.06416
1.06409
1.06406
1.06405
1.06407
1.06411
1.06416
1.06424
1.06433
1.06443
1.06455
1.06467
1.06481
1.06495
1.0651
1.06526
1.06542
1.06559
1.06576
1.06594
1.06612
1.0663
1.06648
1.06666
1.06685
1.06703
1.06721
1.06739
1.06756
1.06774
1.06791
1.06809
1.06827
1.06846
1.06865
1.06887
1.06909
1.06934
1.06962
1.06992
1.07024
1.0706
1.07099
1.0714
1.07185
1.07231
1.07281
1.07332
1.07385
1.0744
1.07497
1.07555
1.07614
1.07674
1.07734
1.07795
1.07856
1.07917
1.07979
1.08039
1.0902
1.09023
1.09027
1.0903
1.09034
1.09038
1.09041
1.09045
1.09049
1.09052
1.09055
1.09059
1.09061
1.09064
1.09066
1.09068
1.0907
1.09071
1.09072
1.09073
1.09073
1.09073
1.09073
1.09073
1.09073
1.09072
1.09071
1.09071
1.0907
1.0907
1.09069
1.09069
1.09068
1.09068
1.09068
1.09068
1.09068
1.09068
1.09068
1.09069
1.09069
1.0907
1.09071
1.09073
1.09074
1.09076
1.09079
1.09081
1.09084
1.09088
1.09092
1.09097
1.09103
1.09109
1.09115
1.09123
1.09132
1.09141
1.09151
1.09162
1.09174
1.09187
1.09202
1.09217
1.09233
1.09251
1.0927
1.0929
1.09311
1.09333
1.09357
1.09382
1.09408
1.09436
1.09465
1.09495
1.09526
1.09559
1.09593
1.09629
1.09665
1.09702
1.09741
1.0978
1.0982
1.0986
1.09901
1.09942
1.09982
1.10022
1.10061
1.10099
1.10135
1.1017
1.10203
1.10233
1.10261
1.10286
1.10308
1.10328
1.10344
1.10358
1.10369
1.10377
1.10383
1.10387
1.10388
1.10387
1.10385
1.10381
1.10375
1.10368
1.1036
1.10351
1.1034
1.10329
1.10317
1.10304
1.1029
1.10276
1.10261
1.10245
1.10229
1.10213
1.10196
1.10179
1.10161
1.10143
1.10125
1.10107
1.10089
1.10071
1.10053
1.10035
1.10017
1.1
1.09983
1.09966
1.0995
1.09935
1.0992
1.09907
1.09893
1.09881
1.09869
1.09858
1.09849
1.0984
1.09831
1.09824
1.09818
1.09812
1.09807
1.09803
1.098
1.09798
1.09796
1.09795
1.09794
1.09794
1.09794
1.09795
1.09796
1.09798
1.09799
1.09801
1.09804
1.09806
1.09809
1.09811
1.09814
1.09817
1.09819
1.09822
1.09825
1.09827
1.0983
1.09832
1.09834
1.09836
1.09837
1.09839
1.0984
1.09841
1.09842
1.09842
1.09843
1.09843
1.09843
1.09842
1.09842
1.09841
1.0984
1.0984
1.09839
1.09838
1.09838
1.09838
1.09838
1.09839
1.0984
1.09841
1.09843
1.09846
1.09849
1.09853
1.09858
1.09863
1.09868
1.09875
1.09881
1.09888
1.09896
1.09903
1.09911
1.09919
1.09927
1.09935
1.09943
1.0995
1.09957
1.09964
1.09971
1.09977
1.09983
1.09989
1.09994
1.1
1.10005
1.10009
1.10014
1.10019
1.10024
1.10029
1.10035
1.1004
1.10046
1.10052
1.10059
1.10067
1.10074
1.10083
1.10092
1.10101
1.10111
1.10122
1.10133
1.10145
1.10157
1.1017
1.10184
1.10198
1.10212
1.10227
1.10242
1.10258
1.10274
1.10291
1.10308
1.10325
1.10343
1.10361
1.1038
1.104
1.1042
1.1044
1.10462
1.10484
1.10507
1.1053
1.10554
1.10579
1.10605
1.10632
1.10659
1.10687
1.10715
1.10744
1.10772
1.10801
1.1083
1.10857
1.10885
1.10911
1.10936
1.10959
1.1098
1.11
1.11016
1.1103
1.11041
1.11048
1.11052
1.11052
1.11047
1.11038
1.11024
1.11005
1.1098
1.10948
1.1091
1.10865
1.10812
1.1075
1.10678
1.10597
1.10504
1.104
1.10284
1.10156
1.10016
1.09866
1.09704
1.09535
1.09357
1.09175
1.08989
1.08802
1.08616
1.08432
1.08252
1.08078
1.07911
1.07751
1.07599
1.07456
1.07323
1.07198
1.07084
1.0698
1.06885
1.06801
1.06728
1.06664
1.06609
1.06563
1.06525
1.06494
1.0647
1.06452
1.06438
1.06429
1.06423
1.0642
1.06421
1.06423
1.06428
1.06435
1.06443
1.06453
1.06463
1.06476
1.06489
1.06503
1.06517
1.06533
1.06549
1.06565
1.06582
1.066
1.06617
1.06635
1.06653
1.06671
1.06688
1.06706
1.06724
1.06741
1.06758
1.06775
1.06793
1.0681
1.06828
1.06847
1.06867
1.06889
1.06912
1.06938
1.06966
1.06997
1.0703
1.07067
1.07106
1.07147
1.07192
1.07238
1.07287
1.07338
1.0739
1.07444
1.075
1.07557
1.07616
1.07675
1.07735
1.07795
1.07856
1.07916
1.07977
1.08037
1.0902
1.09023
1.09026
1.09029
1.09033
1.09036
1.09039
1.09043
1.09046
1.09049
1.09052
1.09055
1.09057
1.09059
1.09061
1.09063
1.09064
1.09066
1.09066
1.09067
1.09067
1.09068
1.09067
1.09067
1.09067
1.09066
1.09066
1.09065
1.09064
1.09064
1.09063
1.09062
1.09062
1.09061
1.0906
1.0906
1.09059
1.09059
1.09059
1.09059
1.09059
1.09059
1.09059
1.0906
1.09061
1.09062
1.09064
1.09066
1.09069
1.09072
1.09076
1.09081
1.09086
1.09092
1.09099
1.09106
1.09115
1.09125
1.09135
1.09147
1.0916
1.09173
1.09188
1.09204
1.09221
1.0924
1.09259
1.0928
1.09301
1.09324
1.09349
1.09374
1.09401
1.09429
1.09458
1.09488
1.09519
1.09552
1.09586
1.09621
1.09657
1.09694
1.09732
1.09771
1.0981
1.0985
1.0989
1.09931
1.09971
1.1001
1.10049
1.10087
1.10123
1.10158
1.1019
1.10221
1.10248
1.10273
1.10296
1.10315
1.10331
1.10345
1.10356
1.10364
1.1037
1.10373
1.10374
1.10373
1.10371
1.10367
1.10361
1.10354
1.10346
1.10337
1.10327
1.10316
1.10304
1.10292
1.10278
1.10264
1.1025
1.10235
1.10219
1.10203
1.10186
1.10169
1.10151
1.10134
1.10116
1.10098
1.1008
1.10062
1.10045
1.10027
1.1001
1.09993
1.09976
1.0996
1.09944
1.09929
1.09915
1.09901
1.09888
1.09876
1.09864
1.09854
1.09844
1.09835
1.09827
1.0982
1.09814
1.09808
1.09803
1.09799
1.09796
1.09794
1.09792
1.0979
1.0979
1.0979
1.0979
1.09791
1.09792
1.09793
1.09795
1.09797
1.098
1.09802
1.09805
1.09807
1.0981
1.09813
1.09816
1.09819
1.09821
1.09824
1.09827
1.09829
1.09832
1.09834
1.09836
1.09837
1.09839
1.0984
1.09841
1.09842
1.09843
1.09843
1.09843
1.09843
1.09843
1.09843
1.09843
1.09842
1.09842
1.09842
1.09841
1.09841
1.09842
1.09842
1.09843
1.09844
1.09846
1.09849
1.09852
1.09855
1.0986
1.09864
1.0987
1.09875
1.09882
1.09888
1.09895
1.09903
1.0991
1.09918
1.09926
1.09933
1.09941
1.09948
1.09955
1.09962
1.09969
1.09975
1.09982
1.09988
1.09993
1.09999
1.10004
1.1001
1.10015
1.10021
1.10026
1.10032
1.10038
1.10044
1.1005
1.10057
1.10065
1.10072
1.10081
1.10089
1.10099
1.10108
1.10118
1.10129
1.1014
1.10152
1.10164
1.10176
1.10189
1.10202
1.10215
1.10229
1.10242
1.10257
1.10271
1.10285
1.103
1.10315
1.1033
1.10346
1.10361
1.10377
1.10394
1.1041
1.10427
1.10444
1.10462
1.1048
1.10499
1.10518
1.10537
1.10557
1.10577
1.10598
1.10619
1.10641
1.10662
1.10684
1.10706
1.10728
1.10749
1.10771
1.10791
1.10811
1.10829
1.10847
1.10863
1.10877
1.10889
1.109
1.10908
1.10913
1.10915
1.10914
1.10909
1.109
1.10886
1.10868
1.10843
1.10811
1.10773
1.10725
1.10669
1.10602
1.10524
1.10434
1.10332
1.10216
1.10089
1.09948
1.09797
1.09635
1.09464
1.09287
1.09104
1.08919
1.08734
1.08549
1.08368
1.08191
1.08019
1.07855
1.07698
1.0755
1.07411
1.07281
1.07161
1.07052
1.06953
1.06864
1.06785
1.06717
1.06658
1.06608
1.06566
1.06532
1.06504
1.06482
1.06465
1.06453
1.06444
1.0644
1.06438
1.06439
1.06442
1.06448
1.06455
1.06464
1.06474
1.06486
1.06498
1.06512
1.06526
1.06541
1.06557
1.06573
1.06589
1.06606
1.06623
1.06641
1.06658
1.06675
1.06693
1.0671
1.06727
1.06743
1.0676
1.06777
1.06794
1.06811
1.06829
1.06849
1.06869
1.06892
1.06916
1.06942
1.06971
1.07003
1.07037
1.07074
1.07114
1.07156
1.072
1.07246
1.07294
1.07344
1.07396
1.0745
1.07505
1.07561
1.07618
1.07676
1.07735
1.07795
1.07855
1.07915
1.07975
1.08035
1.09021
1.09023
1.09026
1.09029
1.09031
1.09034
1.09037
1.0904
1.09043
1.09046
1.09048
1.0905
1.09053
1.09055
1.09056
1.09058
1.09059
1.0906
1.09061
1.09061
1.09061
1.09061
1.09061
1.09061
1.0906
1.0906
1.09059
1.09058
1.09057
1.09056
1.09055
1.09054
1.09053
1.09052
1.09051
1.0905
1.09049
1.09048
1.09047
1.09046
1.09046
1.09045
1.09045
1.09045
1.09045
1.09046
1.09047
1.09049
1.09051
1.09054
1.09057
1.09062
1.09067
1.09073
1.0908
1.09087
1.09096
1.09106
1.09117
1.09129
1.09143
1.09157
1.09172
1.09189
1.09207
1.09226
1.09246
1.09267
1.0929
1.09313
1.09338
1.09364
1.09391
1.09419
1.09448
1.09478
1.0951
1.09542
1.09576
1.0961
1.09646
1.09682
1.0972
1.09758
1.09797
1.09836
1.09876
1.09916
1.09956
1.09995
1.10034
1.10071
1.10108
1.10142
1.10175
1.10205
1.10233
1.10258
1.1028
1.103
1.10316
1.10329
1.1034
1.10348
1.10354
1.10357
1.10358
1.10357
1.10354
1.1035
1.10345
1.10338
1.1033
1.10322
1.10312
1.10301
1.1029
1.10277
1.10264
1.10251
1.10237
1.10222
1.10206
1.1019
1.10174
1.10157
1.1014
1.10123
1.10106
1.10088
1.1007
1.10053
1.10035
1.10018
1.10001
1.09984
1.09968
1.09952
1.09937
1.09922
1.09908
1.09895
1.09882
1.0987
1.09859
1.09848
1.09839
1.0983
1.09822
1.09815
1.09809
1.09803
1.09798
1.09794
1.09791
1.09789
1.09787
1.09786
1.09785
1.09785
1.09785
1.09786
1.09787
1.09789
1.0979
1.09793
1.09795
1.09797
1.098
1.09803
1.09806
1.09809
1.09812
1.09815
1.09818
1.09821
1.09824
1.09826
1.09829
1.09831
1.09834
1.09836
1.09838
1.09839
1.09841
1.09842
1.09843
1.09844
1.09845
1.09845
1.09845
1.09845
1.09845
1.09845
1.09845
1.09845
1.09845
1.09845
1.09845
1.09846
1.09847
1.09848
1.0985
1.09852
1.09855
1.09858
1.09862
1.09866
1.09871
1.09877
1.09882
1.09889
1.09895
1.09902
1.09909
1.09917
1.09924
1.09932
1.09939
1.09946
1.09953
1.0996
1.09967
1.09974
1.0998
1.09986
1.09993
1.09998
1.10004
1.1001
1.10016
1.10022
1.10028
1.10034
1.10041
1.10047
1.10054
1.10062
1.10069
1.10078
1.10086
1.10095
1.10105
1.10114
1.10124
1.10135
1.10146
1.10157
1.10168
1.10179
1.10191
1.10203
1.10215
1.10227
1.10238
1.1025
1.10262
1.10274
1.10286
1.10298
1.1031
1.10322
1.10334
1.10346
1.10358
1.1037
1.10382
1.10394
1.10406
1.10418
1.1043
1.10442
1.10455
1.10468
1.10481
1.10495
1.10509
1.10524
1.10539
1.10554
1.1057
1.10586
1.10603
1.1062
1.10636
1.10654
1.10671
1.10687
1.10704
1.1072
1.10735
1.10749
1.10761
1.10773
1.10782
1.10789
1.10794
1.10795
1.10792
1.10785
1.10773
1.10755
1.1073
1.10697
1.10655
1.10602
1.10539
1.10463
1.10374
1.10272
1.10157
1.10028
1.09887
1.09734
1.09571
1.094
1.09223
1.09041
1.08858
1.08674
1.08492
1.08313
1.08139
1.07971
1.0781
1.07657
1.07512
1.07377
1.07252
1.07137
1.07033
1.06939
1.06855
1.06782
1.06718
1.06663
1.06617
1.06578
1.06545
1.06519
1.06498
1.06483
1.06471
1.06463
1.06459
1.06458
1.0646
1.06464
1.06469
1.06477
1.06487
1.06497
1.06509
1.06522
1.06536
1.0655
1.06566
1.06581
1.06597
1.06614
1.0663
1.06647
1.06664
1.0668
1.06697
1.06713
1.0673
1.06746
1.06762
1.06778
1.06795
1.06813
1.06831
1.06851
1.06872
1.06895
1.0692
1.06947
1.06977
1.0701
1.07045
1.07083
1.07123
1.07165
1.07209
1.07255
1.07302
1.07352
1.07403
1.07456
1.07509
1.07565
1.07621
1.07678
1.07736
1.07795
1.07854
1.07913
1.07973
1.08032
1.09021
1.09023
1.09026
1.09028
1.0903
1.09033
1.09035
1.09038
1.0904
1.09042
1.09044
1.09046
1.09048
1.0905
1.09051
1.09052
1.09053
1.09054
1.09054
1.09055
1.09055
1.09055
1.09054
1.09054
1.09053
1.09052
1.09051
1.0905
1.09049
1.09048
1.09046
1.09045
1.09043
1.09042
1.0904
1.09038
1.09037
1.09035
1.09033
1.09032
1.0903
1.09029
1.09028
1.09027
1.09027
1.09027
1.09028
1.09029
1.0903
1.09033
1.09036
1.09041
1.09046
1.09052
1.09059
1.09067
1.09076
1.09086
1.09098
1.0911
1.09124
1.09139
1.09155
1.09172
1.09191
1.0921
1.09231
1.09253
1.09276
1.093
1.09325
1.09351
1.09378
1.09406
1.09435
1.09466
1.09497
1.09529
1.09562
1.09597
1.09632
1.09668
1.09705
1.09743
1.09781
1.0982
1.09859
1.09899
1.09938
1.09977
1.10016
1.10053
1.10089
1.10124
1.10157
1.10187
1.10215
1.1024
1.10262
1.10282
1.10298
1.10311
1.10322
1.1033
1.10335
1.10338
1.10339
1.10338
1.10336
1.10332
1.10326
1.1032
1.10312
1.10304
1.10294
1.10284
1.10273
1.10261
1.10249
1.10235
1.10222
1.10207
1.10192
1.10177
1.10161
1.10144
1.10128
1.10111
1.10094
1.10076
1.10059
1.10042
1.10025
1.10008
1.09991
1.09975
1.09959
1.09943
1.09928
1.09914
1.099
1.09887
1.09874
1.09863
1.09852
1.09841
1.09832
1.09823
1.09816
1.09809
1.09802
1.09797
1.09792
1.09789
1.09785
1.09783
1.09781
1.0978
1.09779
1.09779
1.09779
1.0978
1.09781
1.09783
1.09785
1.09787
1.0979
1.09792
1.09795
1.09798
1.09801
1.09804
1.09808
1.09811
1.09814
1.09817
1.0982
1.09823
1.09826
1.09829
1.09832
1.09834
1.09836
1.09838
1.0984
1.09842
1.09843
1.09845
1.09846
1.09847
1.09847
1.09848
1.09848
1.09848
1.09849
1.09849
1.09849
1.09849
1.0985
1.0985
1.09851
1.09852
1.09854
1.09856
1.09858
1.09861
1.09865
1.09869
1.09873
1.09878
1.09883
1.09889
1.09895
1.09902
1.09909
1.09916
1.09923
1.0993
1.09937
1.09945
1.09952
1.09959
1.09966
1.09972
1.09979
1.09985
1.09992
1.09998
1.10004
1.1001
1.10017
1.10023
1.10029
1.10036
1.10043
1.1005
1.10057
1.10065
1.10073
1.10082
1.1009
1.10099
1.10109
1.10118
1.10128
1.10138
1.10148
1.10158
1.10169
1.10179
1.10189
1.10199
1.10209
1.10219
1.10228
1.10238
1.10247
1.10256
1.10264
1.10273
1.10281
1.10289
1.10296
1.10304
1.10311
1.10317
1.10324
1.1033
1.10336
1.10342
1.10347
1.10353
1.10359
1.10365
1.10372
1.10379
1.10386
1.10394
1.10403
1.10413
1.10424
1.10436
1.10449
1.10462
1.10477
1.10493
1.10509
1.10527
1.10545
1.10563
1.10581
1.106
1.10618
1.10636
1.10652
1.10668
1.10681
1.10692
1.107
1.10704
1.10704
1.10698
1.10686
1.10665
1.10637
1.10598
1.10548
1.10485
1.1041
1.10321
1.10218
1.10101
1.0997
1.09828
1.09674
1.09511
1.0934
1.09164
1.08984
1.08802
1.08621
1.08442
1.08267
1.08096
1.07932
1.07775
1.07626
1.07486
1.07356
1.07236
1.07126
1.07027
1.06938
1.06859
1.0679
1.0673
1.06678
1.06633
1.06596
1.06565
1.06539
1.06519
1.06504
1.06493
1.06486
1.06482
1.06481
1.06483
1.06487
1.06493
1.06502
1.06511
1.06522
1.06534
1.06547
1.06561
1.06576
1.06591
1.06606
1.06622
1.06638
1.06654
1.0667
1.06686
1.06701
1.06717
1.06733
1.06748
1.06764
1.0678
1.06796
1.06814
1.06832
1.06853
1.06874
1.06898
1.06924
1.06953
1.06984
1.07018
1.07054
1.07092
1.07132
1.07174
1.07218
1.07264
1.07312
1.0736
1.07411
1.07462
1.07515
1.07569
1.07624
1.07681
1.07738
1.07795
1.07853
1.07912
1.0797
1.08028
1.09022
1.09024
1.09026
1.09028
1.0903
1.09032
1.09033
1.09035
1.09037
1.09039
1.09041
1.09042
1.09043
1.09045
1.09046
1.09047
1.09047
1.09048
1.09048
1.09048
1.09048
1.09047
1.09047
1.09046
1.09045
1.09044
1.09043
1.09041
1.09039
1.09038
1.09036
1.09034
1.09032
1.09029
1.09027
1.09024
1.09022
1.09019
1.09017
1.09015
1.09012
1.0901
1.09009
1.09007
1.09006
1.09006
1.09006
1.09007
1.09008
1.09011
1.09014
1.09018
1.09023
1.09029
1.09036
1.09045
1.09054
1.09065
1.09077
1.0909
1.09104
1.09119
1.09136
1.09153
1.09172
1.09192
1.09214
1.09236
1.09259
1.09283
1.09309
1.09335
1.09362
1.09391
1.0942
1.0945
1.09481
1.09513
1.09546
1.09579
1.09614
1.09649
1.09686
1.09723
1.09761
1.09799
1.09838
1.09877
1.09916
1.09955
1.09993
1.10031
1.10067
1.10102
1.10135
1.10165
1.10193
1.10219
1.10241
1.10261
1.10277
1.1029
1.10301
1.10308
1.10314
1.10317
1.10317
1.10316
1.10314
1.1031
1.10305
1.10299
1.10291
1.10283
1.10274
1.10264
1.10254
1.10242
1.1023
1.10218
1.10204
1.1019
1.10176
1.10161
1.10145
1.10129
1.10113
1.10097
1.1008
1.10063
1.10046
1.10029
1.10012
1.09996
1.09979
1.09963
1.09948
1.09933
1.09918
1.09904
1.0989
1.09878
1.09866
1.09854
1.09843
1.09834
1.09824
1.09816
1.09808
1.09802
1.09796
1.0979
1.09786
1.09782
1.09779
1.09776
1.09775
1.09773
1.09773
1.09773
1.09773
1.09774
1.09775
1.09777
1.09779
1.09781
1.09784
1.09787
1.0979
1.09793
1.09796
1.098
1.09803
1.09807
1.0981
1.09814
1.09817
1.0982
1.09823