# vtk DataFile Version 2.0
LBE two cylinders
ASCII
DATASET STRUCTURED_POINTS
DIMENSIONS 400 100 1
ASPECT_RATIO 1 1 1
ORIGIN 0 0 0
POINT_DATA 40000
SCALARS rho double 1
LOOKUP_TABLE default
1.06488
1.0654
1.06601
1.06667
1.06736
1.06806
1.06879
1.06954
1.0703
1.07107
1.07185
1.07263
1.07342
1.0742
1.07498
1.07576
1.07652
1.07727
1.07802
1.07874
1.07945
1.08013
1.08079
1.08144
1.08205
1.08264
1.0832
1.08374
1.08425
1.08473
1.08518
1.08561
1.08602
1.0864
1.08676
1.0871
1.08742
1.08772
1.088
1.08827
1.08852
1.08875
1.08897
1.08917
1.08934
1.0895
1.08964
1.08975
1.08985
1.08992
1.08997
1.08999
1.08999
1.08997
1.08993
1.08986
1.08977
1.08966
1.08952
1.08937
1.0892
1.08901
1.0888
1.08858
1.08835
1.08811
1.08786
1.08761
1.08735
1.08709
1.08682
1.08655
1.08628
1.08602
1.08575
1.08549
1.08524
1.085
1.08477
1.08455
1.08436
1.0842
1.08407
1.08398
1.08394
1.08396
1.08404
1.08418
1.0844
1.08468
1.08504
1.08546
1.08594
1.08647
1.08705
1.08767
1.0883
1.08895
1.0896
1.09025
1.09088
1.09149
1.09208
1.09264
1.09316
1.09366
1.09413
1.09457
1.09498
1.09537
1.09575
1.0961
1.09644
1.09677
1.09709
1.0974
1.0977
1.098
1.09828
1.09857
1.09884
1.09911
1.09936
1.09961
1.09985
1.10008
1.10029
1.10049
1.10068
1.10086
1.10103
1.1012
1.10137
1.10155
1.10174
1.10196
1.10222
1.10251
1.10286
1.10327
1.10373
1.10425
1.10482
1.10545
1.10612
1.10682
1.10753
1.10825
1.10895
1.10963
1.11026
1.11083
1.11134
1.11177
1.11213
1.1124
1.11259
1.11271
1.11275
1.11272
1.11262
1.11248
1.11228
1.11205
1.11177
1.11147
1.11113
1.11078
1.11039
1.10999
1.10956
1.10911
1.10865
1.10816
1.10765
1.10711
1.10656
1.10599
1.10539
1.10478
1.10415
1.1035
1.10283
1.10214
1.10144
1.10073
1.10001
1.09927
1.09853
1.09779
1.09704
1.0963
1.09555
1.09481
1.09408
1.09336
1.09265
1.09195
1.09126
1.09059
1.08993
1.0893
1.08868
1.08807
1.08748
1.08692
1.08636
1.08583
1.08531
1.08481
1.08433
1.08387
1.08343
1.08301
1.08262
1.08224
1.08189
1.08157
1.08127
1.081
1.08075
1.08054
1.08035
1.08019
1.08007
1.07998
1.07991
1.07989
1.07989
1.07993
1.07999
1.0801
1.08023
1.08039
1.08059
1.08081
1.08106
1.08133
1.08163
1.08195
1.08229
1.08265
1.08302
1.08341
1.08382
1.08424
1.08467
1.08511
1.08557
1.08604
1.08652
1.08701
1.08752
1.08803
1.08856
1.0891
1.08966
1.09022
1.0908
1.09138
1.09198
1.09259
1.09321
1.09384
1.09448
1.09513
1.09579
1.09646
1.09715
1.09784
1.09854
1.09926
1.09998
1.10072
1.10146
1.1022
1.10295
1.1037
1.10444
1.10517
1.10589
1.1066
1.10728
1.10795
1.10859
1.10921
1.10981
1.11039
1.11095
1.11149
1.11201
1.11252
1.11303
1.11352
1.114
1.11449
1.11496
1.11543
1.1159
1.11637
1.11683
1.11728
1.11773
1.11817
1.1186
1.11901
1.11941
1.11979
1.12014
1.12045
1.12072
1.12093
1.12106
1.12108
1.12097
1.12068
1.12017
1.11939
1.11829
1.11683
1.11496
1.11268
1.10998
1.1069
1.1035
1.09988
1.09615
1.09243
1.08884
1.08548
1.08244
1.07977
1.0775
1.07564
1.07416
1.07305
1.07225
1.07174
1.07147
1.07141
1.07151
1.07175
1.07211
1.07255
1.07306
1.07362
1.07417
1.07468
1.07505
1.07517
1.07488
1.07399
1.07226
1.06948
1.0655
1.0603
1.05399
1.0469
1.03944
1.03211
1.02533
1.01939
1.01444
1.01049
1.00745
1.00519
1.00354
1.00238
1.00157
1.00102
1.00065
1.00041
1.00026
1.00016
1.00009
1.00006
1.00003
1.00002
1.00001
1.00001
1
1
1
1
1
1
1
1
1
1
1
1
1
1
1
1
1
1
1
1
1.06533
1.0659
1.06653
1.06719
1.06788
1.06859
1.06932
1.07007
1.07083
1.07159
1.07237
1.07314
1.07391
1.07468
1.07544
1.0762
1.07694
1.07767
1.07838
1.07907
1.07975
1.0804
1.08103
1.08164
1.08222
1.08277
1.0833
1.08381
1.08428
1.08473
1.08516
1.08556
1.08594
1.0863
1.08664
1.08696
1.08726
1.08754
1.08781
1.08806
1.0883
1.08852
1.08872
1.08891
1.08908
1.08923
1.08936
1.08947
1.08956
1.08962
1.08967
1.08969
1.0897
1.08967
1.08963
1.08957
1.08948
1.08937
1.08924
1.0891
1.08893
1.08875
1.08855
1.08834
1.08812
1.08789
1.08765
1.0874
1.08715
1.0869
1.08665
1.08639
1.08614
1.08588
1.08563
1.08538
1.08515
1.08492
1.0847
1.0845
1.08433
1.08418
1.08407
1.08399
1.08397
1.084
1.08409
1.08424
1.08445
1.08474
1.08509
1.08551
1.08599
1.08651
1.08709
1.08769
1.08832
1.08896
1.0896
1.09024
1.09087
1.09148
1.09206
1.09262
1.09314
1.09364
1.0941
1.09454
1.09495
1.09534
1.09571
1.09606
1.0964
1.09672
1.09703
1.09734
1.09763
1.09792
1.0982
1.09847
1.09874
1.09899
1.09924
1.09948
1.09971
1.09993
1.10014
1.10033
1.10052
1.10069
1.10086
1.10103
1.1012
1.10138
1.10157
1.10179
1.10205
1.10234
1.10268
1.10308
1.10353
1.10403
1.1046
1.10521
1.10585
1.10653
1.10723
1.10793
1.10862
1.10928
1.1099
1.11047
1.11098
1.11141
1.11177
1.11205
1.11226
1.11238
1.11244
1.11243
1.11235
1.11222
1.11205
1.11183
1.11158
1.1113
1.11099
1.11065
1.1103
1.10992
1.10952
1.1091
1.10866
1.10821
1.10773
1.10723
1.10671
1.10618
1.10562
1.10504
1.10444
1.10382
1.10319
1.10253
1.10186
1.10118
1.10048
1.09977
1.09905
1.09832
1.09758
1.09684
1.0961
1.09536
1.09463
1.0939
1.09317
1.09246
1.09176
1.09107
1.0904
1.08974
1.08909
1.08847
1.08786
1.08726
1.08669
1.08613
1.0856
1.08508
1.08458
1.0841
1.08365
1.08321
1.0828
1.08242
1.08205
1.08172
1.08141
1.08113
1.08087
1.08065
1.08045
1.08029
1.08016
1.08006
1.07999
1.07995
1.07995
1.07998
1.08005
1.08014
1.08027
1.08043
1.08062
1.08084
1.08108
1.08135
1.08165
1.08196
1.0823
1.08265
1.08303
1.08342
1.08382
1.08424
1.08467
1.08511
1.08557
1.08604
1.08652
1.08701
1.08751
1.08803
1.08856
1.0891
1.08965
1.09021
1.09079
1.09137
1.09197
1.09258
1.0932
1.09383
1.09447
1.09512
1.09578
1.09645
1.09713
1.09782
1.09852
1.09924
1.09996
1.10069
1.10143
1.10217
1.10291
1.10365
1.10439
1.10512
1.10584
1.10654
1.10722
1.10789
1.10853
1.10915
1.10975
1.11033
1.11089
1.11143
1.11196
1.11247
1.11298
1.11347
1.11396
1.11444
1.11491
1.11538
1.11584
1.11631
1.11676
1.11721
1.11765
1.11809
1.11851
1.11891
1.1193
1.11967
1.12
1.1203
1.12055
1.12073
1.12082
1.1208
1.12064
1.1203
1.11974
1.11892
1.11779
1.11631
1.11446
1.11223
1.10961
1.10665
1.10341
1.09995
1.09637
1.09279
1.0893
1.08602
1.08301
1.08033
1.07803
1.07612
1.07458
1.0734
1.07253
1.07196
1.07163
1.0715
1.07156
1.07175
1.07207
1.07247
1.07294
1.07344
1.07394
1.07437
1.07465
1.07466
1.07427
1.07327
1.0715
1.06877
1.06496
1.06003
1.05407
1.04733
1.04018
1.03303
1.02631
1.02034
1.01528
1.01119
1.00801
1.00562
1.00386
1.00261
1.00173
1.00113
1.00073
1.00046
1.00029
1.00018
1.00011
1.00006
1.00004
1.00002
1.00001
1.00001
1
1
1
1
1
1
1
1
1
1
1
1
1
1
1
1
1
1
1
1
1.06622
1.06684
1.06749
1.06817
1.06887
1.06959
1.07032
1.07107
1.07182
1.07258
1.07334
1.07409
1.07484
1.07558
1.07631
1.07702
1.07772
1.0784
1.07906
1.0797
1.08031
1.0809
1.08147
1.08202
1.08254
1.08303
1.0835
1.08394
1.08436
1.08475
1.08513
1.08548
1.08581
1.08612
1.08642
1.0867
1.08697
1.08722
1.08745
1.08768
1.08789
1.08809
1.08827
1.08844
1.08859
1.08872
1.08884
1.08894
1.08902
1.08908
1.08913
1.08915
1.08915
1.08913
1.08909
1.08903
1.08895
1.08885
1.08873
1.08859
1.08844
1.08827
1.08808
1.08789
1.08768
1.08747
1.08725
1.08702
1.08679
1.08656
1.08633
1.08609
1.08586
1.08563
1.0854
1.08518
1.08497
1.08477
1.08458
1.08441
1.08426
1.08415
1.08406
1.08401
1.08401
1.08406
1.08417
1.08434
1.08457
1.08487
1.08523
1.08565
1.08613
1.08665
1.08722
1.08782
1.08844
1.08908
1.08971
1.09035
1.09097
1.09157
1.09214
1.09269
1.09321
1.0937
1.09415
1.09458
1.09499
1.09536
1.09572
1.09606
1.09638
1.09669
1.09698
1.09727
1.09755
1.09782
1.09808
1.09833
1.09858
1.09882
1.09905
1.09927
1.09948
1.09968
1.09987
1.10006
1.10023
1.10039
1.10056
1.10071
1.10088
1.10105
1.10124
1.10145
1.1017
1.10198
1.10231
1.1027
1.10313
1.10362
1.10416
1.10475
1.10537
1.10603
1.1067
1.10738
1.10805
1.1087
1.10931
1.10987
1.11038
1.11082
1.11119
1.11148
1.1117
1.11184
1.11192
1.11193
1.11189
1.11179
1.11164
1.11146
1.11124
1.111
1.11073
1.11044
1.11012
1.10979
1.10944
1.10908
1.1087
1.1083
1.10788
1.10745
1.10699
1.10652
1.10603
1.10551
1.10498
1.10442
1.10385
1.10325
1.10264
1.102
1.10135
1.10068
1.09999
1.09929
1.09858
1.09786
1.09713
1.09639
1.09565
1.09491
1.09417
1.09344
1.09271
1.09199
1.09128
1.09058
1.0899
1.08923
1.08858
1.08794
1.08732
1.08673
1.08615
1.08559
1.08506
1.08455
1.08406
1.08359
1.08315
1.08274
1.08235
1.08199
1.08166
1.08136
1.08109
1.08084
1.08063
1.08045
1.08031
1.08019
1.08011
1.08006
1.08005
1.08007
1.08012
1.08021
1.08033
1.08048
1.08066
1.08087
1.08111
1.08138
1.08167
1.08198
1.08231
1.08267
1.08304
1.08342
1.08382
1.08424
1.08467
1.08511
1.08557
1.08604
1.08652
1.08701
1.08751
1.08803
1.08855
1.08909
1.08964
1.09021
1.09078
1.09137
1.09196
1.09257
1.09319
1.09382
1.09446
1.09511
1.09577
1.09644
1.09712
1.09781
1.09851
1.09922
1.09994
1.10067
1.1014
1.10214
1.10288
1.10361
1.10435
1.10507
1.10578
1.10648
1.10717
1.10783
1.10847
1.10909
1.1097
1.11028
1.11084
1.11138
1.11191
1.11242
1.11293
1.11342
1.1139
1.11438
1.11485
1.11532
1.11578
1.11624
1.11669
1.11713
1.11757
1.11799
1.1184
1.1188
1.11917
1.11952
1.11984
1.12011
1.12033
1.12047
1.12051
1.12044
1.12022
1.11981
1.11919
1.11831
1.11713
1.11563
1.1138
1.11162
1.10911
1.10629
1.10321
1.09995
1.09656
1.09316
1.08982
1.08663
1.08368
1.08102
1.07869
1.07673
1.07511
1.07385
1.0729
1.07224
1.07183
1.07164
1.07162
1.07176
1.07202
1.07237
1.07279
1.07324
1.07367
1.07403
1.07424
1.07418
1.07372
1.07269
1.07094
1.06831
1.06466
1.05997
1.0543
1.04782
1.04088
1.03386
1.02717
1.02115
1.01599
1.01179
1.00848
1.00597
1.00413
1.0028
1.00187
1.00123
1.00079
1.0005
1.00032
1.00019
1.00012
1.00007
1.00004
1.00002
1.00001
1.00001
1
1
1
1
1
1
1
1
1
1
1
1
1
1
1
1
1
1
1
1
1.06753
1.06819
1.06887
1.06956
1.07028
1.071
1.07173
1.07247
1.0732
1.07394
1.07467
1.07539
1.07609
1.07678
1.07746
1.07811
1.07874
1.07935
1.07994
1.0805
1.08104
1.08155
1.08204
1.0825
1.08293
1.08334
1.08373
1.0841
1.08444
1.08476
1.08506
1.08535
1.08562
1.08588
1.08612
1.08635
1.08657
1.08677
1.08697
1.08716
1.08734
1.0875
1.08766
1.0878
1.08793
1.08805
1.08815
1.08823
1.0883
1.08836
1.08839
1.08841
1.08841
1.0884
1.08836
1.08831
1.08823
1.08814
1.08804
1.08792
1.08778
1.08762
1.08746
1.08728
1.0871
1.08691
1.08671
1.08651
1.0863
1.0861
1.08589
1.08569
1.08549
1.08529
1.0851
1.08491
1.08474
1.08457
1.08442
1.08429
1.08419
1.08411
1.08406
1.08405
1.08409
1.08417
1.08431
1.0845
1.08476
1.08507
1.08545
1.08588
1.08636
1.08689
1.08746
1.08806
1.08867
1.0893
1.08993
1.09055
1.09116
1.09175
1.09232
1.09285
1.09336
1.09383
1.09428
1.09469
1.09508
1.09544
1.09577
1.09609
1.09639
1.09667
1.09694
1.0972
1.09745
1.0977
1.09793
1.09816
1.09838
1.09859
1.09879
1.09899
1.09918
1.09935
1.09953
1.09969
1.09984
1.09999
1.10014
1.10029
1.10044
1.1006
1.10078
1.10098
1.10122
1.10149
1.10181
1.10217
1.10259
1.10305
1.10357
1.10413
1.10474
1.10537
1.10602
1.10667
1.10732
1.10795
1.10855
1.10911
1.10961
1.11005
1.11043
1.11073
1.11097
1.11114
1.11124
1.11128
1.11127
1.11121
1.1111
1.11096
1.11079
1.11059
1.11037
1.11014
1.10988
1.10961
1.10933
1.10904
1.10873
1.1084
1.10807
1.10771
1.10734
1.10695
1.10655
1.10612
1.10567
1.1052
1.10471
1.10419
1.10365
1.10309
1.10251
1.1019
1.10126
1.10061
1.09994
1.09924
1.09853
1.09781
1.09707
1.09633
1.09557
1.09482
1.09406
1.0933
1.09255
1.0918
1.09107
1.09035
1.08964
1.08895
1.08827
1.08762
1.08698
1.08637
1.08578
1.08522
1.08468
1.08417
1.08369
1.08323
1.08281
1.08241
1.08204
1.08171
1.0814
1.08113
1.0809
1.08069
1.08052
1.08038
1.08028
1.08022
1.08019
1.08019
1.08023
1.0803
1.08041
1.08055
1.08072
1.08093
1.08116
1.08141
1.0817
1.08201
1.08233
1.08268
1.08305
1.08343
1.08383
1.08425
1.08468
1.08512
1.08557
1.08604
1.08652
1.08701
1.08751
1.08803
1.08856
1.08909
1.08964
1.09021
1.09078
1.09137
1.09196
1.09257
1.09319
1.09381
1.09445
1.0951
1.09576
1.09643
1.09711
1.0978
1.0985
1.09921
1.09993
1.10065
1.10138
1.10211
1.10285
1.10358
1.10431
1.10503
1.10574
1.10643
1.10711
1.10777
1.10842
1.10904
1.10964
1.11022
1.11078
1.11133
1.11186
1.11238
1.11288
1.11337
1.11385
1.11433
1.1148
1.11526
1.11572
1.11617
1.11661
1.11705
1.11748
1.11789
1.11829
1.11868
1.11904
1.11937
1.11966
1.1199
1.12008
1.12017
1.12016
1.12002
1.11972
1.11923
1.11852
1.11756
1.11632
1.11479
1.11296
1.11083
1.10842
1.10575
1.10287
1.09983
1.09668
1.09349
1.09034
1.0873
1.08444
1.08182
1.07949
1.07747
1.07579
1.07443
1.07338
1.07262
1.07212
1.07184
1.07175
1.07182
1.07202
1.07231
1.07267
1.07307
1.07345
1.07375
1.07389
1.07378
1.07327
1.07223
1.07049
1.06791
1.06439
1.05988
1.05442
1.04817
1.04143
1.03454
1.02792
1.02188
1.01666
1.01236
1.00894
1.00633
1.00439
1.00299
1.00201
1.00132
1.00086
1.00055
1.00034
1.00021
1.00013
1.00008
1.00005
1.00003
1.00002
1.00001
1
1
1
1
1
1
1
1
1
1
1
1
1
1
1
1
1
1
1
1
1.06923
1.06991
1.07061
1.07131
1.07202
1.07273
1.07345
1.07416
1.07486
1.07555
1.07623
1.07689
1.07754
1.07816
1.07876
1.07934
1.07989
1.08041
1.08091
1.08138
1.08182
1.08224
1.08263
1.08299
1.08334
1.08365
1.08395
1.08423
1.08449
1.08473
1.08496
1.08518
1.08538
1.08557
1.08575
1.08593
1.08609
1.08625
1.08641
1.08655
1.08669
1.08682
1.08695
1.08706
1.08717
1.08726
1.08734
1.08741
1.08747
1.08752
1.08755
1.08756
1.08756
1.08754
1.08751
1.08747
1.0874
1.08733
1.08723
1.08713
1.08701
1.08687
1.08673
1.08658
1.08642
1.08625
1.08608
1.08591
1.08574
1.08556
1.08539
1.08522
1.08506
1.0849
1.08474
1.0846
1.08447
1.08435
1.08424
1.08416
1.0841
1.08407
1.08407
1.08411
1.08418
1.08431
1.08449
1.08472
1.085
1.08534
1.08573
1.08618
1.08667
1.0872
1.08777
1.08836
1.08897
1.08959
1.09021
1.09082
1.09142
1.092
1.09255
1.09307
1.09356
1.09401
1.09444
1.09483
1.0952
1.09553
1.09585
1.09614
1.09641
1.09666
1.0969
1.09713
1.09735
1.09756
1.09776
1.09796
1.09814
1.09832
1.0985
1.09866
1.09882
1.09897
1.09912
1.09926
1.09939
1.09952
1.09965
1.09979
1.09992
1.10007
1.10024
1.10044
1.10066
1.10092
1.10122
1.10156
1.10196
1.10241
1.1029
1.10343
1.10401
1.10461
1.10524
1.10587
1.10649
1.10711
1.10769
1.10824
1.10874
1.10918
1.10956
1.10988
1.11014
1.11033
1.11047
1.11054
1.11057
1.11054
1.11048
1.11039
1.11027
1.11012
1.10996
1.10978
1.10959
1.10939
1.10918
1.10896
1.10873
1.10849
1.10824
1.10797
1.1077
1.1074
1.10709
1.10676
1.10641
1.10604
1.10565
1.10523
1.10478
1.10431
1.1038
1.10327
1.10271
1.10212
1.10151
1.10086
1.10019
1.09949
1.09878
1.09804
1.09729
1.09652
1.09574
1.09495
1.09416
1.09337
1.09258
1.0918
1.09103
1.09028
1.08954
1.08881
1.08811
1.08743
1.08678
1.08615
1.08555
1.08497
1.08443
1.08392
1.08344
1.08299
1.08257
1.08219
1.08185
1.08154
1.08126
1.08102
1.08082
1.08065
1.08052
1.08043
1.08037
1.08036
1.08038
1.08043
1.08052
1.08065
1.08081
1.081
1.08122
1.08146
1.08174
1.08204
1.08236
1.08271
1.08307
1.08345
1.08385
1.08426
1.08469
1.08513
1.08558
1.08605
1.08653
1.08702
1.08752
1.08803
1.08856
1.0891
1.08965
1.09021
1.09078
1.09137
1.09196
1.09257
1.09319
1.09382
1.09445
1.0951
1.09576
1.09643
1.09711
1.0978
1.0985
1.09921
1.09992
1.10064
1.10137
1.1021
1.10283
1.10355
1.10427
1.10499
1.10569
1.10638
1.10706
1.10772
1.10836
1.10898
1.10959
1.11017
1.11073
1.11128
1.11181
1.11233
1.11283
1.11333
1.11381
1.11428
1.11475
1.11521
1.11566
1.1161
1.11654
1.11697
1.11739
1.1178
1.11819
1.11855
1.1189
1.1192
1.11947
1.11967
1.1198
1.11983
1.11975
1.11952
1.11913
1.11853
1.11772
1.11666
1.11535
1.11377
1.11194
1.10987
1.10758
1.10508
1.10242
1.09963
1.09675
1.09382
1.0909
1.08804
1.0853
1.08274
1.08041
1.07836
1.07659
1.07514
1.07398
1.07311
1.0725
1.07212
1.07194
1.07193
1.07206
1.0723
1.0726
1.07294
1.07326
1.0735
1.07358
1.0734
1.07284
1.07176
1.07001
1.06749
1.06408
1.05974
1.05449
1.04847
1.04192
1.03518
1.02862
1.02259
1.01731
1.01291
1.0094
1.00669
1.00467
1.00319
1.00215
1.00142
1.00092
1.00059
1.00037
1.00023
1.00014
1.00009
1.00005
1.00003
1.00002
1.00001
1.00001
1
1
1
1
1
1
1
1
1
1
1
1
1
1
1
1
1
1
1
1.07124
1.07193
1.07263
1.07332
1.074
1.07469
1.07536
1.07601
1.07666
1.07729
1.07789
1.07848
1.07904
1.07957
1.08008
1.08056
1.08102
1.08144
1.08184
1.08221
1.08255
1.08287
1.08316
1.08343
1.08368
1.08391
1.08412
1.08431
1.08449
1.08465
1.08481
1.08495
1.08509
1.08522
1.08534
1.08546
1.08558
1.08569
1.0858
1.08591
1.08601
1.08611
1.0862
1.08629
1.08637
1.08644
1.0865
1.08655
1.0866
1.08663
1.08665
1.08667
1.08666
1.08665
1.08662
1.08658
1.08653
1.08646
1.08639
1.0863
1.08619
1.08608
1.08596
1.08583
1.0857
1.08556
1.08542
1.08528
1.08514
1.085
1.08486
1.08473
1.0846
1.08449
1.08438
1.08428
1.08419
1.08412
1.08407
1.08404
1.08403
1.08405
1.0841
1.08419
1.08432
1.0845
1.08472
1.08498
1.0853
1.08567
1.08608
1.08654
1.08704
1.08758
1.08815
1.08874
1.08934
1.08995
1.09056
1.09116
1.09174
1.0923
1.09283
1.09333
1.0938
1.09424
1.09464
1.09501
1.09535
1.09566
1.09594
1.0962
1.09645
1.09667
1.09688
1.09707
1.09726
1.09743
1.0976
1.09775
1.09791
1.09805
1.09819
1.09833
1.09845
1.09858
1.0987
1.09881
1.09892
1.09903
1.09915
1.09926
1.09939
1.09953
1.09968
1.09986
1.10007
1.10032
1.1006
1.10093
1.10131
1.10173
1.1022
1.10271
1.10326
1.10383
1.10443
1.10503
1.10564
1.10623
1.1068
1.10734
1.10784
1.10828
1.10868
1.10901
1.10929
1.1095
1.10966
1.10977
1.10983
1.10985
1.10984
1.10979
1.10971
1.10962
1.10951
1.10939
1.10926
1.10913
1.10899
1.10884
1.10869
1.10853
1.10836
1.10819
1.108
1.1078
1.10759
1.10736
1.10711
1.10684
1.10655
1.10623
1.10588
1.10551
1.1051
1.10466
1.10419
1.10368
1.10314
1.10256
1.10195
1.10131
1.10063
1.09992
1.09919
1.09843
1.09765
1.09685
1.09604
1.09522
1.09439
1.09356
1.09274
1.09192
1.09111
1.09032
1.08954
1.08879
1.08806
1.08735
1.08667
1.08603
1.08541
1.08483
1.08428
1.08376
1.08329
1.08284
1.08244
1.08207
1.08175
1.08146
1.08121
1.08101
1.08084
1.08071
1.08062
1.08058
1.08057
1.0806
1.08067
1.08077
1.08092
1.08109
1.0813
1.08153
1.0818
1.08209
1.0824
1.08274
1.08309
1.08347
1.08386
1.08427
1.0847
1.08514
1.08559
1.08606
1.08653
1.08703
1.08753
1.08804
1.08857
1.08911
1.08966
1.09022
1.09079
1.09138
1.09197
1.09258
1.0932
1.09382
1.09446
1.09511
1.09577
1.09644
1.09712
1.09781
1.09851
1.09922
1.09993
1.10065
1.10137
1.10209
1.10281
1.10353
1.10425
1.10496
1.10565
1.10634
1.10701
1.10767
1.10831
1.10893
1.10954
1.11012
1.11069
1.11124
1.11177
1.11229
1.11279
1.11328
1.11377
1.11424
1.1147
1.11516
1.1156
1.11604
1.11647
1.11689
1.1173
1.1177
1.11807
1.11842
1.11874
1.11902
1.11924
1.1194
1.11946
1.11943
1.11925
1.11893
1.11842
1.11771
1.11678
1.11562
1.11423
1.11262
1.1108
1.10879
1.10662
1.10431
1.10189
1.09937
1.09677
1.09413
1.09146
1.08881
1.08622
1.08375
1.08145
1.07936
1.07753
1.07598
1.0747
1.07371
1.07298
1.07249
1.07221
1.07211
1.07216
1.07232
1.07255
1.07283
1.07308
1.07326
1.07327
1.07303
1.07241
1.0713
1.06955
1.06707
1.06376
1.05957
1.05451
1.0487
1.04235
1.03576
1.02928
1.02326
1.01794
1.01347
1.00986
1.00705
1.00494
1.0034
1.00229
1.00152
1.00099
1.00064
1.0004
1.00025
1.00015
1.00009
1.00006
1.00003
1.00002
1.00001
1.00001
1
1
1
1
1
1
1
1
1
1
1
1
1
1
1
1
1
1
1
1.07346
1.07414
1.07482
1.07547
1.07611
1.07673
1.07733
1.07791
1.07847
1.07901
1.07952
1.08
1.08046
1.0809
1.0813
1.08168
1.08203
1.08235
1.08265
1.08292
1.08316
1.08338
1.08358
1.08376
1.08392
1.08407
1.08419
1.08431
1.08442
1.08451
1.0846
1.08469
1.08477
1.08484
1.08492
1.08499
1.08506
1.08513
1.0852
1.08527
1.08534
1.0854
1.08547
1.08553
1.08558
1.08563
1.08568
1.08571
1.08575
1.08577
1.08578
1.08579
1.08579
1.08577
1.08575
1.08571
1.08567
1.08561
1.08555
1.08547
1.08539
1.0853
1.0852
1.0851
1.08499
1.08488
1.08476
1.08465
1.08455
1.08444
1.08434
1.08425
1.08416
1.08408
1.08402
1.08397
1.08393
1.08391
1.08391
1.08393
1.08398
1.08405
1.08416
1.08431
1.08449
1.08471
1.08497
1.08528
1.08563
1.08603
1.08646
1.08694
1.08745
1.08799
1.08856
1.08914
1.08973
1.09033
1.09092
1.0915
1.09206
1.0926
1.09311
1.0936
1.09404
1.09446
1.09484
1.09518
1.0955
1.09578
1.09604
1.09627
1.09648
1.09667
1.09685
1.09701
1.09716
1.0973
1.09743
1.09755
1.09767
1.09778
1.09789
1.09799
1.09809
1.09819
1.09828
1.09837
1.09846
1.09855
1.09865
1.09875
1.09886
1.09899
1.09914
1.09931
1.09951
1.09974
1.10001
1.10033
1.10068
1.10108
1.10153
1.10201
1.10253
1.10308
1.10365
1.10423
1.10482
1.10539
1.10595
1.10648
1.10697
1.10742
1.10782
1.10817
1.10847
1.10871
1.10889
1.10903
1.10913
1.10919
1.10921
1.1092
1.10917
1.10913
1.10907
1.109
1.10892
1.10884
1.10876
1.10868
1.10859
1.10851
1.10842
1.10832
1.10822
1.1081
1.10798
1.10784
1.10769
1.10751
1.10732
1.1071
1.10685
1.10658
1.10627
1.10593
1.10555
1.10514
1.10469
1.1042
1.10367
1.1031
1.10248
1.10184
1.10115
1.10043
1.09967
1.09889
1.09808
1.09726
1.09641
1.09556
1.09469
1.09383
1.09297
1.09211
1.09127
1.09044
1.08963
1.08885
1.08809
1.08736
1.08666
1.08599
1.08536
1.08477
1.08421
1.08369
1.08322
1.08278
1.08239
1.08204
1.08174
1.08148
1.08126
1.08109
1.08096
1.08087
1.08083
1.08083
1.08087
1.08094
1.08106
1.08121
1.0814
1.08162
1.08187
1.08215
1.08245
1.08278
1.08313
1.0835
1.08389
1.0843
1.08472
1.08516
1.08561
1.08607
1.08655
1.08704
1.08754
1.08806
1.08858
1.08912
1.08967
1.09023
1.0908
1.09139
1.09198
1.09259
1.09321
1.09384
1.09448
1.09513
1.09579
1.09646
1.09714
1.09783
1.09853
1.09923
1.09994
1.10065
1.10137
1.10209
1.1028
1.10352
1.10423
1.10493
1.10562
1.1063
1.10697
1.10763
1.10827
1.10889
1.10949
1.11008
1.11065
1.1112
1.11173
1.11225
1.11275
1.11325
1.11373
1.1142
1.11466
1.11511
1.11555
1.11598
1.1164
1.11681
1.11721
1.11759
1.11794
1.11827
1.11856
1.1188
1.11898
1.11907
1.11907
1.11894
1.11867
1.11823
1.1176
1.11676
1.11571
1.11445
1.11299
1.11134
1.10954
1.10762
1.10559
1.10348
1.1013
1.09906
1.09676
1.09441
1.09202
1.08959
1.08718
1.08482
1.08257
1.08048
1.07859
1.07693
1.07554
1.07442
1.07356
1.07294
1.07254
1.07234
1.07229
1.07237
1.07253
1.07273
1.07292
1.07303
1.07297
1.07267
1.072
1.07085
1.0691
1.06666
1.06344
1.05938
1.0545
1.04889
1.04272
1.03628
1.02989
1.0239
1.01855
1.01401
1.01031
1.00741
1.00522
1.0036
1.00244
1.00163
1.00107
1.00069
1.00044
1.00027
1.00017
1.0001
1.00006
1.00004
1.00002
1.00001
1.00001
1
1
1
1
1
1
1
1
1
1
1
1
1
1
1
1
1
1
1
1.07577
1.07642
1.07705
1.07764
1.0782
1.07873
1.07924
1.07972
1.08017
1.08059
1.08099
1.08137
1.08171
1.08203
1.08233
1.0826
1.08285
1.08307
1.08327
1.08344
1.0836
1.08373
1.08385
1.08395
1.08404
1.08411
1.08418
1.08423
1.08428
1.08432
1.08436
1.08439
1.08443
1.08446
1.08449
1.08453
1.08456
1.0846
1.08464
1.08468
1.08472
1.08475
1.08479
1.08483
1.08486
1.08489
1.08492
1.08494
1.08496
1.08497
1.08498
1.08498
1.08497
1.08496
1.08494
1.08491
1.08487
1.08483
1.08477
1.08471
1.08465
1.08457
1.0845
1.08441
1.08433
1.08424
1.08416
1.08408
1.084
1.08393
1.08386
1.0838
1.08376
1.08372
1.0837
1.08369
1.0837
1.08373
1.08378
1.08386
1.08396
1.08409
1.08426
1.08446
1.08469
1.08496
1.08527
1.08562
1.08601
1.08643
1.08689
1.08738
1.08789
1.08844
1.089
1.08957
1.09015
1.09073
1.09131
1.09187
1.09241
1.09293
1.09342
1.09387
1.0943
1.09469
1.09504
1.09537
1.09565
1.09591
1.09614
1.09635
1.09653
1.09669
1.09683
1.09696
1.09708
1.09719
1.09729
1.09738
1.09746
1.09754
1.09762
1.09769
1.09776
1.09783
1.0979
1.09797
1.09804
1.09812
1.0982
1.09829
1.09839
1.09851
1.09865
1.09881
1.099
1.09922
1.09948
1.09978
1.10012
1.1005
1.10093
1.10139
1.10188
1.10241
1.10295
1.10351
1.10408
1.10464
1.10518
1.1057
1.10619
1.10664
1.10705
1.10741
1.10772
1.10799
1.1082
1.10837
1.10849
1.10858
1.10864
1.10866
1.10867
1.10866
1.10864
1.10862
1.10859
1.10855
1.10852
1.10849
1.10846
1.10843
1.1084
1.10836
1.10833
1.10828
1.10823
1.10817
1.1081
1.10801
1.1079
1.10777
1.10762
1.10744
1.10723
1.10699
1.10671
1.1064
1.10604
1.10565
1.10521
1.10473
1.10421
1.10364
1.10303
1.10238
1.10168
1.10095
1.10018
1.09938
1.09855
1.0977
1.09683
1.09594
1.09505
1.09415
1.09326
1.09237
1.0915
1.09064
1.08979
1.08898
1.08819
1.08743
1.08671
1.08603
1.08538
1.08477
1.08421
1.08369
1.08322
1.0828
1.08242
1.08209
1.08181
1.08158
1.08139
1.08126
1.08117
1.08112
1.08112
1.08117
1.08126
1.08138
1.08154
1.08174
1.08197
1.08224
1.08253
1.08284
1.08318
1.08354
1.08393
1.08433
1.08475
1.08518
1.08563
1.08609
1.08657
1.08706
1.08756
1.08807
1.0886
1.08914
1.08969
1.09025
1.09082
1.0914
1.092
1.09261
1.09323
1.09386
1.0945
1.09515
1.09581
1.09648
1.09717
1.09786
1.09855
1.09925
1.09996
1.10067
1.10138
1.10209
1.1028
1.10351
1.10421
1.10491
1.1056
1.10627
1.10694
1.10759
1.10823
1.10885
1.10945
1.11004
1.11061
1.11116
1.11169
1.11221
1.11272
1.11321
1.11369
1.11415
1.11461
1.11506
1.11549
1.11591
1.11633
1.11673
1.11711
1.11747
1.1178
1.1181
1.11836
1.11855
1.11867
1.1187
1.11861
1.11838
1.11799
1.11742
1.11666
1.11569
1.11452
1.11316
1.11164
1.10998
1.10822
1.10638
1.10451
1.1026
1.10068
1.09872
1.09672
1.09467
1.09255
1.09038
1.08816
1.08594
1.08376
1.08167
1.07973
1.078
1.07649
1.07523
1.07423
1.07347
1.07295
1.07263
1.07248
1.07246
1.07254
1.07266
1.07277
1.07281
1.07269
1.07232
1.0716
1.07041
1.06867
1.06626
1.06311
1.05918
1.05446
1.04902
1.04304
1.03674
1.03046
1.0245
1.01914
1.01454
1.01076
1.00777
1.0055
1.00381
1.00259
1.00173
1.00114
1.00074
1.00047
1.00029
1.00018
1.00011
1.00007
1.00004
1.00002
1.00001
1.00001
1
1
1
1
1
1
1
1
1
1
1
1
1
1
1
1
1
1
1
1.07804
1.07864
1.07919
1.07969
1.08016
1.08058
1.08097
1.08133
1.08166
1.08196
1.08224
1.08249
1.08272
1.08293
1.08312
1.08329
1.08343
1.08356
1.08368
1.08377
1.08385
1.08391
1.08397
1.084
1.08403
1.08405
1.08407
1.08407
1.08408
1.08408
1.08408
1.08408
1.08408
1.08409
1.08409
1.0841
1.08411
1.08412
1.08413
1.08415
1.08416
1.08418
1.0842
1.08421
1.08423
1.08424
1.08425
1.08426
1.08427
1.08427
1.08427
1.08427
1.08426
1.08424
1.08422
1.08419
1.08416
1.08413
1.08408
1.08403
1.08398
1.08393
1.08387
1.0838
1.08374
1.08368
1.08362
1.08356
1.08351
1.08347
1.08344
1.08341
1.0834
1.0834
1.08342
1.08346
1.08351
1.08359
1.08369
1.08382
1.08398
1.08416
1.08438
1.08463
1.08492
1.08523
1.08559
1.08597
1.08639
1.08684
1.08731
1.08781
1.08834
1.08888
1.08943
1.08999
1.09056
1.09112
1.09167
1.09221
1.09273
1.09322
1.09369
1.09412
1.09452
1.09489
1.09522
1.09552
1.09579
1.09602
1.09623
1.09641
1.09656
1.0967
1.09682
1.09692
1.09701
1.09709
1.09716
1.09722
1.09727
1.09733
1.09738
1.09743
1.09747
1.09752
1.09757
1.09762
1.09768
1.09774
1.09781
1.09789
1.09798
1.0981
1.09823
1.09838
1.09857
1.09878
1.09903
1.09932
1.09964
1.10001
1.10041
1.10085
1.10133
1.10183
1.10236
1.1029
1.10344
1.10399
1.10452
1.10504
1.10552
1.10598
1.10639
1.10676
1.10709
1.10737
1.1076
1.1078
1.10795
1.10806
1.10814
1.1082
1.10824
1.10826
1.10827
1.10827
1.10827
1.10827
1.10827
1.10828
1.10829
1.1083
1.10831
1.10832
1.10833
1.10834
1.10835
1.10835
1.10834
1.10831
1.10828
1.10822
1.10815
1.10805
1.10793
1.10777
1.10759
1.10737
1.10712
1.10683
1.10649
1.10612
1.1057
1.10523
1.10471
1.10415
1.10355
1.10289
1.1022
1.10146
1.10068
1.09987
1.09903
1.09816
1.09727
1.09637
1.09545
1.09453
1.0936
1.09268
1.09178
1.09088
1.09001
1.08917
1.08835
1.08757
1.08682
1.08612
1.08545
1.08484
1.08427
1.08376
1.08329
1.08288
1.08252
1.08221
1.08196
1.08176
1.08161
1.08152
1.08147
1.08147
1.08151
1.0816
1.08174
1.08191
1.08211
1.08235
1.08262
1.08292
1.08325
1.0836
1.08398
1.08437
1.08478
1.08521
1.08566
1.08612
1.08659
1.08708
1.08758
1.08809
1.08862
1.08916
1.08971
1.09027
1.09084
1.09143
1.09202
1.09263
1.09325
1.09388
1.09453
1.09518
1.09584
1.09652
1.0972
1.09789
1.09858
1.09928
1.09999
1.10069
1.1014
1.10211
1.10281
1.10351
1.10421
1.10489
1.10557
1.10625
1.10691
1.10755
1.10819
1.10881
1.10941
1.11
1.11057
1.11112
1.11166
1.11218
1.11268
1.11317
1.11365
1.11411
1.11456
1.115
1.11543
1.11585
1.11625
1.11663
1.117
1.11734
1.11764
1.11791
1.11812
1.11826
1.11831
1.11825
1.11806
1.11772
1.1172
1.1165
1.1156
1.1145
1.11322
1.11178
1.11021
1.10855
1.10685
1.10512
1.10341
1.10171
1.10003
1.09835
1.09665
1.09489
1.09305
1.09113
1.08913
1.08706
1.08497
1.08292
1.08096
1.07915
1.07753
1.07614
1.075
1.0741
1.07344
1.07299
1.07272
1.0726
1.07258
1.07262
1.07265
1.07261
1.07242
1.07199
1.07121
1.07
1.06824
1.06585
1.06277
1.05895
1.05437
1.04911
1.0433
1.03716
1.03098
1.02507
1.0197
1.01505
1.0112
1.00814
1.00578
1.00402
1.00275
1.00184
1.00122
1.00079
1.0005
1.00032
1.0002
1.00012
1.00007
1.00004
1.00002
1.00001
1.00001
1
1
1
1
1
1
1
1
1
1
1
1
1
1
1
1
1
1
1
1.08015
1.08066
1.08112
1.08152
1.08187
1.08218
1.08245
1.08269
1.08289
1.08307
1.08322
1.08336
1.08347
1.08357
1.08366
1.08373
1.0838
1.08385
1.08388
1.08391
1.08393
1.08394
1.08394
1.08393
1.08392
1.0839
1.08388
1.08386
1.08384
1.08381
1.08379
1.08377
1.08375
1.08374
1.08373
1.08372
1.08371
1.0837
1.0837
1.0837
1.0837
1.0837
1.0837
1.0837
1.0837
1.0837
1.0837
1.08369
1.08369
1.08368
1.08367
1.08366
1.08365
1.08363
1.08361
1.08359
1.08356
1.08353
1.08349
1.08345
1.08341
1.08337
1.08333
1.08328
1.08324
1.0832
1.08316
1.08313
1.0831
1.08308
1.08308
1.08309
1.08311
1.08314
1.0832
1.08328
1.08338
1.0835
1.08365
1.08382
1.08403
1.08427
1.08454
1.08484
1.08517
1.08553
1.08592
1.08634
1.08679
1.08725
1.08775
1.08826
1.08878
1.08932
1.08986
1.09041
1.09096
1.0915
1.09203
1.09254
1.09304
1.0935
1.09394
1.09436
1.09473
1.09508
1.09539
1.09567
1.09591
1.09613
1.09631
1.09647
1.0966
1.09672
1.09681
1.09689
1.09696
1.09701
1.09705
1.09709
1.09712
1.09715
1.09718
1.09721
1.09723
1.09726
1.09729
1.09733
1.09737
1.09743
1.09749
1.09756
1.09765
1.09776
1.09789
1.09804
1.09822
1.09843
1.09867
1.09895
1.09926
1.09962
1.1
1.10043
1.10088
1.10137
1.10188
1.1024
1.10293
1.10346
1.10399
1.10449
1.10498
1.10544
1.10586
1.10624
1.10658
1.10687
1.10712
1.10733
1.1075
1.10764
1.10774
1.10782
1.10788
1.10792
1.10795
1.10798
1.108
1.10802
1.10804
1.10806
1.10809
1.10813
1.10817
1.10821
1.10825
1.1083
1.10834
1.10838
1.10841
1.10844
1.10845
1.10845
1.10844
1.10841
1.10836
1.10828
1.10818
1.10805
1.10789
1.10769
1.10746
1.10719
1.10688
1.10652
1.10612
1.10567
1.10517
1.10462
1.10403
1.10338
1.1027
1.10196
1.10119
1.10038
1.09953
1.09865
1.09775
1.09682
1.09589
1.09494
1.09399
1.09304
1.0921
1.09118
1.09027
1.0894
1.08855
1.08774
1.08697
1.08625
1.08558
1.08496
1.08439
1.08388
1.08343
1.08303
1.08269
1.08242
1.0822
1.08203
1.08192
1.08186
1.08186
1.0819
1.08199
1.08213
1.0823
1.08251
1.08276
1.08304
1.08335
1.08368
1.08404
1.08443
1.08483
1.08525
1.08569
1.08615
1.08662
1.08711
1.08761
1.08812
1.08864
1.08918
1.08973
1.09029
1.09087
1.09145
1.09205
1.09266
1.09328
1.09391
1.09456
1.09521
1.09588
1.09655
1.09723
1.09792
1.09862
1.09932
1.10002
1.10072
1.10142
1.10212
1.10282
1.10351
1.1042
1.10488
1.10556
1.10622
1.10688
1.10752
1.10815
1.10877
1.10937
1.10996
1.11053
1.11109
1.11162
1.11214
1.11265
1.11314
1.11361
1.11407
1.11452
1.11495
1.11537
1.11577
1.11616
1.11653
1.11687
1.11719
1.11746
1.11768
1.11784