# vtk DataFile Version 2.0
LBE two cylinders
ASCII
DATASET STRUCTURED_POINTS
DIMENSIONS 400 100 1
ASPECT_RATIO 1 1 1
ORIGIN 0 0 0
POINT_DATA 40000
SCALARS rho double 1
LOOKUP_TABLE default
1.08829
1.08834
1.0884
1.08846
1.08851
1.08856
1.0886
1.08864
1.08867
1.0887
1.08872
1.08874
1.08875
1.08875
1.08875
1.08874
1.08873
1.08871
1.08869
1.08867
1.08864
1.08861
1.08858
1.08855
1.08852
1.08848
1.08845
1.08843
1.0884
1.08838
1.08836
1.08835
1.08834
1.08834
1.08835
1.08837
1.08839
1.08843
1.08848
1.08853
1.08861
1.08869
1.08878
1.08889
1.08901
1.08914
1.08929
1.08944
1.08961
1.08978
1.08997
1.09016
1.09036
1.09056
1.09078
1.09099
1.09121
1.09143
1.09165
1.09188
1.0921
1.09233
1.09255
1.09278
1.09301
1.09324
1.09347
1.0937
1.09394
1.09418
1.09442
1.09467
1.09493
1.09519
1.09546
1.09574
1.09603
1.09633
1.09664
1.09696
1.09728
1.09762
1.09797
1.09832
1.09868
1.09905
1.09941
1.09978
1.10015
1.1005
1.10085
1.10119
1.10152
1.10182
1.10211
1.10237
1.10261
1.10283
1.10302
1.10318
1.10331
1.10341
1.10349
1.10355
1.10358
1.10359
1.10357
1.10354
1.1035
1.10343
1.10336
1.10327
1.10317
1.10306
1.10294
1.10282
1.10268
1.10254
1.10239
1.10224
1.10208
1.10191
1.10174
1.10156
1.10138
1.1012
1.10101
1.10081
1.10062
1.10042
1.10021
1.10001
1.09981
1.0996
1.0994
1.09919
1.09899
1.09879
1.09859
1.0984
1.09821
1.09802
1.09784
1.09767
1.0975
1.09734
1.09718
1.09704
1.0969
1.09678
1.09666
1.09655
1.09645
1.09636
1.09629
1.09622
1.09616
1.09612
1.09608
1.09605
1.09603
1.09601
1.09601
1.09601
1.09602
1.09603
1.09605
1.09607
1.09609
1.09612
1.09615
1.09618
1.09622
1.09626
1.09629
1.09633
1.09637
1.0964
1.09644
1.09647
1.0965
1.09653
1.09656
1.09659
1.09661
1.09663
1.09665
1.09666
1.09667
1.09667
1.09667
1.09666
1.09666
1.09664
1.09663
1.09661
1.09658
1.09656
1.09653
1.0965
1.09648
1.09645
1.09643
1.09641
1.0964
1.09639
1.09638
1.09639
1.0964
1.09642
1.09645
1.09649
1.09653
1.09659
1.09665
1.09672
1.0968
1.09688
1.09696
1.09705
1.09715
1.09724
1.09733
1.09742
1.09751
1.0976
1.09768
1.09776
1.09784
1.09791
1.09798
1.09804
1.0981
1.09815
1.0982
1.09824
1.09829
1.09833
1.09837
1.0984
1.09844
1.09848
1.09852
1.09856
1.0986
1.09864
1.09869
1.09874
1.0988
1.09886
1.09893
1.099
1.09908
1.09917
1.09926
1.09936
1.09947
1.09958
1.09971
1.09984
1.09998
1.10012
1.10028
1.10045
1.10062
1.10081
1.10101
1.10123
1.10146
1.1017
1.10197
1.10225
1.10256
1.10289
1.10325
1.10364
1.10405
1.1045
1.10499
1.1055
1.10605
1.10663
1.10724
1.10789
1.10856
1.10926
1.10997
1.11071
1.11145
1.1122
1.11295
1.11368
1.1144
1.11508
1.11572
1.1163
1.11682
1.11725
1.11758
1.11779
1.11786
1.11778
1.11754
1.11712
1.1165
1.11569
1.11467
1.11346
1.11206
1.11047
1.10871
1.10681
1.10478
1.10265
1.10044
1.09817
1.09586
1.09354
1.09122
1.08892
1.08666
1.08446
1.08233
1.08029
1.07836
1.07654
1.07484
1.07328
1.07186
1.07058
1.06944
1.06844
1.06756
1.06679
1.06613
1.06557
1.06509
1.06468
1.06434
1.06407
1.06384
1.06366
1.06353
1.06343
1.06336
1.06332
1.06331
1.06332
1.06335
1.0634
1.06346
1.06353
1.06361
1.0637
1.06379
1.06389
1.06398
1.06408
1.06417
1.06426
1.06435
1.06442
1.06449
1.06455
1.0646
1.06463
1.06466
1.06469
1.06471
1.06473
1.06475
1.06479
1.06485
1.06492
1.06502
1.06515
1.06531
1.0655
1.06573
1.06598
1.06627
1.06659
1.06694
1.06731
1.06771
1.06814
1.06858
1.06905
1.06955
1.07006
1.07059
1.07114
1.07171
1.07229
1.07289
1.0735
1.07411
1.07473
1.07537
1.07598
1.08828
1.08834
1.08839
1.08845
1.0885
1.08854
1.08859
1.08862
1.08866
1.08868
1.0887
1.08872
1.08873
1.08873
1.08873
1.08872
1.08871
1.0887
1.08868
1.08865
1.08863
1.0886
1.08857
1.08854
1.08851
1.08848
1.08845
1.08842
1.0884
1.08838
1.08836
1.08835
1.08834
1.08834
1.08835
1.08837
1.0884
1.08844
1.08849
1.08855
1.08862
1.0887
1.0888
1.0889
1.08902
1.08916
1.0893
1.08945
1.08962
1.08979
1.08997
1.09016
1.09036
1.09057
1.09077
1.09099
1.0912
1.09142
1.09165
1.09187
1.09209
1.09232
1.09254
1.09277
1.093
1.09322
1.09346
1.09369
1.09393
1.09417
1.09441
1.09466
1.09492
1.09518
1.09545
1.09573
1.09602
1.09632
1.09662
1.09694
1.09727
1.0976
1.09794
1.09829
1.09865
1.099
1.09937
1.09973
1.10008
1.10043
1.10078
1.10111
1.10143
1.10173
1.10201
1.10227
1.10251
1.10272
1.10291
1.10307
1.1032
1.10331
1.10339
1.10344
1.10348
1.10349
1.10348
1.10346
1.10341
1.10335
1.10328
1.1032
1.1031
1.103
1.10288
1.10276
1.10263
1.10249
1.10234
1.10219
1.10203
1.10187
1.1017
1.10153
1.10135
1.10116
1.10097
1.10078
1.10059
1.10039
1.10019
1.09999
1.09979
1.09959
1.09938
1.09918
1.09898
1.09878
1.09859
1.09839
1.09821
1.09802
1.09784
1.09767
1.0975
1.09734
1.09719
1.09705
1.09691
1.09678
1.09667
1.09656
1.09646
1.09637
1.0963
1.09623
1.09617
1.09612
1.09609
1.09606
1.09603
1.09602
1.09601
1.09601
1.09602
1.09603
1.09605
1.09607
1.09609
1.09612
1.09615
1.09618
1.09622
1.09625
1.09629
1.09632
1.09636
1.0964
1.09643
1.09646
1.0965
1.09653
1.09656
1.09658
1.0966
1.09662
1.09664
1.09665
1.09666
1.09666
1.09667
1.09666
1.09665
1.09664
1.09663
1.09661
1.09659
1.09656
1.09654
1.09651
1.09649
1.09646
1.09644
1.09642
1.09641
1.0964
1.0964
1.0964
1.09641
1.09643
1.09646
1.0965
1.09654
1.0966
1.09666
1.09673
1.0968
1.09688
1.09696
1.09705
1.09714
1.09723
1.09733
1.09742
1.0975
1.09759
1.09767
1.09775
1.09783
1.0979
1.09797
1.09803
1.09809
1.09814
1.09819
1.09824
1.09828
1.09832
1.09836
1.0984
1.09844
1.09848
1.09852
1.09856
1.0986
1.09865
1.0987
1.09876
1.09881
1.09888
1.09895
1.09902
1.0991
1.09919
1.09928
1.09938
1.09949
1.09961
1.09973
1.09987
1.10001
1.10016
1.10031
1.10048
1.10066
1.10085
1.10105
1.10126
1.10149
1.10174
1.102
1.10229
1.10259
1.10292
1.10328
1.10366
1.10407
1.10452
1.10499
1.1055
1.10604
1.10661
1.10721
1.10783
1.10849
1.10917
1.10987
1.11058
1.11131
1.11203
1.11276
1.11347
1.11415
1.11481
1.11542
1.11598
1.11646
1.11687
1.11717
1.11735
1.1174
1.1173
1.11704
1.1166
1.11598
1.11516
1.11415
1.11295
1.11157
1.11001
1.1083
1.10644
1.10447
1.10239
1.10024
1.09803
1.09579
1.09353
1.09127
1.08903
1.08683
1.08467
1.08259
1.08059
1.07868
1.07689
1.07521
1.07367
1.07225
1.07097
1.06983
1.06881
1.06791
1.06713
1.06645
1.06586
1.06536
1.06493
1.06457
1.06427
1.06403
1.06383
1.06368
1.06356
1.06348
1.06343
1.06341
1.06341
1.06343
1.06347
1.06352
1.06358
1.06366
1.06374
1.06383
1.06392
1.06401
1.0641
1.06419
1.06428
1.06436
1.06443
1.06449
1.06455
1.06459
1.06463
1.06466
1.06468
1.0647
1.06473
1.06476
1.0648
1.06486
1.06493
1.06504
1.06517
1.06533
1.06553
1.06575
1.06601
1.0663
1.06661
1.06696
1.06733
1.06773
1.06815
1.0686
1.06907
1.06956
1.07007
1.0706
1.07115
1.07171
1.07229
1.07288
1.07349
1.0741
1.07472
1.07534
1.07596
1.08826
1.08832
1.08837
1.08842
1.08847
1.08852
1.08856
1.0886
1.08863
1.08865
1.08867
1.08869
1.0887
1.0887
1.0887
1.08869
1.08868
1.08867
1.08865
1.08863
1.0886
1.08858
1.08855
1.08852
1.08849
1.08846
1.08843
1.08841
1.08839
1.08837
1.08835
1.08834
1.08834
1.08834
1.08835
1.08837
1.0884
1.08844
1.08849
1.08855
1.08862
1.08871
1.0888
1.08891
1.08903
1.08916
1.0893
1.08945
1.08961
1.08979
1.08996
1.09015
1.09035
1.09055
1.09075
1.09096
1.09118
1.09139
1.09161
1.09183
1.09205
1.09227
1.0925
1.09272
1.09295
1.09318
1.09341
1.09364
1.09388
1.09412
1.09437
1.09462
1.09487
1.09514
1.09541
1.09569
1.09598
1.09628
1.09659
1.0969
1.09723
1.09756
1.0979
1.09825
1.0986
1.09896
1.09932
1.09967
1.10003
1.10037
1.10071
1.10104
1.10136
1.10165
1.10193
1.10219
1.10243
1.10264
1.10282
1.10298
1.10311
1.10322
1.1033
1.10336
1.1034
1.10341
1.1034
1.10338
1.10334
1.10328
1.10321
1.10313
1.10304
1.10293
1.10282
1.1027
1.10257
1.10244
1.10229
1.10214
1.10199
1.10182
1.10166
1.10148
1.10131
1.10112
1.10094
1.10075
1.10056
1.10036
1.10016
1.09996
1.09976
1.09956
1.09936
1.09916
1.09896
1.09877
1.09857
1.09838
1.09819
1.09801
1.09783
1.09766
1.0975
1.09734
1.09719
1.09705
1.09691
1.09679
1.09667
1.09656
1.09647
1.09638
1.0963
1.09623
1.09617
1.09613
1.09609
1.09606
1.09603
1.09602
1.09601
1.09601
1.09601
1.09603
1.09604
1.09606
1.09608
1.09611
1.09614
1.09617
1.09621
1.09624
1.09628
1.09631
1.09635
1.09638
1.09642
1.09645
1.09648
1.09651
1.09654
1.09657
1.09659
1.09661
1.09663
1.09664
1.09665
1.09666
1.09666
1.09666
1.09665
1.09664
1.09663
1.09661
1.09659
1.09657
1.09655
1.09652
1.0965
1.09648
1.09646
1.09644
1.09643
1.09642
1.09642
1.09642
1.09643
1.09645
1.09648
1.09651
1.09656
1.09661
1.09667
1.09673
1.09681
1.09688
1.09697
1.09705
1.09714
1.09723
1.09732
1.09741
1.09749
1.09758
1.09766
1.09774
1.09781
1.09789
1.09795
1.09801
1.09807
1.09813
1.09818
1.09823
1.09827
1.09831
1.09836
1.0984
1.09844
1.09848
1.09852
1.09857
1.09861
1.09866
1.09872
1.09877
1.09884
1.0989
1.09897
1.09905
1.09914
1.09923
1.09932
1.09943
1.09954
1.09966
1.09978
1.09992
1.10006
1.10021
1.10037
1.10054
1.10072
1.10091
1.10111
1.10132
1.10155
1.1018
1.10206
1.10234
1.10264
1.10297
1.10331
1.10369
1.10409
1.10452
1.10498
1.10548
1.106
1.10655
1.10712
1.10773
1.10836
1.10901
1.10968
1.11036
1.11105
1.11174
1.11242
1.11309
1.11374
1.11435
1.11492
1.11544
1.11588
1.11624
1.1165
1.11664
1.11666
1.11653
1.11625
1.11579
1.11516
1.11434
1.11335
1.11217
1.11082
1.10931
1.10765
1.10586
1.10397
1.10198
1.09992
1.09781
1.09566
1.0935
1.09134
1.08919
1.08707
1.085
1.08299
1.08105
1.0792
1.07744
1.0758
1.07428
1.07288
1.0716
1.07045
1.06941
1.0685
1.06768
1.06697
1.06635
1.06581
1.06535
1.06496
1.06462
1.06434
1.06412
1.06393
1.06379
1.06369
1.06362
1.06357
1.06355
1.06356
1.06358
1.06362
1.06367
1.06374
1.06381
1.06389
1.06397
1.06405
1.06414
1.06422
1.0643
1.06438
1.06444
1.0645
1.06455
1.06459
1.06463
1.06465
1.06468
1.0647
1.06473
1.06476
1.06481
1.06487
1.06495
1.06506
1.0652
1.06536
1.06556
1.06578
1.06604
1.06633
1.06664
1.06699
1.06736
1.06775
1.06817
1.06861
1.06908
1.06957
1.07008
1.0706
1.07115
1.07171
1.07229
1.07288
1.07348
1.07409
1.07471
1.07532
1.07594
1.08824
1.08829
1.08835
1.08839
1.08844
1.08848
1.08852
1.08856
1.08859
1.08861
1.08863
1.08865
1.08866
1.08866
1.08866
1.08865
1.08864
1.08863
1.08861
1.08859
1.08857
1.08854
1.08852
1.08849
1.08846
1.08844
1.08841
1.08839
1.08837
1.08835
1.08834
1.08833
1.08833
1.08833
1.08835
1.08837
1.0884
1.08844
1.08849
1.08855
1.08862
1.08871
1.0888
1.08891
1.08902
1.08915
1.08929
1.08944
1.0896
1.08976
1.08994
1.09012
1.09031
1.09051
1.09071
1.09091
1.09112
1.09133
1.09154
1.09176
1.09198
1.0922
1.09242
1.09264
1.09286
1.09309
1.09332
1.09356
1.09379
1.09404
1.09428
1.09454
1.0948
1.09507
1.09534
1.09562
1.09592
1.09622
1.09653
1.09684
1.09717
1.09751
1.09785
1.09819
1.09855
1.0989
1.09926
1.09961
1.09997
1.10031
1.10065
1.10098
1.10129
1.10159
1.10187
1.10212
1.10236
1.10256
1.10275
1.10291
1.10304
1.10315
1.10323
1.10329
1.10332
1.10334
1.10333
1.10331
1.10327
1.10321
1.10314
1.10306
1.10297
1.10287
1.10276
1.10264
1.10251
1.10238
1.10224
1.10209
1.10193
1.10177
1.10161
1.10144
1.10126
1.10108
1.1009
1.10071
1.10052
1.10032
1.10013
1.09993
1.09973
1.09953
1.09933
1.09913
1.09894
1.09874
1.09855
1.09836
1.09817
1.09799
1.09782
1.09765
1.09748
1.09733
1.09718
1.09704
1.0969
1.09678
1.09666
1.09656
1.09646
1.09637
1.0963
1.09623
1.09617
1.09612
1.09608
1.09605
1.09603
1.09601
1.096
1.096
1.096
1.09601
1.09603
1.09605
1.09607
1.0961
1.09612
1.09616
1.09619
1.09622
1.09626
1.09629
1.09633
1.09636
1.0964
1.09643
1.09647
1.0965
1.09653
1.09655
1.09658
1.0966
1.09662
1.09663
1.09664
1.09665
1.09665
1.09665
1.09665
1.09664
1.09663
1.09661
1.0966
1.09658
1.09656
1.09654
1.09652
1.0965
1.09648
1.09646
1.09645
1.09644
1.09644
1.09645
1.09646
1.09648
1.0965
1.09654
1.09658
1.09663
1.09668
1.09674
1.09681
1.09689
1.09697
1.09705
1.09713
1.09722
1.09731
1.09739
1.09748
1.09756
1.09764
1.09772
1.09779
1.09786
1.09793
1.09799
1.09805
1.09811
1.09816
1.09821
1.09826
1.0983
1.09835
1.09839
1.09843
1.09848
1.09853
1.09857
1.09862
1.09868
1.09874
1.0988
1.09886
1.09894
1.09901
1.0991
1.09918
1.09928
1.09938
1.09949
1.0996
1.09972
1.09985
1.09999
1.10013
1.10029
1.10045
1.10062
1.1008
1.10099
1.10119
1.1014
1.10163
1.10187
1.10213
1.1024
1.1027
1.10302
1.10336
1.10372
1.10411
1.10452
1.10496
1.10543
1.10593
1.10645
1.107
1.10757
1.10816
1.10877
1.1094
1.11004
1.11068
1.11132
1.11195
1.11257
1.11316
1.11372
1.11423
1.11469
1.11508
1.11538
1.11559
1.11569
1.11567
1.1155
1.11519
1.11472
1.11408
1.11327
1.11229
1.11114
1.10984
1.10839
1.1068
1.1051
1.1033
1.10142
1.09948
1.09749
1.09547
1.09344
1.0914
1.08937
1.08737
1.08541
1.08349
1.08164
1.07986
1.07817
1.07658
1.07509
1.07371
1.07244
1.07128
1.07023
1.06929
1.06844
1.06769
1.06703
1.06645
1.06594
1.06549
1.06511
1.06479
1.06452
1.0643
1.06412
1.06398
1.06388
1.06381
1.06376
1.06374
1.06374
1.06376
1.0638
1.06385
1.06391
1.06397
1.06404
1.06412
1.06419
1.06427
1.06434
1.0644
1.06446
1.06452
1.06456
1.0646
1.06463
1.06465
1.06468
1.0647
1.06473
1.06477
1.06482
1.06488
1.06497
1.06509
1.06523
1.06539
1.06559
1.06582
1.06608
1.06636
1.06668
1.06702
1.06739
1.06778
1.06819
1.06863
1.0691
1.06958
1.07009
1.07061
1.07116
1.07171
1.07229
1.07287
1.07347
1.07408
1.07469
1.07531
1.07594
1.08821
1.08826
1.08831
1.08836
1.0884
1.08844
1.08848
1.08851
1.08854
1.08856
1.08858
1.08859
1.0886
1.08861
1.08861
1.0886
1.08859
1.08858
1.08856
1.08855
1.08852
1.0885
1.08848
1.08845
1.08843
1.0884
1.08838
1.08836
1.08834
1.08833
1.08832
1.08831
1.08831
1.08832
1.08833
1.08836
1.08839
1.08843
1.08848
1.08854
1.08862
1.0887
1.08879
1.0889
1.08901
1.08914
1.08927
1.08941
1.08957
1.08973
1.0899
1.09007
1.09026
1.09044
1.09064
1.09083
1.09103
1.09124
1.09145
1.09166
1.09187
1.09208
1.0923
1.09252
1.09274
1.09297
1.0932
1.09343
1.09367
1.09392
1.09417
1.09442
1.09469
1.09496
1.09524
1.09553
1.09582
1.09613
1.09644
1.09676
1.09709
1.09743
1.09777
1.09812
1.09848
1.09883
1.09919
1.09955
1.0999
1.10025
1.10059
1.10091
1.10123
1.10153
1.1018
1.10206
1.10229
1.1025
1.10269
1.10284
1.10297
1.10308
1.10316
1.10322
1.10325
1.10326
1.10326
1.10323
1.10319
1.10314
1.10307
1.10299
1.1029
1.1028
1.10269
1.10257
1.10245
1.10231
1.10217
1.10203
1.10187
1.10171
1.10155
1.10138
1.10121
1.10103
1.10084
1.10066
1.10047
1.10027
1.10008
1.09988
1.09969
1.09949
1.09929
1.09909
1.0989
1.09871
1.09851
1.09833
1.09814
1.09797
1.09779
1.09762
1.09746
1.09731
1.09716
1.09702
1.09689
1.09677
1.09665
1.09655
1.09645
1.09636
1.09629
1.09622
1.09616
1.09611
1.09607
1.09604
1.09601
1.096
1.09599
1.09598
1.09599
1.096
1.09601
1.09603
1.09605
1.09607
1.0961
1.09613
1.09617
1.0962
1.09623
1.09627
1.09631
1.09634
1.09638
1.09641
1.09644
1.09647
1.0965
1.09653
1.09656
1.09658
1.0966
1.09661
1.09663
1.09664
1.09664
1.09664
1.09664
1.09664
1.09663
1.09662
1.0966
1.09659
1.09657
1.09655
1.09654
1.09652
1.0965
1.09649
1.09648
1.09647
1.09647
1.09648
1.09649
1.0965
1.09653
1.09656
1.0966
1.09665
1.0967
1.09676
1.09682
1.09689
1.09697
1.09705
1.09713
1.09721
1.0973
1.09738
1.09746
1.09754
1.09762
1.0977
1.09777
1.09784
1.09791
1.09797
1.09803
1.09808
1.09814
1.09819
1.09824
1.09829
1.09833
1.09838
1.09843
1.09848
1.09853
1.09858
1.09864
1.0987
1.09876
1.09883
1.0989
1.09898
1.09906
1.09915
1.09924
1.09934
1.09945
1.09956
1.09968
1.09981
1.09994
1.10008
1.10022
1.10038
1.10054
1.10071
1.10089
1.10108
1.10128
1.10149
1.10171
1.10195
1.1022
1.10247
1.10276
1.10307
1.10339
1.10374
1.10411
1.1045
1.10492
1.10536
1.10582
1.10631
1.10681
1.10734
1.10789
1.10845
1.10902
1.1096
1.11019
1.11076
1.11133
1.11188
1.11241
1.1129
1.11335
1.11374
1.11406
1.11431
1.11446
1.11451
1.11444
1.11425
1.11391
1.11342
1.11278
1.11198
1.11103
1.10992
1.10867
1.10729
1.1058
1.1042
1.10251
1.10076
1.09895
1.0971
1.09523
1.09334
1.09145
1.08957
1.0877
1.08587
1.08407
1.08233
1.08064
1.07903
1.0775
1.07606
1.07471
1.07345
1.0723
1.07124
1.07027
1.06939
1.0686
1.06788
1.06725
1.06668
1.06619
1.06575
1.06537
1.06505
1.06478
1.06456
1.06437
1.06423
1.06412
1.06404
1.06399
1.06396
1.06396
1.06397
1.064
1.06404
1.06408
1.06414
1.0642
1.06426
1.06432
1.06438
1.06444
1.06449
1.06453
1.06457
1.0646
1.06463
1.06465
1.06468
1.0647
1.06473
1.06477
1.06483
1.0649
1.065
1.06512
1.06526
1.06544
1.06564
1.06587
1.06612
1.06641
1.06672
1.06706
1.06742
1.06781
1.06822
1.06866
1.06912
1.0696
1.07011
1.07063
1.07117
1.07172
1.07229
1.07287
1.07347
1.07407
1.07468
1.07531
1.07593
1.08818
1.08822
1.08827
1.08831
1.08835
1.08839
1.08842
1.08845
1.08848
1.0885
1.08852
1.08853
1.08854
1.08855
1.08855
1.08854
1.08853
1.08852
1.08851
1.08849
1.08847
1.08845
1.08843
1.08841
1.08838
1.08836
1.08834
1.08832
1.08831
1.0883
1.08829
1.08829
1.08829
1.0883
1.08832
1.08834
1.08838
1.08842
1.08847
1.08853
1.0886
1.08868
1.08877
1.08888
1.08899
1.08911
1.08924
1.08937
1.08952
1.08967
1.08983
1.09
1.09018
1.09035
1.09054
1.09073
1.09092
1.09112
1.09132
1.09152
1.09173
1.09194
1.09215
1.09237
1.09259
1.09281
1.09304
1.09328
1.09352
1.09376
1.09402
1.09428
1.09454
1.09482
1.0951
1.09539
1.09569
1.096
1.09632
1.09665
1.09698
1.09732
1.09767
1.09802
1.09838
1.09874
1.0991
1.09946
1.09981
1.10016
1.1005
1.10083
1.10115
1.10145
1.10173
1.10199
1.10222
1.10243
1.10261
1.10277
1.1029
1.10301
1.10309
1.10314
1.10317
1.10319
1.10318
1.10315
1.10311
1.10306
1.10299
1.10291
1.10282
1.10272
1.10261
1.10249
1.10237
1.10224
1.1021
1.10195
1.1018
1.10164
1.10148
1.10131
1.10114
1.10096
1.10078
1.1006
1.10041
1.10022
1.10002
1.09983
1.09963
1.09944
1.09924
1.09904
1.09885
1.09866
1.09847
1.09828
1.0981
1.09793
1.09776
1.09759
1.09743
1.09728
1.09713
1.09699
1.09686
1.09674
1.09663
1.09653
1.09643
1.09635
1.09627
1.0962
1.09614
1.09609
1.09605
1.09602
1.096
1.09598
1.09597
1.09596
1.09597
1.09597
1.09599
1.096
1.09602
1.09605
1.09608
1.09611
1.09614
1.09617
1.09621
1.09624
1.09628
1.09631
1.09635
1.09638
1.09642
1.09645
1.09648
1.09651
1.09653
1.09656
1.09658
1.09659
1.09661
1.09662
1.09663
1.09663
1.09664
1.09663
1.09663
1.09662
1.09661
1.0966
1.09659
1.09657
1.09656
1.09655
1.09653
1.09652
1.09651
1.09651
1.09651
1.09651
1.09652
1.09654
1.09656
1.09659
1.09663
1.09667
1.09672
1.09677
1.09684
1.0969
1.09697
1.09705
1.09712
1.0972
1.09728
1.09736
1.09744
1.09752
1.0976
1.09767
1.09774
1.09781
1.09788
1.09794
1.098
1.09806
1.09811
1.09817
1.09822
1.09827
1.09832
1.09837
1.09843
1.09848
1.09854
1.0986
1.09866
1.09872
1.09879
1.09887
1.09895
1.09903
1.09912
1.09922
1.09932
1.09942
1.09953
1.09965
1.09977
1.0999
1.10004
1.10018
1.10033
1.10048
1.10065
1.10082
1.10099
1.10118
1.10138
1.10159
1.1018
1.10204
1.10228
1.10254
1.10281
1.1031
1.10341
1.10373
1.10408
1.10444
1.10483
1.10523
1.10565
1.1061
1.10656
1.10703
1.10752
1.10803
1.10854
1.10905
1.10956
1.11007
1.11057
1.11104
1.11149
1.11191
1.11229
1.11261
1.11287
1.11305
1.11315
1.11315
1.11304
1.11281
1.11245
1.11196
1.11132
1.11054
1.10963
1.10857
1.10739
1.10609
1.10469
1.1032
1.10164
1.10002
1.09835
1.09665
1.09493
1.0932
1.09147
1.08974
1.08803
1.08634
1.08468
1.08306
1.08148
1.07997
1.07852
1.07714
1.07584
1.07461
1.07347
1.0724
1.07141
1.0705
1.06967
1.06891
1.06822
1.06759
1.06703
1.06653
1.06609
1.06571
1.06538
1.0651
1.06486
1.06467
1.06451
1.06439
1.0643
1.06424
1.0642
1.06418
1.06419
1.0642
1.06423
1.06426
1.06431
1.06435
1.0644
1.06444
1.06449
1.06452
1.06456
1.06459
1.06461
1.06463
1.06465
1.06468
1.0647
1.06474
1.06479
1.06485
1.06493
1.06503
1.06516
1.06531
1.06548
1.06569
1.06592
1.06618
1.06646
1.06677
1.06711
1.06747
1.06785
1.06826
1.06869
1.06915
1.06963
1.07013
1.07065
1.07118
1.07173
1.0723
1.07288
1.07347
1.07407
1.07468
1.0753
1.07592
1.08814
1.08818
1.08822
1.08826
1.0883
1.08833
1.08836
1.08839
1.08841
1.08843
1.08845
1.08846
1.08847
1.08848
1.08848
1.08847
1.08847
1.08846
1.08844
1.08843
1.08841
1.08839
1.08837
1.08836
1.08834
1.08832
1.0883
1.08828
1.08827
1.08826
1.08826
1.08826
1.08826
1.08827
1.08829
1.08832
1.08835
1.0884
1.08845
1.08851
1.08858
1.08866
1.08874
1.08884
1.08895
1.08906
1.08918
1.08931
1.08945
1.0896
1.08975
1.08991
1.09007
1.09024
1.09042
1.09059
1.09078
1.09097
1.09116
1.09135
1.09155
1.09176
1.09197
1.09218
1.0924
1.09262
1.09285
1.09309
1.09333
1.09358
1.09384
1.0941
1.09437
1.09465
1.09494
1.09523
1.09554
1.09585
1.09618
1.09651
1.09684
1.09719
1.09754
1.0979
1.09826
1.09862
1.09898
1.09935
1.09971
1.10006
1.1004
1.10074
1.10106
1.10136
1.10164
1.1019
1.10214
1.10235
1.10254
1.10269
1.10282
1.10293
1.10301
1.10306
1.10309
1.1031
1.10309
1.10306
1.10302
1.10297
1.1029
1.10282
1.10273
1.10263
1.10252
1.1024
1.10228
1.10215
1.10201
1.10187
1.10172
1.10156
1.1014
1.10124
1.10106
1.10089
1.10071
1.10052
1.10034
1.10015
1.09995
1.09976
1.09957
1.09937
1.09918
1.09898
1.09879
1.0986
1.09841
1.09823
1.09805
1.09788
1.09771
1.09754
1.09739
1.09724
1.09709
1.09696
1.09683
1.09671
1.0966
1.0965
1.0964
1.09632
1.09624
1.09618
1.09612
1.09607
1.09603
1.09599
1.09597
1.09595
1.09594
1.09594
1.09594
1.09594
1.09596
1.09597
1.09599
1.09602
1.09604
1.09607
1.0961
1.09614
1.09617
1.09621
1.09624
1.09628
1.09631
1.09635
1.09638
1.09642
1.09645
1.09648
1.09651
1.09653
1.09655
1.09657
1.09659
1.09661
1.09662
1.09663
1.09663
1.09663
1.09663
1.09663
1.09662
1.09662
1.09661
1.0966
1.09658
1.09657
1.09656
1.09656
1.09655
1.09655
1.09655
1.09655
1.09656
1.09657
1.0966
1.09662
1.09666
1.09669
1.09674
1.09679
1.09685
1.09691
1.09698
1.09705
1.09712
1.0972
1.09727
1.09735
1.09742
1.0975
1.09757
1.09765
1.09772
1.09779
1.09785
1.09791
1.09797
1.09803
1.09809
1.09814
1.0982
1.09825
1.09831
1.09837
1.09842
1.09848
1.09855
1.09861
1.09868
1.09875
1.09883
1.09891
1.099
1.09909
1.09919
1.09929
1.0994
1.09951
1.09963
1.09975
1.09987
1.10001
1.10015
1.10029
1.10044
1.10059
1.10076
1.10092
1.1011
1.10128
1.10148
1.10168
1.10189
1.10211
1.10234
1.10258
1.10284
1.10311
1.10339
1.10369
1.10401
1.10433
1.10468
1.10504
1.10542
1.10581
1.10621
1.10663
1.10705
1.10749
1.10792
1.10836
1.1088
1.10923
1.10965
1.11005
1.11042
1.11076
1.11106
1.11131
1.11151
1.11163
1.11168
1.11164
1.1115
1.11125
1.11088
1.11039
1.10977
1.10902
1.10815
1.10715
1.10604
1.10483
1.10353
1.10215
1.10072
1.09923
1.0977
1.09615
1.09459
1.09302
1.09144
1.08988
1.08832
1.08678
1.08527
1.08379
1.08234
1.08094
1.07959
1.07829
1.07705
1.07587
1.07475
1.07369
1.07269
1.07176
1.07089
1.07008
1.06933
1.06865
1.06802
1.06746
1.06695
1.0665
1.0661
1.06576
1.06546
1.06521
1.065
1.06482
1.06469
1.06458
1.06451
1.06445
1.06442
1.06441
1.06441
1.06442
1.06444
1.06446
1.06449
1.06452
1.06454
1.06457
1.06459
1.06461
1.06462
1.06464
1.06466
1.06468
1.06471
1.06475
1.0648
1.06487
1.06496
1.06507
1.0652
1.06536
1.06554
1.06575
1.06598
1.06624
1.06652
1.06683
1.06716
1.06752
1.0679
1.06831
1.06873
1.06919
1.06966
1.07016
1.07067
1.0712
1.07175
1.07231
1.07289
1.07347
1.07407
1.07468
1.07529
1.0759
1.0881
1.08813
1.08817
1.0882
1.08824
1.08827
1.0883
1.08832
1.08834
1.08836
1.08838
1.08839
1.0884
1.0884
1.0884
1.0884
1.08839
1.08839
1.08838
1.08836
1.08835
1.08833
1.08831
1.0883
1.08828
1.08826
1.08825
1.08824
1.08823
1.08822
1.08822
1.08822
1.08823
1.08824
1.08826
1.08829
1.08833
1.08837
1.08842
1.08848
1.08854
1.08862
1.0887
1.08879
1.08889
1.089
1.08912
1.08924
1.08937
1.0895
1.08964
1.08979
1.08994
1.0901
1.09026
1.09043
1.09061
1.09079
1.09097
1.09116
1.09135
1.09155
1.09176
1.09197
1.09218
1.09241
1.09263
1.09287
1.09311
1.09337
1.09362
1.09389
1.09417
1.09445
1.09474
1.09504
1.09535
1.09567
1.096
1.09633
1.09667
1.09702
1.09737
1.09773
1.0981
1.09847
1.09883
1.0992
1.09957
1.09992
1.10027
1.10061
1.10094
1.10124
1.10153
1.10179
1.10204
1.10225
1.10244
1.10259
1.10272
1.10283
1.10291
1.10296
1.10299
1.10299
1.10298
1.10296
1.10291
1.10285
1.10279
1.10271
1.10262
1.10252
1.10241
1.1023
1.10218
1.10205
1.10191
1.10177
1.10162
1.10147
1.10131
1.10115
1.10098
1.1008
1.10062
1.10044
1.10025
1.10006
1.09987
1.09968
1.09949
1.09929
1.0991
1.09891
1.09872
1.09853
1.09835
1.09817
1.09799
1.09782
1.09765
1.09749
1.09733
1.09719
1.09705
1.09691
1.09679
1.09667
1.09656
1.09646
1.09637
1.09629
1.09621
1.09615
1.09609
1.09604
1.096
1.09596
1.09594
1.09592
1.09591
1.0959
1.0959
1.09591
1.09592
1.09593
1.09595
1.09598
1.096
1.09603
1.09606
1.0961
1.09613
1.09617
1.0962
1.09624
1.09628
1.09631
1.09635
1.09638
1.09641
1.09645
1.09648
1.0965
1.09653
1.09655
1.09657
1.09659
1.0966
1.09661
1.09662
1.09663
1.09663
1.09664
1.09663
1.09663
1.09663
1.09662
1.09661
1.09661
1.0966
1.09659
1.09659
1.09659
1.09659
1.09659
1.0966
1.09661
1.09663
1.09666
1.09669
1.09672
1.09677
1.09681
1.09686
1.09692
1.09698
1.09705
1.09712
1.09719
1.09726
1.09733
1.09741
1.09748
1.09755
1.09762
1.09769
1.09776
1.09782
1.09789
1.09795
1.09801
1.09807
1.09812
1.09818
1.09824
1.0983
1.09836
1.09843
1.09849
1.09856
1.09863
1.09871
1.09879
1.09888
1.09897
1.09906
1.09916
1.09926
1.09937
1.09948
1.0996
1.09972
1.09985
1.09998
1.10012
1.10026
1.1004
1.10055
1.1007
1.10086
1.10103
1.1012
1.10138
1.10156
1.10175
1.10195
1.10216
1.10237
1.1026
1.10283
1.10307
1.10333
1.10359
1.10387
1.10416
1.10445
1.10476
1.10508
1.10541
1.10575
1.1061
1.10646
1.10682
1.10718
1.10754
1.10789
1.10824
1.10858
1.1089
1.10919
1.10946
1.10969
1.10988
1.11002
1.1101
1.1101
1.11003
1.10987
1.10961
1.10924
1.10877
1.10818
1.10747
1.10665
1.10572
1.10469
1.10356
1.10236
1.1011
1.09978
1.09842
1.09703
1.09563
1.09421
1.09279
1.09137
1.08996
1.08856
1.08718
1.08582
1.08448
1.08317
1.08189
1.08065
1.07945
1.07829
1.07717
1.07609
1.07506
1.07407
1.07312
1.07223
1.07138
1.07058
1.06984
1.06915
1.06852
1.06794
1.06742
1.06695
1.06654
1.06617
1.06585
1.06558
1.06535
1.06516
1.06501
1.06488
1.06479
1.06471
1.06466
1.06463
1.06461
1.0646
1.0646
1.0646
1.06461
1.06462
1.06462
1.06463
1.06464
1.06464
1.06465
1.06467
1.06469
1.06472
1.06476
1.06482
1.0649
1.06499
1.06511
1.06525
1.06542
1.0656
1.06581
1.06605
1.06631
1.06659
1.06689
1.06722
1.06758
1.06796
1.06836
1.06878
1.06923
1.0697
1.07019
1.0707
1.07123
1.07177
1.07233
1.0729
1.07348
1.07407
1.07467
1.07528
1.07589
1.08805
1.08809
1.08812
1.08815
1.08818
1.0882
1.08823
1.08825
1.08827
1.08828
1.0883
1.08831
1.08832
1.08832
1.08832
1.08832
1.08832
1.08831
1.0883
1.08829
1.08828
1.08826
1.08825
1.08824
1.08822
1.08821
1.0882
1.08819
1.08818
1.08818
1.08818
1.08818
1.08819
1.0882
1.08823
1.08825
1.08829
1.08833
1.08838
1.08843
1.0885
1.08857
1.08864
1.08873
1.08882
1.08892
1.08903
1.08914
1.08926
1.08938
1.08951
1.08965
1.08979
1.08994
1.09009
1.09025
1.09041
1.09058
1.09076
1.09094
1.09112
1.09132
1.09152
1.09173
1.09194
1.09216
1.09239
1.09263
1.09287
1.09313
1.09339
1.09366
1.09394
1.09423
1.09452
1.09483
1.09514
1.09546
1.09579
1.09613
1.09647
1.09683
1.09718
1.09755
1.09791
1.09828
1.09866
1.09903
1.0994
1.09976
1.10011
1.10046
1.10079
1.1011
1.10139
1.10166
1.10191
1.10212
1.10231
1.10247
1.10261
1.10271
1.10279
1.10284
1.10287
1.10287
1.10286
1.10283
1.10279
1.10273
1.10266
1.10258
1.10249
1.10239
1.10229
1.10218
1.10206
1.10193
1.1018
1.10166
1.10151
1.10136
1.1012
1.10104
1.10087
1.1007
1.10052
1.10034
1.10016
1.09997
1.09978
1.09959
1.0994
1.0992
1.09901
1.09882
1.09863
1.09845
1.09827
1.09809
1.09791
1.09774
1.09758
1.09742
1.09727
1.09713
1.09699
1.09686
1.09673
1.09662
1.09651
1.09642
1.09632
1.09624
1.09617
1.0961
1.09605
1.096
1.09596
1.09592
1.0959
1.09588
1.09587
1.09586
1.09586
1.09587
1.09588
1.09589
1.09591
1.09593
1.09596
1.09599
1.09602
1.09605
1.09609
1.09612
1.09616
1.0962
1.09624
1.09627
1.09631
1.09634
1.09638
1.09641
1.09644
1.09647
1.0965
1.09653
1.09655
1.09657
1.09659
1.0966
1.09662
1.09663
1.09664
1.09664
1.09665
1.09665
1.09665
1.09665
1.09664
1.09664
1.09664
1.09663
1.09663
1.09663
1.09663
1.09664
1.09664
1.09666
1.09667
1.0967
1.09672
1.09675
1.09679
1.09683
1.09688
1.09693
1.09699
1.09705
1.09712
1.09718
1.09725
1.09732
1.09739
1.09746
1.09753
1.0976
1.09766
1.09773
1.0978
1.09786
1.09792
1.09798
1.09805
1.09811
1.09817
1.09823
1.0983
1.09836
1.09843
1.09851
1.09858
1.09866
1.09874
1.09883
1.09892
1.09902
1.09912
1.09923
1.09934
1.09945
1.09957
1.0997
1.09982
1.09995
1.10008
1.10022
1.10036
1.1005
1.10065
1.1008
1.10096
1.10111
1.10128
1.10144
1.10162
1.10179
1.10198
1.10216
1.10236
1.10256
1.10276
1.10297
1.10319
1.10342
1.10365
1.10389
1.10413
1.10438
1.10464
1.10491
1.10518
1.10545
1.10573
1.10601
1.10629
1.10657
1.10685
1.10712
1.10737
1.10762
1.10784
1.10804
1.10821
1.10835
1.10844
1.10848
1.10846
1.10837
1.1082
1.10795
1.1076
1.10715
1.10659
1.10593
1.10517
1.10431
1.10336
1.10232
1.10122
1.10006
1.09885
1.09761
1.09635
1.09508
1.0938
1.09252
1.09125
1.08999
1.08874
1.08751
1.0863
1.08511
1.08394
1.0828
1.08168
1.08059
1.07952
1.07847
1.07745
1.07646
1.07549
1.07456
1.07365
1.07278
1.07195
1.07116
1.07041
1.06972
1.06907
1.06848
1.06793
1.06744
1.06701
1.06662
1.06628
1.06598
1.06573
1.06551
1.06533
1.06519
1.06507
1.06497
1.0649
1.06484
1.0648
1.06477
1.06474
1.06472
1.06471
1.06469
1.06468
1.06467
1.06467
1.06467
1.06468
1.0647
1.06473
1.06478
1.06485
1.06493
1.06503
1.06516
1.06531
1.06548
1.06567
1.06589
1.06613
1.06638
1.06667
1.06697
1.0673
1.06765
1.06802
1.06842
1.06884
1.06928
1.06975
1.07023
1.07074
1.07126
1.0718
1.07235
1.07292
1.07349
1.07408
1.07467
1.07527
1.07587
1.08801
1.08804
1.08806
1.08809
1.08811
1.08814
1.08816
1.08817
1.08819
1.08821
1.08822
1.08823
1.08823
1.08824
1.08824
1.08824
1.08823
1.08823
1.08822
1.08821
1.0882
1.08819
1.08818
1.08817
1.08816
1.08815
1.08814
1.08813
1.08813
1.08812
1.08813
1.08813
1.08814
1.08816
1.08818
1.08821
1.08824
1.08828
1.08832
1.08838
1.08843
1.0885
1.08857
1.08865
1.08873
1.08882
1.08891
1.08901
1.08912
1.08923
1.08935
1.08948
1.08961
1.08974
1.08988
1.09003
1.09019
1.09035
1.09052
1.09069
1.09087
1.09106
1.09126
1.09146
1.09168
1.0919
1.09213
1.09236
1.09261
1.09287
1.09313
1.0934
1.09368
1.09398
1.09427
1.09458
1.0949
1.09522
1.09555
1.09589
1.09624
1.09659
1.09695
1.09732
1.09769
1.09806
1.09844
1.09881
1.09918
1.09955
1.09991
1.10026
1.1006
1.10092
1.10122
1.1015
1.10175
1.10197
1.10216
1.10233
1.10246
1.10257
1.10264
1.10269
1.10272
1.10273
1.10271
1.10268
1.10264
1.10258
1.10251
1.10243
1.10234
1.10225
1.10214
1.10203
1.10192
1.10179
1.10166
1.10153
1.10138
1.10124
1.10108
1.10092
1.10075
1.10058
1.10041
1.10023
1.10004
1.09986
1.09967
1.09948
1.09929
1.0991
1.09891
1.09872
1.09854
1.09835
1.09817
1.098
1.09782
1.09766
1.0975
1.09734
1.09719
1.09705
1.09692
1.09679
1.09667
1.09656
1.09646
1.09636
1.09627
1.09619
1.09612
1.09606
1.096
1.09595
1.09591
1.09588
1.09585
1.09583
1.09582
1.09582
1.09582
1.09582
1.09583
1.09585
1.09586
1.09589
1.09591
1.09594
1.09597
1.09601
1.09604
1.09608
1.09611