# vtk DataFile Version 2.0
LBE two cylinders
ASCII
DATASET STRUCTURED_POINTS
DIMENSIONS 400 100 1
ASPECT_RATIO 1 1 1
ORIGIN 0 0 0
POINT_DATA 40000
SCALARS rho double 1
LOOKUP_TABLE default
1.1054
1.10499
1.10453
1.10405
1.10356
1.10307
1.10258
1.10209
1.1016
1.10111
1.10063
1.10015
1.09968
1.09921
1.09875
1.09831
1.09787
1.09745
1.09705
1.09666
1.09629
1.09595
1.09563
1.09534
1.09508
1.09484
1.09463
1.09445
1.09429
1.09415
1.09403
1.09392
1.09383
1.09375
1.09368
1.09361
1.09354
1.09348
1.09341
1.09335
1.09328
1.0932
1.09312
1.09304
1.09295
1.09286
1.09276
1.09266
1.09256
1.09246
1.09236
1.09226
1.09216
1.09207
1.09198
1.09191
1.09184
1.09178
1.09173
1.0917
1.09169
1.09169
1.09171
1.09176
1.09182
1.09191
1.09203
1.09217
1.09234
1.09254
1.09276
1.09302
1.09329
1.0936
1.09392
1.09427
1.09464
1.09502
1.09542
1.09584
1.09627
1.09672
1.09717
1.09763
1.09809
1.09856
1.09902
1.09947
1.09992
1.10036
1.10077
1.10117
1.10154
1.10188
1.10218
1.10246
1.10269
1.10289
1.10306
1.10318
1.10328
1.10335
1.1034
1.10342
1.10344
1.10346
1.10348
1.1035
1.10354
1.1036
1.10368
1.10378
1.10391
1.10405
1.10422
1.1044
1.10459
1.10479
1.10499
1.10519
1.10538
1.10556
1.10573
1.10588
1.10601
1.10613
1.10623
1.10632
1.10639
1.10645
1.1065
1.10655
1.10659
1.10663
1.10668
1.10672
1.10677
1.10683
1.10689
1.10695
1.10702
1.1071
1.10718
1.10726
1.10735
1.10743
1.10752
1.1076
1.10769
1.10778
1.10788
1.108
1.10813
1.10828
1.10847
1.10869
1.10896
1.10928
1.10965
1.11008
1.11057
1.11111
1.1117
1.11233
1.11299
1.11367
1.11437
1.11506
1.11574
1.1164
1.11702
1.11759
1.11812
1.11859
1.11901
1.11937
1.11968
1.11994
1.12017
1.12035
1.12051
1.12066
1.12079
1.12091
1.12104
1.12118
1.12133
1.1215
1.12168
1.12189
1.12212
1.12237
1.12264
1.12293
1.12325
1.12358
1.12393
1.1243
1.12467
1.12506
1.12546
1.12585
1.12625
1.12665
1.12704
1.12741
1.12776
1.1281
1.1284
1.12866
1.12889
1.12906
1.12917
1.12922
1.1292
1.12909
1.12889
1.12859
1.12819
1.12768
1.12705
1.12629
1.1254
1.12437
1.12321
1.12192
1.12049
1.11893
1.11725
1.11546
1.11357
1.11159
1.10954
1.10743
1.1053
1.10315
1.101
1.09889
1.09682
1.09481
1.09289
1.09106
1.08934
1.08774
1.08626
1.08491
1.08369
1.08261
1.08166
1.08084
1.08015
1.07958
1.07912
1.07876
1.07851
1.07834
1.07827
1.07826
1.07832
1.07845
1.07863
1.07885
1.07912
1.07943
1.07976
1.08013
1.08052
1.08094
1.08137
1.08183
1.0823
1.08278
1.08328
1.0838
1.08433
1.08487
1.08542
1.08598
1.08655
1.08713
1.08773
1.08833
1.08894
1.08955
1.09018
1.09081
1.09145
1.0921
1.09276
1.09343
1.0941
1.09478
1.09547
1.09617
1.09687
1.09758
1.09828
1.09898
1.09968
1.10038
1.10106
1.10172
1.10238
1.10301
1.10363
1.10423
1.10481
1.10537
1.10591
1.10644
1.10695
1.10746
1.10795
1.10843
1.10891
1.10939
1.10986
1.11032
1.11079
1.11126
1.11172
1.11218
1.11264
1.11309
1.11354
1.11398
1.11442
1.11484
1.11524
1.11563
1.116
1.11633
1.11662
1.11685
1.11701
1.11708
1.11703
1.11683
1.11643
1.11579
1.11487
1.11362
1.11201
1.11001
1.10762
1.10487
1.1018
1.09849
1.09505
1.09157
1.08818
1.08497
1.08204
1.07945
1.07723
1.0754
1.07394
1.07285
1.07209
1.07162
1.0714
1.07138
1.07153
1.0718
1.07213
1.07245
1.07266
1.07264
1.07222
1.07121
1.0694
1.06658
1.06264
1.05757
1.0515
1.04473
1.03767
1.03075
1.02435
1.01875
1.01406
1.0103
1.00739
1.0052
1.0036
1.00245
1.00164
1.00108
1.0007
1.00045
1.00028
1.00018
1.00011
1.00007
1.00004
1.00002
1.00001
1.00001
1
1
1.10529
1.10486
1.10441
1.10395
1.10348
1.103
1.10252
1.10203
1.10155
1.10107
1.10059
1.10012
1.09966
1.09921
1.09876
1.09833
1.09791
1.0975
1.0971
1.09673
1.09637
1.09604
1.09572
1.09544
1.09517
1.09494
1.09473
1.09454
1.09437
1.09422
1.0941
1.09398
1.09388
1.09379
1.09371
1.09364
1.09357
1.09349
1.09342
1.09335
1.09328
1.0932
1.09312
1.09303
1.09294
1.09285
1.09275
1.09265
1.09255
1.09245
1.09235
1.09225
1.09215
1.09206
1.09198
1.0919
1.09183
1.09178
1.09173
1.09171
1.09169
1.0917
1.09172
1.09177
1.09183
1.09192
1.09204
1.09218
1.09235
1.09255
1.09277
1.09302
1.09329
1.09359
1.09391
1.09425
1.09462
1.095
1.09539
1.0958
1.09623
1.09666
1.0971
1.09755
1.09801
1.09846
1.09892
1.09937
1.09981
1.10023
1.10064
1.10103
1.10139
1.10173
1.10203
1.1023
1.10254
1.10274
1.10291
1.10304
1.10314
1.10322
1.10327
1.10331
1.10334
1.10336
1.10339
1.10343
1.10347
1.10354
1.10362
1.10373
1.10385
1.104
1.10416
1.10434
1.10453
1.10472
1.10492
1.10512
1.10531
1.10549
1.10566
1.10581
1.10595
1.10607
1.10618
1.10627
1.10635
1.10641
1.10647
1.10652
1.10657
1.10661
1.10666
1.10671
1.10676
1.10681
1.10687
1.10694
1.10701
1.10709
1.10717
1.10725
1.10733
1.10742
1.10751
1.10759
1.10768
1.10778
1.10789
1.108
1.10814
1.1083
1.10848
1.10871
1.10898
1.1093
1.10967
1.1101
1.11058
1.11111
1.11169
1.11231
1.11297
1.11364
1.11433
1.11502
1.11569
1.11634
1.11696
1.11754
1.11807
1.11855
1.11897
1.11934
1.11967
1.11994
1.12017
1.12037
1.12054
1.12069
1.12083
1.12096
1.12109
1.12123
1.12138
1.12154
1.12172
1.12192
1.12214
1.12239
1.12265
1.12293
1.12323
1.12355
1.12389
1.12423
1.12459
1.12496
1.12533
1.1257
1.12607
1.12644
1.12679
1.12713
1.12745
1.12775
1.12801
1.12824
1.12842
1.12855
1.12862
1.12862
1.12856
1.12841
1.12818
1.12785
1.12742
1.12689
1.12625
1.12549
1.12461
1.12361
1.12248
1.12123
1.11986
1.11838
1.11678
1.11508
1.11329
1.11142
1.10948
1.10748
1.10545
1.1034
1.10136
1.09932
1.09733
1.09538
1.0935
1.09171
1.09
1.08841
1.08692
1.08556
1.08432
1.08321
1.08223
1.08137
1.08063
1.08002
1.07952
1.07912
1.07883
1.07863
1.07851
1.07848
1.07851
1.07861
1.07876
1.07896
1.07921
1.0795
1.07983
1.08018
1.08056
1.08097
1.08139
1.08184
1.08231
1.08279
1.08329
1.0838
1.08432
1.08486
1.08541
1.08597
1.08654
1.08712
1.08771
1.08831
1.08892
1.08954
1.09016
1.09079
1.09143
1.09208
1.09274
1.09341
1.09408
1.09476
1.09545
1.09614
1.09684
1.09754
1.09824
1.09894
1.09964
1.10033
1.10101
1.10167
1.10232
1.10296
1.10358
1.10417
1.10475
1.10532
1.10586
1.10639
1.10691
1.10741
1.1079
1.10839
1.10887
1.10934
1.10981
1.11028
1.11074
1.1112
1.11166
1.11212
1.11257
1.11302
1.11347
1.1139
1.11433
1.11475
1.11514
1.11552
1.11587
1.11619
1.11646
1.11667
1.1168
1.11684
1.11675
1.1165
1.11606
1.11538
1.11443
1.11317
1.11156
1.1096
1.10728
1.10463
1.10168
1.09851
1.0952
1.09185
1.08856
1.08543
1.08253
1.07994
1.0777
1.07582
1.07432
1.07316
1.07233
1.07179
1.0715
1.07141
1.0715
1.07169
1.07195
1.07218
1.07229
1.07216
1.07164
1.07055
1.0687
1.06595
1.06217
1.05736
1.05161
1.04517
1.03837
1.03161
1.02527
1.01963
1.01485
1.01096
1.00792
1.00561
1.0039
1.00267
1.0018
1.00119
1.00078
1.0005
1.00032
1.0002
1.00012
1.00008
1.00005
1.00003
1.00002
1.00001
1.00001
1
1.10505
1.10462
1.10419
1.10375
1.1033
1.10284
1.10238
1.10191
1.10144
1.10098
1.10052
1.10006
1.09962
1.09918
1.09876
1.09834
1.09794
1.09756
1.09718
1.09683
1.09649
1.09617
1.09587
1.09559
1.09534
1.0951
1.09489
1.09469
1.09452
1.09436
1.09422
1.0941
1.09399
1.09388
1.09379
1.0937
1.09362
1.09353
1.09345
1.09337
1.09329
1.0932
1.09311
1.09302
1.09293
1.09283
1.09273
1.09263
1.09253
1.09243
1.09233
1.09223
1.09213
1.09204
1.09196
1.09188
1.09182
1.09176
1.09172
1.0917
1.09168
1.09169
1.09172
1.09176
1.09183
1.09192
1.09204
1.09218
1.09235
1.09254
1.09276
1.093
1.09327
1.09356
1.09387
1.0942
1.09456
1.09492
1.09531
1.09571
1.09612
1.09655
1.09698
1.09742
1.09786
1.09831
1.09875
1.09919
1.09962
1.10004
1.10045
1.10083
1.10119
1.10152
1.10182
1.1021
1.10234
1.10254
1.10271
1.10286
1.10297
1.10306
1.10312
1.10317
1.10322
1.10325
1.10329
1.10333
1.10339
1.10346
1.10355
1.10365
1.10378
1.10393
1.10409
1.10426
1.10445
1.10464
1.10484
1.10503
1.10522
1.1054
1.10557
1.10573
1.10587
1.106
1.10611
1.10621
1.10629
1.10636
1.10643
1.10648
1.10653
1.10658
1.10663
1.10668
1.10673
1.10679
1.10685
1.10692
1.10699
1.10706
1.10714
1.10722
1.10731
1.10739
1.10748
1.10757
1.10766
1.10776
1.10787
1.10799
1.10813
1.1083
1.10849
1.10872
1.10899
1.10931
1.10968
1.1101
1.11058
1.11111
1.11168
1.11229
1.11294
1.11361
1.11429
1.11498
1.11565
1.1163
1.11692
1.1175
1.11804
1.11853
1.11896
1.11935
1.11968
1.11997
1.12021
1.12042
1.1206
1.12076
1.1209
1.12104
1.12117
1.12131
1.12146
1.12161
1.12179
1.12197
1.12218
1.12241
1.12265
1.12291
1.12319
1.12348
1.12379
1.1241
1.12442
1.12475
1.12508
1.12541
1.12573
1.12604
1.12634
1.12662
1.12688
1.1271
1.1273
1.12745
1.12755
1.12761
1.12761
1.12754
1.1274
1.12719
1.1269
1.12652
1.12605
1.12549
1.12484
1.12408
1.12322
1.12226
1.12119
1.12002
1.11876
1.11739
1.11594
1.11439
1.11277
1.11108
1.10932
1.10751
1.10567
1.10379
1.10191
1.10002
1.09815
1.09631
1.09452
1.09279
1.09112
1.08955
1.08806
1.08668
1.08541
1.08425
1.08321
1.08229
1.08149
1.0808
1.08023
1.07976
1.0794
1.07914
1.07896
1.07886
1.07885
1.0789
1.07901
1.07917
1.07939
1.07965
1.07994
1.08028
1.08064
1.08103
1.08144
1.08188
1.08234
1.08281
1.0833
1.08381
1.08433
1.08486
1.08541
1.08596
1.08653
1.08711
1.0877
1.0883
1.08891
1.08952
1.09015
1.09078
1.09142
1.09207
1.09272
1.09339
1.09406
1.09474
1.09542
1.09612
1.09681
1.09751
1.09821
1.0989
1.0996
1.10028
1.10096
1.10162
1.10227
1.10291
1.10352
1.10412
1.1047
1.10527
1.10581
1.10634
1.10686
1.10736
1.10786
1.10834
1.10882
1.10929
1.10976
1.11023
1.11069
1.11115
1.1116
1.11206
1.1125
1.11295
1.11339
1.11381
1.11423
1.11464
1.11502
1.11539
1.11572
1.11602
1.11626
1.11644
1.11654
1.11653
1.1164
1.1161
1.1156
1.11488
1.11389
1.11261
1.11101
1.10909
1.10684
1.1043
1.10149
1.09848
1.09533
1.09213
1.08897
1.08593
1.08309
1.08052
1.07826
1.07634
1.07476
1.07353
1.07262
1.07199
1.07162
1.07145
1.07146
1.07158
1.07175
1.07189
1.07192
1.07172
1.07114
1.07002
1.0682
1.06554
1.06194
1.05735
1.05186
1.04565
1.03904
1.03239
1.02607
1.02039
1.01551
1.01152
1.00836
1.00595
1.00415
1.00285
1.00193
1.00128
1.00084
1.00054
1.00035
1.00022
1.00013
1.00008
1.00005
1.00003
1.00002
1.00001
1.00001
1
1.10462
1.10424
1.10384
1.10344
1.10301
1.10258
1.10215
1.1017
1.10126
1.10082
1.10038
1.09995
1.09953
1.09912
1.09872
1.09834
1.09797
1.09761
1.09727
1.09694
1.09663
1.09634
1.09606
1.09579
1.09554
1.09531
1.0951
1.0949
1.09472
1.09455
1.0944
1.09426
1.09413
1.09401
1.0939
1.09379
1.09369
1.0936
1.0935
1.09341
1.09331
1.09322
1.09312
1.09302
1.09292
1.09282
1.09271
1.09261
1.0925
1.0924
1.0923
1.0922
1.0921
1.09201
1.09193
1.09186
1.09179
1.09174
1.0917
1.09167
1.09166
1.09167
1.0917
1.09174
1.09181
1.0919
1.09202
1.09216
1.09232
1.09251
1.09272
1.09295
1.09321
1.09349
1.09379
1.09411
1.09445
1.09481
1.09518
1.09557
1.09597
1.09638
1.0968
1.09722
1.09765
1.09809
1.09852
1.09895
1.09937
1.09979
1.10018
1.10056
1.10092
1.10125
1.10156
1.10183
1.10208
1.10229
1.10247
1.10263
1.10275
1.10285
1.10294
1.103
1.10306
1.10311
1.10316
1.10322
1.10329
1.10337
1.10346
1.10357
1.1037
1.10384
1.104
1.10418
1.10436
1.10455
1.10474
1.10493
1.10512
1.1053
1.10547
1.10563
1.10577
1.10591
1.10602
1.10613
1.10622
1.1063
1.10637
1.10643
1.10649
1.10654
1.10659
1.10664
1.1067
1.10675
1.10682
1.10688
1.10695
1.10702
1.1071
1.10718
1.10726
1.10735
1.10744
1.10753
1.10763
1.10773
1.10784
1.10797
1.10811
1.10828
1.10848
1.10871
1.10899
1.10931
1.10968
1.1101
1.11058
1.1111
1.11167
1.11228
1.11292
1.11358
1.11426
1.11494
1.11561
1.11627
1.11689
1.11748
1.11802
1.11852
1.11897
1.11936
1.11971
1.12001
1.12027
1.12049
1.12068
1.12085
1.121
1.12114
1.12127
1.12141
1.12155
1.12169
1.12185
1.12202
1.12221
1.12241
1.12262
1.12285
1.12309
1.12335
1.12361
1.12388
1.12415
1.12442
1.12469
1.12495
1.1252
1.12544
1.12566
1.12585
1.12602
1.12616
1.12625
1.12631
1.12632
1.12627
1.12617
1.12601
1.12579
1.12549
1.12513
1.12469
1.12418
1.12359
1.12293
1.12218
1.12135
1.12045
1.11947
1.11841
1.11727
1.11607
1.11479
1.11345
1.11204
1.11058
1.10906
1.10749
1.10588
1.10423
1.10256
1.10088
1.09919
1.0975
1.09583
1.0942
1.09261
1.09107
1.0896
1.08821
1.0869
1.0857
1.08459
1.08359
1.0827
1.08193
1.08126
1.0807
1.08024
1.07988
1.07962
1.07944
1.07935
1.07933
1.07938
1.07949
1.07966
1.07987
1.08013
1.08043
1.08077
1.08113
1.08153
1.08195
1.08239
1.08285
1.08333
1.08383
1.08434
1.08487
1.08541
1.08596
1.08653
1.08711
1.08769
1.08829
1.0889
1.08951
1.09014
1.09077
1.09141
1.09206
1.09271
1.09337
1.09405
1.09472
1.09541
1.09609
1.09679
1.09748
1.09818
1.09887
1.09956
1.10024
1.10091
1.10157
1.10222
1.10285
1.10347
1.10407
1.10465
1.10521
1.10576
1.10629
1.10681
1.10732
1.10781
1.1083
1.10878
1.10925
1.10971
1.11018
1.11064
1.11109
1.11154
1.11199
1.11243
1.11287
1.1133
1.11372
1.11413
1.11453
1.1149
1.11525
1.11556
1.11583
1.11605
1.11619
1.11625
1.11619
1.11599
1.11563
1.11506
1.11428
1.11324
1.11192
1.11032
1.10843
1.10626
1.10383
1.10117
1.09834
1.09538
1.09237
1.08937
1.08646
1.08371
1.08117
1.07891
1.07695
1.07532
1.074
1.073
1.07228
1.07181
1.07156
1.07148
1.07152
1.07161
1.07168
1.07164
1.07137
1.07074
1.0696
1.0678
1.0652
1.06172
1.0573
1.05201
1.04601
1.03958
1.03304
1.02677
1.02107
1.01613
1.01205
1.00879
1.00628
1.00441
1.00304
1.00206
1.00138
1.00091
1.00059
1.00038
1.00024
1.00015
1.00009
1.00005
1.00003
1.00002
1.00001
1.00001
1
1.10397
1.10364
1.1033
1.10294
1.10256
1.10217
1.10177
1.10136
1.10095
1.10054
1.10014
1.09975
1.09936
1.09899
1.09863
1.09829
1.09796
1.09765
1.09734
1.09705
1.09678
1.09651
1.09626
1.09601
1.09578
1.09556
1.09535
1.09515
1.09496
1.09478
1.09462
1.09446
1.09431
1.09417
1.09404
1.09392
1.0938
1.09368
1.09357
1.09346
1.09335
1.09324
1.09313
1.09302
1.09291
1.0928
1.09269
1.09258
1.09247
1.09237
1.09226
1.09216
1.09206
1.09198
1.09189
1.09182
1.09176
1.0917
1.09167
1.09164
1.09163
1.09164
1.09167
1.09171
1.09178
1.09187
1.09198
1.09211
1.09227
1.09245
1.09265
1.09288
1.09312
1.09339
1.09368
1.09398
1.09431
1.09465
1.095
1.09537
1.09575
1.09614
1.09655
1.09696
1.09737
1.09779
1.09822
1.09863
1.09905
1.09945
1.09984
1.10022
1.10057
1.10091
1.10121
1.10149
1.10175
1.10197
1.10217
1.10233
1.10248
1.1026
1.1027
1.10279
1.10286
1.10293
1.103
1.10308
1.10316
1.10325
1.10335
1.10346
1.1036
1.10374
1.1039
1.10407
1.10424
1.10443
1.10462
1.10481
1.10499
1.10517
1.10534
1.1055
1.10565
1.10579
1.10591
1.10602
1.10612
1.10621
1.10629
1.10636
1.10642
1.10648
1.10653
1.10659
1.10665
1.1067
1.10676
1.10683
1.1069
1.10697
1.10704
1.10712
1.1072
1.10729
1.10738
1.10747
1.10757
1.10767
1.10779
1.10792
1.10808
1.10825
1.10846
1.1087
1.10898
1.1093
1.10968
1.1101
1.11057
1.11109
1.11166
1.11226
1.1129
1.11356
1.11423
1.11491
1.11558
1.11623
1.11686
1.11745
1.11801
1.11852
1.11898
1.11939
1.11975
1.12006
1.12033
1.12057
1.12077
1.12094
1.1211
1.12124
1.12137
1.12149
1.12162
1.12175
1.12189
1.12203
1.12219
1.12236
1.12253
1.12272
1.12291
1.12311
1.12332
1.12352
1.12373
1.12393
1.12412
1.12429
1.12446
1.1246
1.12472
1.12481
1.12487
1.12489
1.12488
1.12482
1.12471
1.12456
1.12435
1.12409
1.12378
1.1234
1.12297
1.12248
1.12193
1.12132
1.12066
1.11994
1.11917
1.11834
1.11746
1.11653
1.11555
1.11453
1.11345
1.11233
1.11117
1.10995
1.10869
1.10739
1.10605
1.10466
1.10324
1.10179
1.10032
1.09882
1.09732
1.09582
1.09433
1.09286
1.09143
1.09005
1.08873
1.08748
1.08631
1.08524
1.08425
1.08337
1.08259
1.08192
1.08135
1.08088
1.08051
1.08023
1.08004
1.07993
1.0799
1.07994
1.08004
1.08019
1.0804
1.08066
1.08095
1.08128
1.08165
1.08204
1.08247
1.08291
1.08338
1.08386
1.08437
1.08489
1.08542
1.08597
1.08653
1.08711
1.08769
1.08829
1.08889
1.08951
1.09013
1.09076
1.0914
1.09205
1.0927
1.09337
1.09404
1.09471
1.09539
1.09608
1.09677
1.09746
1.09815
1.09884
1.09952
1.1002
1.10087
1.10153
1.10217
1.10281
1.10342
1.10402
1.1046
1.10517
1.10571
1.10625
1.10677
1.10728
1.10777
1.10826
1.10873
1.10921
1.10967
1.11013
1.11059
1.11104
1.11149
1.11193
1.11237
1.1128
1.11322
1.11364
1.11403
1.11442
1.11477
1.1151
1.11539
1.11563
1.11581
1.11591
1.11591
1.11579
1.11552
1.11507
1.11443
1.11356
1.11246
1.1111
1.10949
1.10764
1.10554
1.10324
1.10076
1.09812
1.09539
1.09259
1.08978
1.08703
1.08439
1.08192
1.07967
1.07769
1.07599
1.07459
1.07349
1.07267
1.0721
1.07175
1.07157
1.07152
1.07153
1.07152
1.07139
1.07105
1.07036
1.06918
1.06738
1.06484
1.06147
1.05721
1.05212
1.04633
1.04006
1.03365
1.02743
1.02172
1.01673
1.01256
1.00921
1.00662
1.00466
1.00323
1.0022
1.00147
1.00097
1.00063
1.00041
1.00026
1.00016
1.0001
1.00006
1.00004
1.00002
1.00001
1.00001
1
1.10304
1.10279
1.10251
1.10221
1.10189
1.10155
1.1012
1.10084
1.10048
1.10012
1.09977
1.09942
1.09909
1.09877
1.09846
1.09817
1.09789
1.09763
1.09737
1.09713
1.09689
1.09666
1.09644
1.09622
1.09601
1.0958
1.0956
1.0954
1.09521
1.09503
1.09485
1.09468
1.09451
1.09435
1.0942
1.09406
1.09391
1.09378
1.09365
1.09352
1.09339
1.09327
1.09315
1.09302
1.0929
1.09279
1.09267
1.09255
1.09244
1.09233
1.09222
1.09212
1.09202
1.09193
1.09185
1.09177
1.09171
1.09166
1.09162
1.0916
1.09159
1.09159
1.09162
1.09167
1.09173
1.09182
1.09192
1.09205
1.0922
1.09237
1.09256
1.09277
1.093
1.09326
1.09353
1.09381
1.09412
1.09444
1.09477
1.09512
1.09548
1.09585
1.09624
1.09663
1.09703
1.09743
1.09784
1.09824
1.09865
1.09904
1.09943
1.0998
1.10015
1.10049
1.1008
1.10109
1.10135
1.10159
1.1018
1.10198
1.10214
1.10229
1.10241
1.10252
1.10262
1.10271
1.1028
1.10289
1.10299
1.10309
1.1032
1.10333
1.10346
1.10361
1.10376
1.10393
1.1041
1.10429
1.10447
1.10465
1.10484
1.10502
1.10519
1.10535
1.10551
1.10565
1.10578
1.1059
1.106
1.1061
1.10619
1.10626
1.10633
1.1064
1.10646
1.10652
1.10658
1.10664
1.1067
1.10676
1.10683
1.1069
1.10697
1.10705
1.10713
1.10721
1.1073
1.10739
1.10749
1.1076
1.10773
1.10787
1.10802
1.10821
1.10842
1.10867
1.10896
1.10929
1.10966
1.11009
1.11056
1.11108
1.11164
1.11224
1.11287
1.11353
1.1142
1.11487
1.11554
1.11619
1.11682
1.11742
1.11798
1.1185
1.11897
1.11939
1.11977
1.12009
1.12038
1.12062
1.12083
1.12101
1.12117
1.1213
1.12142
1.12154
1.12164
1.12175
1.12186
1.12197
1.12209
1.12221
1.12233
1.12246
1.1226
1.12273
1.12286
1.12299
1.12311
1.12322
1.12332
1.1234
1.12345
1.12349
1.12349
1.12347
1.12341
1.12332
1.12318
1.12301
1.12279
1.12253
1.12222
1.12186
1.12147
1.12102
1.12054
1.12001
1.11945
1.11884
1.1182
1.11753
1.11683
1.1161
1.11534
1.11455
1.11373
1.11289
1.11203
1.11113
1.1102
1.10924
1.10825
1.10721
1.10614
1.10502
1.10387
1.10267
1.10143
1.10015
1.09884
1.0975
1.09615
1.09479
1.09344
1.0921
1.09079
1.08952
1.08831
1.08717
1.0861
1.08512
1.08423
1.08343
1.08274
1.08214
1.08164
1.08124
1.08094
1.08072
1.08059
1.08053
1.08055
1.08063
1.08077
1.08097
1.08121
1.0815
1.08183
1.08219
1.08258
1.083
1.08345
1.08392
1.08441
1.08492
1.08545
1.08599
1.08655
1.08712
1.0877
1.08829
1.08889
1.08951
1.09013
1.09076
1.0914
1.09205
1.0927
1.09336
1.09403
1.09471
1.09539
1.09607
1.09676
1.09744
1.09813
1.09882
1.0995
1.10017
1.10083
1.10149
1.10213
1.10276
1.10337
1.10397
1.10455
1.10512
1.10567
1.10621
1.10673
1.10724
1.10773
1.10822
1.1087
1.10917
1.10963
1.11009
1.11054
1.11099
1.11144
1.11187
1.1123
1.11273
1.11314
1.11355
1.11393
1.1143
1.11464
1.11494
1.11521
1.11541
1.11554
1.11559
1.11552
1.11532
1.11496
1.11443
1.11369
1.11274
1.11157
1.11017
1.10855
1.10673
1.10473
1.10257
1.10027
1.09785
1.09535
1.09279
1.0902
1.08764
1.08513
1.08275
1.08053
1.07852
1.07677
1.07528
1.07408
1.07314
1.07246
1.072
1.07172
1.07157
1.07148
1.07137
1.07116
1.07074
1.06999
1.06878
1.06699
1.06449
1.06121
1.05711
1.05219
1.04658
1.04049
1.0342
1.02805
1.02234
1.01731
1.01307
1.00963
1.00695
1.00492
1.00342
1.00234
1.00157
1.00104
1.00068
1.00044
1.00028
1.00017
1.00011
1.00006
1.00004
1.00002
1.00001
1.00001
1
1.1018
1.10162
1.10142
1.10119
1.10094
1.10067
1.10039
1.1001
1.09981
1.09951
1.09922
1.09894
1.09867
1.09842
1.09817
1.09794
1.09772
1.09752
1.09732
1.09712
1.09693
1.09675
1.09656
1.09638
1.09619
1.09601
1.09582
1.09563
1.09544
1.09526
1.09507
1.09489
1.09471
1.09453
1.09436
1.0942
1.09403
1.09388
1.09373
1.09358
1.09344
1.0933
1.09316
1.09303
1.09289
1.09277
1.09264
1.09252
1.0924
1.09228
1.09217
1.09206
1.09196
1.09187
1.09179
1.09171
1.09165
1.0916
1.09156
1.09153
1.09152
1.09153
1.09155
1.0916
1.09166
1.09174
1.09184
1.09196
1.0921
1.09226
1.09243
1.09263
1.09285
1.09308
1.09333
1.0936
1.09388
1.09418
1.09449
1.09481
1.09515
1.0955
1.09586
1.09623
1.09661
1.09699
1.09738
1.09777
1.09816
1.09855
1.09893
1.09929
1.09965
1.09998
1.1003
1.1006
1.10087
1.10112
1.10135
1.10155
1.10174
1.1019
1.10205
1.10219
1.10231
1.10243
1.10254
1.10266
1.10277
1.10289
1.10301
1.10314
1.10328
1.10343
1.10359
1.10375
1.10393
1.1041
1.10428
1.10447
1.10465
1.10483
1.105
1.10517
1.10533
1.10548
1.10561
1.10574
1.10586
1.10596
1.10605
1.10614
1.10622
1.10629
1.10635
1.10642
1.10648
1.10654
1.1066
1.10666
1.10673
1.1068
1.10687
1.10694
1.10702
1.10711
1.1072
1.10729
1.1074
1.10751
1.10764
1.10779
1.10796
1.10815
1.10837
1.10863
1.10892
1.10926
1.10964
1.11006
1.11054
1.11105
1.11161
1.11221
1.11283
1.11348
1.11415
1.11481
1.11548
1.11613
1.11676
1.11736
1.11793
1.11845
1.11893
1.11936
1.11974
1.12008
1.12037
1.12062
1.12083
1.12101
1.12116
1.12129
1.1214
1.12149
1.12157
1.12165
1.12172
1.12178
1.12185
1.12191
1.12198
1.12204
1.1221
1.12215
1.1222
1.12223
1.12226
1.12227
1.12226
1.12223
1.12217
1.12209
1.12198
1.12184
1.12166
1.12145
1.1212
1.12092
1.1206
1.12024
1.11985
1.11942
1.11897
1.11848
1.11797
1.11743
1.11687
1.11629
1.1157
1.1151
1.11448
1.11385
1.11322
1.11258
1.11193
1.11127
1.1106
1.10991
1.10921
1.10848
1.10773
1.10695
1.10613
1.10527
1.10437
1.10342
1.10242
1.10138
1.10028
1.09913
1.09795
1.09673
1.09549
1.09423
1.09297
1.09173
1.09051
1.08932
1.08819
1.08712
1.08613
1.08521
1.08439
1.08366
1.08303
1.0825
1.08206
1.08172
1.08146
1.0813
1.08121
1.0812
1.08126
1.08138
1.08156
1.08179
1.08207
1.08239
1.08275
1.08314
1.08356
1.08401
1.08448
1.08498
1.08549
1.08602
1.08657
1.08713
1.08771
1.0883
1.0889
1.08951
1.09013
1.09076
1.0914
1.09205
1.09271
1.09337
1.09404
1.09471
1.09539
1.09607
1.09675
1.09743
1.09812
1.0988
1.09947
1.10014
1.1008
1.10145
1.10209
1.10272
1.10333
1.10393
1.10451
1.10508
1.10563
1.10617
1.10669
1.1072
1.1077
1.10819
1.10866
1.10913
1.1096
1.11005
1.1105
1.11095
1.11138
1.11182
1.11224
1.11266
1.11306
1.11345
1.11382
1.11417
1.11449
1.11477
1.11499
1.11516
1.11524
1.11521
1.11507
1.11478
1.11433
1.11369
1.11286
1.11182
1.11057
1.10913
1.10752
1.10575
1.10384
1.10183
1.09972
1.09753
1.09528
1.09297
1.09062
1.08825
1.08591
1.08362
1.08145
1.07944
1.07764
1.07607
1.07476
1.0737
1.0729
1.07232
1.07192
1.07165
1.07146
1.07126
1.07096
1.07046
1.06965
1.0684
1.0666
1.06415
1.06096
1.05698
1.05223
1.0468
1.04087
1.0347
1.02862
1.02293
1.01787
1.01356
1.01005
1.00728
1.00517
1.00361
1.00248
1.00167
1.00111
1.00073
1.00047
1.0003
1.00019
1.00012
1.00007
1.00004
1.00002
1.00001
1.00001
1
1.10021
1.10012
1.1
1.09986
1.09969
1.0995
1.0993
1.0991
1.09889
1.09868
1.09847
1.09827
1.09808
1.0979
1.09773
1.09757
1.09742
1.09728
1.09714
1.097
1.09687
1.09673
1.09659
1.09644
1.09629
1.09613
1.09597
1.09579
1.09561
1.09543
1.09525
1.09506
1.09487
1.09468
1.0945
1.09432
1.09414
1.09396
1.09379
1.09363
1.09347
1.09331
1.09316
1.09301
1.09287
1.09273
1.0926
1.09247
1.09234
1.09222
1.0921
1.09199
1.09189
1.0918
1.09171
1.09163
1.09157
1.09152
1.09148
1.09145
1.09144
1.09144
1.09146
1.0915
1.09156
1.09163
1.09172
1.09183
1.09196
1.09211
1.09227
1.09245
1.09265
1.09286
1.09309
1.09333
1.09359
1.09386
1.09415
1.09445
1.09476
1.09508
1.09542
1.09577
1.09612
1.09649
1.09686
1.09723
1.0976
1.09798
1.09835
1.09871
1.09906
1.0994
1.09972
1.10003
1.10031
1.10058
1.10083
1.10106
1.10126
1.10146
1.10163
1.10179
1.10195
1.10209
1.10223
1.10236
1.10249
1.10263
1.10277
1.10291
1.10306
1.10321
1.10337
1.10353
1.10371
1.10388
1.10406
1.10424
1.10442
1.1046
1.10478
1.10495
1.10511
1.10527
1.10541
1.10555
1.10567
1.10579
1.10589
1.10598
1.10607
1.10615
1.10622
1.10629
1.10635
1.10641
1.10647
1.10654
1.1066
1.10667
1.10674
1.10681
1.10689
1.10698
1.10707
1.10717
1.10727
1.1074
1.10753
1.10768
1.10786
1.10806
1.10829
1.10856
1.10886
1.1092
1.10959
1.11001
1.11049
1.111
1.11156
1.11215
1.11276
1.11341
1.11406
1.11472
1.11538
1.11603
1.11665
1.11725
1.11782
1.11834
1.11882
1.11926
1.11965
1.11999
1.12028
1.12053
1.12074
1.12091
1.12105
1.12116
1.12124
1.12131
1.12135
1.12139
1.12141
1.12142
1.12142
1.12142
1.12141
1.12139
1.12137
1.12133
1.12128
1.12122
1.12114
1.12104
1.12092
1.12078
1.12061
1.12041
1.12019
1.11994
1.11965
1.11934
1.119
1.11863
1.11823
1.1178
1.11735
1.11688
1.1164
1.1159
1.11538
1.11486
1.11434
1.11381
1.11328
1.11276
1.11224
1.11172
1.11121
1.11071
1.11021
1.10972
1.10922
1.10873
1.10822
1.1077
1.10717
1.10661
1.10602
1.10539
1.10473
1.10402
1.10325
1.10243
1.10155
1.10061
1.09962
1.09857
1.09747
1.09634
1.09517
1.09398
1.09279
1.09161
1.09044
1.08932
1.08825
1.08723
1.0863
1.08544
1.08467
1.084
1.08342
1.08294
1.08256
1.08226
1.08206
1.08194
1.0819
1.08193
1.08203
1.08219
1.0824
1.08267
1.08298
1.08333
1.08371
1.08413
1.08458
1.08506
1.08556
1.08607
1.08661
1.08717
1.08774
1.08832
1.08892
1.08952
1.09014
1.09077
1.09141
1.09206
1.09271
1.09338
1.09404
1.09472
1.09539
1.09607
1.09675
1.09743
1.09811
1.09878
1.09945
1.10012
1.10077
1.10142
1.10206
1.10268
1.10329
1.10389
1.10447
1.10504
1.10559
1.10613
1.10666
1.10717
1.10767
1.10815
1.10863
1.1091
1.10956
1.11001
1.11046
1.1109
1.11133
1.11176
1.11217
1.11258
1.11297
1.11335
1.1137
1.11403
1.11432
1.11457
1.11475
1.11486
1.11488
1.11478
1.11455
1.11417
1.11361
1.11286
1.11193
1.1108
1.10949
1.10802
1.10641
1.1047
1.1029
1.10104
1.09913
1.09718
1.09518
1.09312
1.09102
1.08887
1.08669
1.08453
1.08243
1.08043
1.07859
1.07694
1.07552
1.07435
1.07341
1.0727
1.07218
1.07179
1.07148
1.07118
1.07079
1.07021
1.06933
1.06804
1.06624
1.06382
1.0607
1.05684
1.05224
1.04697
1.0412
1.03516
1.02916
1.02349
1.01841
1.01404
1.01046
1.00761
1.00543
1.0038
1.00262
1.00177
1.00118
1.00078
1.0005
1.00032
1.0002
1.00012
1.00008
1.00005
1.00003
1.00002
1.00001
1
1.0983
1.09829
1.09826
1.0982
1.09812
1.09803
1.09793
1.09782
1.0977
1.09759
1.09748
1.09737
1.09727
1.09718
1.09709
1.09701
1.09694
1.09686
1.09679
1.09672
1.09664
1.09656
1.09646
1.09636
1.09625
1.09612
1.09599
1.09584
1.09568
1.09551
1.09533
1.09515
1.09496
1.09477
1.09458
1.09438
1.09419
1.09401
1.09382
1.09364
1.09347
1.0933
1.09313
1.09298
1.09282
1.09267
1.09253
1.09239
1.09226
1.09213
1.09201
1.0919
1.09179
1.09169
1.09161
1.09153
1.09146
1.09141
1.09136
1.09134
1.09132
1.09132
1.09134
1.09137
1.09142
1.09149
1.09157
1.09167
1.09179
1.09192
1.09206
1.09223
1.0924
1.09259
1.0928
1.09302
1.09325
1.0935
1.09375
1.09402
1.09431
1.0946
1.09491
1.09523
1.09556
1.0959
1.09625
1.09661
1.09696
1.09732
1.09768
1.09804
1.09839
1.09873
1.09906
1.09937
1.09967
1.09996
1.10022
1.10047
1.10071
1.10092
1.10113
1.10132
1.1015
1.10167
1.10183
1.10199
1.10215
1.1023
1.10245
1.10261
1.10276
1.10292
1.10309
1.10326
1.10343
1.10361
1.10378
1.10397
1.10415
1.10433
1.10451
1.10468
1.10485
1.10501
1.10516
1.10531
1.10544
1.10556
1.10568
1.10578
1.10587
1.10596
1.10604
1.10611
1.10618
1.10624
1.1063
1.10637
1.10643
1.1065
1.10657
1.10664
1.10672
1.1068
1.1069
1.107
1.10711
1.10724
1.10738
1.10754
1.10772
1.10794
1.10817
1.10845
1.10876
1.10911
1.10949
1.10992
1.11039
1.11091
1.11145
1.11203
1.11264
1.11327
1.11392
1.11457
1.11521
1.11585
1.11647
1.11706
1.11762
1.11814
1.11862
1.11905
1.11944
1.11977
1.12006
1.1203
1.1205
1.12066
1.12078
1.12086
1.12091
1.12094
1.12094
1.12093
1.12089
1.12084
1.12077
1.12069
1.1206
1.1205
1.12038
1.12025
1.1201
1.11993
1.11975
1.11954
1.11932
1.11907
1.11879
1.1185
1.11818
1.11783
1.11746
1.11707
1.11665
1.11622
1.11577
1.11531
1.11484
1.11436
1.11387
1.11339
1.1129
1.11242
1.11195
1.11149
1.11104
1.1106
1.11018
1.10977
1.10938
1.10901
1.10864
1.10829
1.10795
1.10761
1.10727
1.10693
1.10657
1.1062
1.10581
1.10539
1.10493
1.10443
1.10387
1.10327
1.1026
1.10187
1.10108
1.10022
1.09929
1.09831
1.09727
1.09618
1.09507
1.09393
1.09278
1.09164
1.09052
1.08944
1.08841
1.08745
1.08656
1.08575
1.08503
1.08441
1.08388
1.08345
1.08311
1.08287
1.08271
1.08263
1.08263
1.0827
1.08284
1.08304
1.08329
1.08359
1.08393
1.08431
1.08473
1.08517
1.08565
1.08615
1.08667
1.08722
1.08778
1.08835
1.08894
1.08955
1.09016
1.09079
1.09143
1.09208
1.09273
1.09339
1.09406
1.09473
1.0954
1.09608
1.09675
1.09743
1.0981
1.09877
1.09944
1.1001
1.10075
1.10139
1.10203
1.10265
1.10326
1.10385
1.10444
1.105
1.10556
1.1061
1.10662
1.10714
1.10763
1.10812
1.1086
1.10907
1.10953
1.10998
1.11042
1.11086
1.11128
1.1117
1.11211
1.1125
1.11288
1.11324
1.11358
1.11388
1.11414
1.11434
1.11448
1.11453
1.11447
1.11429
1.11396
1.11347
1.1128
1.11194
1.1109
1.10969
1.10832
1.10683
1.10525
1.1036
1.10192
1.10023
1.09852
1.0968
1.09505
1.09325
1.09139
1.08946
1.08748
1.08546
1.08344
1.08147
1.0796
1.07789
1.07637
1.07508
1.07401
1.07316
1.0725
1.07198
1.07155
1.07114
1.07065
1.06998
1.06904
1.06771
1.06589
1.0635
1.06044
1.05669
1.05222
1.04711
1.04148
1.03557
1.02965
1.02402
1.01892
1.01451
1.01086
1.00794
1.00569
1.004
1.00276
1.00188
1.00125
1.00083
1.00054
1.00034
1.00022
1.00013
1.00008
1.00005
1.00003
1.00002
1.00001
1.00001
1.0961
1.09617
1.09622
1.09625
1.09627
1.09627
1.09627
1.09626
1.09625
1.09624
1.09624
1.09623
1.09623
1.09623
1.09623
1.09624
1.09624
1.09624
1.09624
1.09623
1.09621
1.09618
1.09614
1.09609
1.09602
1.09594
1.09584
1.09572
1.09559
1.09544
1.09529
1.09512
1.09494
1.09475
1.09456
1.09436
1.09417
1.09397
1.09378
1.09359
1.09341
1.09323
1.09306
1.09289
1.09272
1.09257
1.09242
1.09227
1.09213
1.092
1.09188
1.09176
1.09165
1.09155
1.09146
1.09138
1.09131
1.09125
1.09121
1.09118
1.09116
1.09116
1.09117
1.0912
1.09124
1.0913
1.09137
1.09146
1.09156
1.09168
1.0918
1.09195
1.0921
1.09227
1.09245
1.09265
1.09285
1.09307
1.0933
1.09354
1.09379
1.09406
1.09434
1.09463
1.09493
1.09525
1.09557
1.09591
1.09625
1.09659
1.09694
1.09729
1.09764
1.09798
1.09832
1.09864
1.09895
1.09926
1.09954
1.09982
1.10008
1.10032
1.10055
1.10077
1.10098
1.10118
1.10137
1.10155
1.10173
1.1019
1.10207
1.10224
1.10241
1.10257
1.10274
1.10292
1.10309
1.10327
1.10345
1.10363
1.10382
1.104
1.10418
1.10436
1.10453
1.1047
1.10486
1.10501
1.10515
1.10529
1.10541
1.10552
1.10562
1.10571
1.1058
1.10587
1.10595
1.10601
1.10608
1.10614
1.10621
1.10627
1.10634
1.10641
1.10649
1.10658
1.10667
1.10678
1.10689
1.10703
1.10717
1.10734
1.10754
1.10775
1.108
1.10828
1.1086
1.10895
1.10934
1.10977
1.11024
1.11074
1.11128
1.11185
1.11244
1.11306
1.11369
1.11432
1.11495
1.11557
1.11617
1.11675
1.1173
1.11781
1.11827
1.1187
1.11907
1.11939
1.11967
1.1199
1.12007
1.12021
1.1203
1.12035
1.12036