# vtk DataFile Version 2.0
LBE two cylinders
ASCII
DATASET STRUCTURED_POINTS
DIMENSIONS 400 100 1
ASPECT_RATIO 1 1 1
ORIGIN 0 0 0
POINT_DATA 40000
SCALARS rho double 1
LOOKUP_TABLE default
1.08196
1.0815
1.08102
1.08053
1.08008
1.07967
1.07933
1.07911
1.07905
1.07925
1.07977
1.08067
1.082
1.0837
1.08569
1.0878
1.08986
1.09171
1.09322
1.09437
1.09514
1.09559
1.09579
1.0958
1.09569
1.0955
1.09527
1.09502
1.09476
1.0945
1.09424
1.094
1.09376
1.09353
1.0933
1.09309
1.09289
1.09269
1.0925
1.09232
1.09215
1.09199
1.09183
1.09168
1.09155
1.09141
1.09129
1.09118
1.09107
1.09098
1.09089
1.09081
1.09075
1.09069
1.09064
1.09061
1.09058
1.09056
1.09056
1.09056
1.09058
1.0906
1.09064
1.09068
1.09074
1.09081
1.09089
1.09098
1.09109
1.09122
1.09137
1.09153
1.09173
1.09195
1.0922
1.09249
1.09281
1.09317
1.09357
1.09402
1.0945
1.09502
1.09557
1.09615
1.09676
1.09739
1.09802
1.09866
1.09929
1.09991
1.1005
1.10106
1.10158
1.10206
1.10248
1.10285
1.10316
1.1034
1.10357
1.10368
1.10371
1.10368
1.10357
1.1034
1.10316
1.10285
1.10248
1.10206
1.10158
1.10106
1.1005
1.09991
1.09929
1.09866
1.09802
1.09739
1.09676
1.09615
1.09557
1.09502
1.0945
1.09402
1.09357
1.09317
1.09281
1.09249
1.0922
1.09195
1.09173
1.09153
1.09137
1.09122
1.09109
1.09098
1.09089
1.09081
1.09074
1.09068
1.09064
1.0906
1.09058
1.09056
1.09056
1.09056
1.09058
1.09061
1.09064
1.09069
1.09075
1.09081
1.09089
1.09098
1.09107
1.09118
1.09129
1.09141
1.09155
1.09168
1.09183
1.09199
1.09215
1.09232
1.0925
1.09269
1.09289
1.09309
1.0933
1.09353
1.09376
1.094
1.09425
1.09451
1.09478
1.09505
1.09534
1.09564
1.09595
1.09627
1.0966
1.09694
1.0973
1.09767
1.09806
1.09845
1.09887
1.09929
1.09973
1.10018
1.10063
1.1011
1.10157
1.10206
1.10255
1.10306
1.10359
1.10413
1.1047
1.10528
1.10589
1.10652
1.10717
1.10783
1.10848
1.10912
1.10974
1.11032
1.11085
1.1113
1.11163
1.1117
1.11127
1.10993
1.10716
1.10236
1.09506
1.08513
1.07296
1.05951
1.04603
1.03375
1.0235
1.01561
1.00993
1.00608
1.00359
1.00205
1.00113
1.00061
1.00032
1.00016
1.00008
1.00004
1.00002
1.00001
1
1
1
1
1
1
1
1
1
1
1
1
1
1
1
1
1
1
1
1
1
1
1
1
1
1
1
1
1
1
1
1
1
1
1
1
1
1
1
1
1
1
1
1
1
1
1
1
1
1
1
1
1
1
1
1
1
1
1
1
1
1
1
1
1
1
1
1
1
1
1
1
1
1
1
1
1
1
1
1
1
1
1
1
1
1
1
1
1
1
1
1
1
1
1
1
1
1
1
1
1
1
1
1
1
1
1
1
1
1
1
1
1
1
1
1
1
1
1
1
1
1
1
1
1
1
1
1
1
1
1
1
1
1
1
1
1
1
1
1
1
1
1
1
1
1
1
1
1
1
1
1
1
1
1
1
1
1
1
1
1
1
1
1
1
1
1.08198
1.0815
1.08102
1.08055
1.08011
1.07972
1.0794
1.07921
1.0792
1.07943
1.07996
1.08083
1.08206
1.08364
1.0855
1.08749
1.08948
1.0913
1.09284
1.09404
1.09488
1.0954
1.09565
1.0957
1.09562
1.09546
1.09524
1.09499
1.09474
1.09448
1.09423
1.09398
1.09375
1.09352
1.09329
1.09308
1.09288
1.09268
1.09249
1.09231
1.09214
1.09198
1.09182
1.09168
1.09154
1.09141
1.09129
1.09117
1.09107
1.09097
1.09089
1.09081
1.09074
1.09069
1.09064
1.0906
1.09058
1.09056
1.09055
1.09056
1.09057
1.0906
1.09063
1.09068
1.09074
1.09081
1.09089
1.09099
1.0911
1.09124
1.09139
1.09157
1.09178
1.09202
1.09229
1.09259
1.09294
1.09332
1.09374
1.0942
1.0947
1.09524
1.0958
1.09639
1.097
1.09762
1.09824
1.09886
1.09947
1.10007
1.10063
1.10117
1.10166
1.10211
1.1025
1.10285
1.10313
1.10336
1.10352
1.10362
1.10365
1.10362
1.10352
1.10336
1.10313
1.10285
1.1025
1.10211
1.10166
1.10117
1.10063
1.10007
1.09947
1.09886
1.09824
1.09762
1.097
1.09639
1.0958
1.09524
1.0947
1.0942
1.09374
1.09332
1.09294
1.09259
1.09229
1.09202
1.09178
1.09157
1.09139
1.09124
1.0911
1.09099
1.09089
1.09081
1.09074
1.09068
1.09063
1.0906
1.09057
1.09056
1.09055
1.09056
1.09058
1.0906
1.09064
1.09069
1.09074
1.09081
1.09089
1.09097
1.09107
1.09117
1.09129
1.09141
1.09154
1.09168
1.09182
1.09198
1.09214
1.09231
1.09249
1.09268
1.09288
1.09308
1.09329
1.09352
1.09375
1.09399
1.09423
1.09449
1.09476
1.09504
1.09532
1.09562
1.09593
1.09625
1.09658
1.09692
1.09727
1.09764
1.09802
1.09842
1.09883
1.09925
1.09968
1.10013
1.10058
1.10105
1.10152
1.102
1.10249
1.103
1.10352
1.10406
1.10461
1.10519
1.10578
1.1064
1.10702
1.10765
1.10828
1.10888
1.10947
1.11002
1.11051
1.11091
1.1111
1.11093
1.11014
1.10838
1.10527
1.10042
1.0935
1.08439
1.0733
1.06088
1.04811
1.03608
1.0257
1.01743
1.0113
1.00704
1.00422
1.00245
1.00137
1.00075
1.00039
1.0002
1.0001
1.00005
1.00002
1.00001
1
1
1
1
1
1
1
1
1
1
1
1
1
1
1
1
1
1
1
1
1
1
1
1
1
1
1
1
1
1
1
1
1
1
1
1
1
1
1
1
1
1
1
1
1
1
1
1
1
1
1
1
1
1
1
1
1
1
1
1
1
1
1
1
1
1
1
1
1
1
1
1
1
1
1
1
1
1
1
1
1
1
1
1
1
1
1
1
1
1
1
1
1
1
1
1
1
1
1
1
1
1
1
1
1
1
1
1
1
1
1
1
1
1
1
1
1
1
1
1
1
1
1
1
1
1
1
1
1
1
1
1
1
1
1
1
1
1
1
1
1
1
1
1
1
1
1
1
1
1
1
1
1
1
1
1
1
1
1
1
1
1
1
1
1
1
1.08202
1.08152
1.08104
1.08059
1.08016
1.07979
1.07949
1.07933
1.07935
1.0796
1.08011
1.08093
1.08207
1.08353
1.08526
1.08716
1.08909
1.0909
1.09247
1.09372
1.09463
1.09521
1.09552
1.09561
1.09556
1.09541
1.09521
1.09497
1.09472
1.09447
1.09422
1.09397
1.09374
1.09351
1.09328
1.09307
1.09287
1.09267
1.09248
1.09231
1.09213
1.09197
1.09182
1.09167
1.09153
1.0914
1.09128
1.09117
1.09106
1.09097
1.09088
1.09081
1.09074
1.09068
1.09064
1.0906
1.09057
1.09056
1.09055
1.09056
1.09057
1.0906
1.09063
1.09068
1.09074
1.09081
1.0909
1.09101
1.09114
1.09128
1.09146
1.09166
1.09189
1.09216
1.09246
1.09281
1.09319
1.09361
1.09407
1.09457
1.0951
1.09566
1.09624
1.09684
1.09745
1.09806
1.09867
1.09926
1.09984
1.10039
1.10091
1.1014
1.10184
1.10224
1.1026
1.1029
1.10315
1.10335
1.10349
1.10357
1.1036
1.10357
1.10349
1.10335
1.10315
1.1029
1.1026
1.10224
1.10184
1.1014
1.10091
1.10039
1.09984
1.09926
1.09867
1.09806
1.09745
1.09684
1.09624
1.09566
1.0951
1.09457
1.09407
1.09361
1.09319
1.09281
1.09246
1.09216
1.09189
1.09166
1.09146
1.09128
1.09114
1.09101
1.0909
1.09081
1.09074
1.09068
1.09063
1.0906
1.09057
1.09056
1.09055
1.09056
1.09057
1.0906
1.09064
1.09068
1.09074
1.09081
1.09088
1.09097
1.09106
1.09117
1.09128
1.0914
1.09153
1.09167
1.09182
1.09197
1.09213
1.09231
1.09248
1.09267
1.09287
1.09307
1.09328
1.09351
1.09374
1.09398
1.09422
1.09448
1.09475
1.09502
1.09531
1.0956
1.09591
1.09623
1.09656
1.0969
1.09725
1.09761
1.09799
1.09839
1.09879
1.09921
1.09964
1.10008
1.10053
1.10099
1.10146
1.10194
1.10243
1.10293
1.10345
1.10397
1.10452
1.10508
1.10565
1.10624
1.10684
1.10744
1.10803
1.1086
1.10915
1.10966
1.1101
1.1104
1.11044
1.11006
1.10899
1.10695
1.10365
1.0988
1.0922
1.08374
1.07354
1.06201
1.0499
1.03819
1.02776
1.0192
1.01267
1.00801
1.00488
1.00286
1.00163
1.0009
1.00048
1.00025
1.00012
1.00006
1.00003
1.00001
1.00001
1
1
1
1
1
1
1
1
1
1
1
1
1
1
1
1
1
1
1
1
1
1
1
1
1
1
1
1
1
1
1
1
1
1
1
1
1
1
1
1
1
1
1
1
1
1
1
1
1
1
1
1
1
1
1
1
1
1
1
1
1
1
1
1
1
1
1
1
1
1
1
1
1
1
1
1
1
1
1
1
1
1
1
1
1
1
1
1
1
1
1
1
1
1
1
1
1
1
1
1
1
1
1
1
1
1
1
1
1
1
1
1
1
1
1
1
1
1
1
1
1
1
1
1
1
1
1
1
1
1
1
1
1
1
1
1
1
1
1
1
1
1
1
1
1
1
1
1
1
1
1
1
1
1
1
1
1
1
1
1
1
1
1
1
1
1.08204
1.08156
1.0811
1.08065
1.08023
1.07986
1.07959
1.07945
1.07949
1.07976
1.08028
1.08107
1.08213
1.08347
1.08507
1.08684
1.08869
1.09047
1.09206
1.09336
1.09434
1.09499
1.09536
1.09551
1.09549
1.09537
1.09518
1.09495
1.09471
1.09446
1.09421
1.09396
1.09373
1.0935
1.09328
1.09306
1.09286
1.09266
1.09248
1.0923
1.09213
1.09197
1.09181
1.09166
1.09153
1.0914
1.09128
1.09116
1.09106
1.09097
1.09088
1.0908
1.09074
1.09068
1.09064
1.0906
1.09057
1.09056
1.09055
1.09056
1.09057
1.0906
1.09064
1.09069
1.09075
1.09083
1.09093
1.09105
1.0912
1.09137
1.09157
1.0918
1.09207
1.09238
1.09273
1.09313
1.09356
1.09403
1.09454
1.09508
1.09564
1.09623
1.09682
1.09743
1.09803
1.09862
1.0992
1.09976
1.10029
1.10078
1.10125
1.10168
1.10206
1.10241
1.10271
1.10297
1.10318
1.10334
1.10346
1.10353
1.10356
1.10353
1.10346
1.10334
1.10318
1.10297
1.10271
1.10241
1.10206
1.10168
1.10125
1.10078
1.10029
1.09976
1.0992
1.09862
1.09803
1.09743
1.09682
1.09623
1.09564
1.09508
1.09454
1.09403
1.09356
1.09313
1.09273
1.09238
1.09207
1.0918
1.09157
1.09137
1.0912
1.09105
1.09093
1.09083
1.09075
1.09069
1.09064
1.0906
1.09057
1.09056
1.09055
1.09056
1.09057
1.0906
1.09064
1.09068
1.09074
1.0908
1.09088
1.09097
1.09106
1.09116
1.09128
1.0914
1.09153
1.09166
1.09181
1.09197
1.09213
1.0923
1.09248
1.09266
1.09286
1.09306
1.09328
1.0935
1.09373
1.09397
1.09421
1.09447
1.09474
1.09501
1.0953
1.09559
1.09589
1.09621
1.09654
1.09687
1.09723
1.09759
1.09797
1.09836
1.09876
1.09917
1.0996
1.10004
1.10049
1.10094
1.10141
1.10189
1.10238
1.10287
1.10338
1.1039
1.10443
1.10497
1.10553
1.10609
1.10666
1.10723
1.10779
1.10834
1.10886
1.10933
1.10971
1.10992
1.10983
1.10925
1.10793
1.10561
1.10203
1.09704
1.09056
1.08258
1.07318
1.06262
1.05139
1.04023
1.02993
1.02117
1.01427
1.00919
1.00569
1.00339
1.00195
1.00109
1.00059
1.00031
1.00016
1.00008
1.00004
1.00002
1.00001
1
1
1
1
1
1
1
1
1
1
1
1
1
1
1
1
1
1
1
1
1
1
1
1
1
1
1
1
1
1
1
1
1
1
1
1
1
1
1
1
1
1
1
1
1
1
1
1
1
1
1
1
1
1
1
1
1
1
1
1
1
1
1
1
1
1
1
1
1
1
1
1
1
1
1
1
1
1
1
1
1
1
1
1
1
1
1
1
1
1
1
1
1
1
1
1
1
1
1
1
1
1
1
1
1
1
1
1
1
1
1
1
1
1
1
1
1
1
1
1
1
1
1
1
1
1
1
1
1
1
1
1
1
1
1
1
1
1
1
1
1
1
1
1
1
1
1
1
1
1
1
1
1
1
1
1
1
1
1
1
1
1
1
1
1
1.08208
1.08162
1.08117
1.08073
1.08032
1.07997
1.07971
1.0796
1.07969
1.07999
1.08052
1.08127
1.08224
1.08344
1.08488
1.08652
1.08826
1.09
1.0916
1.09295
1.094
1.09473
1.09518
1.09538
1.09541
1.09532
1.09514
1.09493
1.09469
1.09445
1.0942
1.09396
1.09372
1.09349
1.09327
1.09306
1.09285
1.09266
1.09247
1.09229
1.09212
1.09196
1.09181
1.09166
1.09152
1.09139
1.09127
1.09116
1.09106
1.09096
1.09088
1.0908
1.09074
1.09068
1.09063
1.0906
1.09057
1.09056
1.09055
1.09056
1.09057
1.0906
1.09064
1.0907
1.09077
1.09087
1.09098
1.09112
1.09129
1.09149
1.09173
1.09201
1.09232
1.09269
1.09309
1.09354
1.09403
1.09455
1.0951
1.09568
1.09627
1.09687
1.09747
1.09806
1.09864
1.0992
1.09973
1.10023
1.10069
1.10112
1.10152
1.10187
1.10219
1.10247
1.10271
1.10292
1.10308
1.10321
1.10331
1.10336
1.10338
1.10336
1.10331
1.10321
1.10308
1.10292
1.10271
1.10247
1.10219
1.10187
1.10152
1.10112
1.10069
1.10023
1.09973
1.0992
1.09864
1.09806
1.09747
1.09687
1.09627
1.09568
1.0951
1.09455
1.09403
1.09354
1.09309
1.09269
1.09232
1.09201
1.09173
1.09149
1.09129
1.09112
1.09098
1.09087
1.09077
1.0907
1.09064
1.0906
1.09057
1.09056
1.09055
1.09056
1.09057
1.0906
1.09063
1.09068
1.09074
1.0908
1.09088
1.09096
1.09106
1.09116
1.09127
1.09139
1.09152
1.09166
1.09181
1.09196
1.09212
1.09229
1.09247
1.09266
1.09285
1.09306
1.09327
1.09349
1.09372
1.09396
1.09421
1.09446
1.09473
1.095
1.09529
1.09558
1.09588
1.0962
1.09652
1.09686
1.09721
1.09757
1.09794
1.09833
1.09873
1.09914
1.09957
1.1
1.10045
1.10091
1.10137
1.10185
1.10233
1.10283
1.10333
1.10384
1.10436
1.10489
1.10542
1.10597
1.10651
1.10705
1.10758
1.10809
1.10858
1.10902
1.10934
1.10946
1.10921
1.10837
1.10671
1.104
1.10009
1.09494
1.08859
1.0811
1.07255
1.06302
1.05276
1.04226
1.03222
1.02333
1.01606
1.01055
1.00664
1.00401
1.00234
1.00132
1.00072
1.00038
1.0002
1.0001
1.00005
1.00002
1.00001
1
1
1
1
1
1
1
1
1
1
1
1
1
1
1
1
1
1
1
1
1
1
1
1
1
1
1
1
1
1
1
1
1
1
1
1
1
1
1
1
1
1
1
1
1
1
1
1
1
1
1
1
1
1
1
1
1
1
1
1
1
1
1
1
1
1
1
1
1
1
1
1
1
1
1
1
1
1
1
1
1
1
1
1
1
1
1
1
1
1
1
1
1
1
1
1
1
1
1
1
1
1
1
1
1
1
1
1
1
1
1
1
1
1
1
1
1
1
1
1
1
1
1
1
1
1
1
1
1
1
1
1
1
1
1
1
1
1
1
1
1
1
1
1
1
1
1
1
1
1
1
1
1
1
1
1
1
1
1
1
1
1
1
1
1
1.08215
1.08172
1.08128
1.08085
1.08044
1.0801
1.07987
1.07979
1.07991
1.08025
1.08079
1.0815
1.08238
1.08345
1.08472
1.0862
1.08782
1.0895
1.09109
1.09249
1.09362
1.09444
1.09496
1.09524
1.09532
1.09526
1.09511
1.09491
1.09468
1.09444
1.09419
1.09395
1.09372
1.09349
1.09327
1.09306
1.09285
1.09266
1.09247
1.09229
1.09212
1.09196
1.0918
1.09166
1.09152
1.09139
1.09127
1.09116
1.09106
1.09096
1.09088
1.0908
1.09074
1.09068
1.09064
1.0906
1.09057
1.09056
1.09055
1.09056
1.09058
1.09061
1.09066
1.09072
1.09081
1.09091
1.09105
1.09122
1.09142
1.09166
1.09194
1.09227
1.09264
1.09306
1.09352
1.09403
1.09457
1.09514
1.09572
1.09632
1.09692
1.09752
1.0981
1.09866
1.09919
1.0997
1.10017
1.1006
1.10099
1.10136
1.10168
1.10197
1.10223
1.10246
1.10265
1.10282
1.10295
1.10306
1.10313
1.10318
1.10319
1.10318
1.10313
1.10306
1.10295
1.10282
1.10265
1.10246
1.10223
1.10197
1.10168
1.10136
1.10099
1.1006
1.10017
1.0997
1.09919
1.09866
1.0981
1.09752
1.09692
1.09632
1.09572
1.09514
1.09457
1.09403
1.09352
1.09306
1.09264
1.09227
1.09194
1.09166
1.09142
1.09122
1.09105
1.09091
1.09081
1.09072
1.09066
1.09061
1.09058
1.09056
1.09055
1.09056
1.09057
1.0906
1.09064
1.09068
1.09074
1.0908
1.09088
1.09096
1.09106
1.09116
1.09127
1.09139
1.09152
1.09166
1.0918
1.09196
1.09212
1.09229
1.09247
1.09266
1.09285
1.09306
1.09327
1.09349
1.09372
1.09396
1.0942
1.09446
1.09473
1.095
1.09528
1.09557
1.09588
1.09619
1.09651
1.09685
1.0972
1.09756
1.09793
1.09832
1.09871
1.09912
1.09955
1.09998
1.10043
1.10088
1.10135
1.10182
1.1023
1.10279
1.10329
1.10379
1.1043
1.10481
1.10533
1.10585
1.10636
1.10687
1.10737
1.10785
1.1083
1.10869
1.10893
1.10892
1.10846
1.10734
1.10533
1.10223
1.09798
1.09265
1.08641
1.07939
1.07165
1.06316
1.05393
1.04422
1.03456
1.02564
1.01805
1.01209
1.00774
1.00475
1.00281
1.00161
1.00089
1.00048
1.00025
1.00012
1.00006
1.00003
1.00001
1.00001
1
1
1
1
1
1
1
1
1
1
1
1
1
1
1
1
1
1
1
1
1
1
1
1
1
1
1
1
1
1
1
1
1
1
1
1
1
1
1
1
1
1
1
1
1
1
1
1
1
1
1
1
1
1
1
1
1
1
1
1
1
1
1
1
1
1
1
1
1
1
1
1
1
1
1
1
1
1
1
1
1
1
1
1
1
1
1
1
1
1
1
1
1
1
1
1
1
1
1
1
1
1
1
1
1
1
1
1
1
1
1
1
1
1
1
1
1
1
1
1
1
1
1
1
1
1
1
1
1
1
1
1
1
1
1
1
1
1
1
1
1
1
1
1
1
1
1
1
1
1
1
1
1
1
1
1
1
1
1
1
1
1
1
1
1.08226
1.08183
1.0814
1.08098
1.08058
1.08025
1.08004
1.08
1.08016
1.08053
1.08108
1.08175
1.08255
1.08347
1.08458
1.08588
1.08738
1.08897
1.09055
1.092
1.0932
1.09411
1.09472
1.09507
1.09521
1.09519
1.09507
1.09489
1.09467
1.09443
1.09419
1.09395
1.09372
1.09349
1.09327
1.09306
1.09285
1.09266
1.09247
1.09229
1.09212
1.09196
1.0918
1.09166
1.09152
1.09139
1.09127
1.09116
1.09106
1.09096
1.09088
1.0908
1.09074
1.09068
1.09064
1.0906
1.09057
1.09056
1.09056
1.09056
1.09059
1.09062
1.09068
1.09075
1.09085
1.09098
1.09114
1.09134
1.09158
1.09187
1.0922
1.09259
1.09302
1.09349
1.09401
1.09456
1.09514
1.09574
1.09634
1.09694
1.09753
1.0981
1.09864
1.09915
1.09962
1.10006
1.10045
1.10081
1.10114
1.10143
1.10169
1.10192
1.10213
1.10231
1.10246
1.10259
1.10269
1.10277
1.10283
1.10287
1.10288
1.10287
1.10283
1.10277
1.10269
1.10259
1.10246
1.10231
1.10213
1.10192
1.10169
1.10143
1.10114
1.10081
1.10045
1.10006
1.09962
1.09915
1.09864
1.0981
1.09753
1.09694
1.09634
1.09574
1.09514
1.09456
1.09401
1.09349
1.09302
1.09258
1.0922
1.09187
1.09158
1.09134
1.09114
1.09098
1.09085
1.09075
1.09068
1.09062
1.09059
1.09056
1.09056
1.09056
1.09057
1.0906
1.09064
1.09068
1.09074
1.0908
1.09088
1.09096
1.09106
1.09116
1.09127
1.09139
1.09152
1.09166
1.0918
1.09196
1.09212
1.09229
1.09247
1.09266
1.09285
1.09306
1.09327
1.09349
1.09372
1.09396
1.09421
1.09446
1.09473
1.095
1.09528
1.09557
1.09588
1.09619
1.09651
1.09685
1.09719
1.09755
1.09792
1.09831
1.0987
1.09911
1.09953
1.09997
1.10041
1.10086
1.10133
1.1018
1.10228
1.10276
1.10325
1.10375
1.10424
1.10474
1.10523
1.10572
1.10621
1.10669
1.10715
1.1076
1.10801
1.10833
1.10847
1.1083
1.10761
1.10617
1.10377
1.10026
1.09568
1.09019
1.08407
1.07751
1.07057
1.06311
1.05494
1.04608
1.03691
1.02806
1.02021
1.01381
1.00899
1.00561
1.00336
1.00194
1.00109
1.00059
1.00031
1.00016
1.00008
1.00004
1.00002
1.00001
1
1
1
1
1
1
1
1
1
1
1
1
1
1
1
1
1
1
1
1
1
1
1
1
1
1
1
1
1
1
1
1
1
1
1
1
1
1
1
1
1
1
1
1
1
1
1
1
1
1
1
1
1
1
1
1
1
1
1
1
1
1
1
1
1
1
1
1
1
1
1
1
1
1
1
1
1
1
1
1
1
1
1
1
1
1
1
1
1
1
1
1
1
1
1
1
1
1
1
1
1
1
1
1
1
1
1
1
1
1
1
1
1
1
1
1
1
1
1
1
1
1
1
1
1
1
1
1
1
1
1
1
1
1
1
1
1
1
1
1
1
1
1
1
1
1
1
1
1
1
1
1
1
1
1
1
1
1
1
1
1
1
1
1
1.0824
1.08196
1.08153
1.08111
1.08072
1.08041
1.08022
1.08021
1.08042
1.08082
1.08137
1.08201
1.08272
1.08351
1.08445
1.08559
1.08693
1.08844
1.09
1.09147
1.09274
1.09375
1.09445
1.09489
1.09509
1.09512
1.09503
1.09487
1.09466
1.09443
1.0942
1.09396
1.09372
1.0935
1.09328
1.09306
1.09286
1.09266
1.09247
1.09229
1.09212
1.09196
1.0918
1.09166
1.09152
1.09139
1.09127
1.09116
1.09106
1.09096
1.09088
1.09081
1.09074
1.09068
1.09064
1.0906
1.09058
1.09056
1.09056
1.09057
1.0906
1.09064
1.09071
1.0908
1.09092
1.09108
1.09127
1.09151
1.09179
1.09213
1.09252
1.09295
1.09344
1.09396
1.09452
1.09511
1.09571
1.09631
1.09691
1.09748
1.09804
1.09856
1.09904
1.09949
1.09989
1.10026
1.1006
1.1009
1.10116
1.10141
1.10162
1.10182
1.10199
1.10215
1.10228
1.10239
1.10249
1.10256
1.10262
1.10265
1.10266
1.10265
1.10262
1.10256
1.10249
1.10239
1.10228
1.10215
1.10199
1.10182
1.10162
1.10141
1.10116
1.1009
1.1006
1.10026
1.09989
1.09949
1.09904
1.09856
1.09804
1.09748
1.0969
1.09631
1.09571
1.09511
1.09452
1.09396
1.09344
1.09295
1.09251
1.09213
1.09179
1.09151
1.09127
1.09108
1.09092
1.0908
1.09071
1.09064
1.0906
1.09057
1.09056
1.09056
1.09058
1.0906
1.09064
1.09068
1.09074
1.09081
1.09088
1.09096
1.09106
1.09116
1.09127
1.09139
1.09152
1.09166
1.0918
1.09196
1.09212
1.09229
1.09247
1.09266
1.09286
1.09306
1.09328
1.0935
1.09373
1.09397
1.09421
1.09447
1.09473
1.095
1.09529
1.09558
1.09588
1.09619
1.09652
1.09685
1.0972
1.09755
1.09792
1.09831
1.0987
1.09911
1.09953
1.09996
1.1004
1.10085
1.10132
1.10179
1.10226
1.10274
1.10322
1.10371
1.10419
1.10467
1.10514
1.1056
1.10606
1.1065
1.10693
1.10734
1.10769
1.10794
1.10796
1.1076
1.10664
1.10484
1.10202
1.0981
1.0932
1.08759
1.08162
1.07553
1.06937
1.06289
1.05577
1.04782
1.03922
1.03054
1.0225
1.01569
1.0104
1.00658
1.004
1.00234
1.00132
1.00072
1.00038
1.0002
1.0001
1.00005
1.00002
1.00001
1
1
1
1
1
1
1
1
1
1
1
1
1
1
1
1
1
1
1
1
1
1
1
1
1
1
1
1
1
1
1
1
1
1
1
1
1
1
1
1
1
1
1
1
1
1
1
1
1
1
1
1
1
1
1
1
1
1
1
1
1
1
1
1
1
1
1
1
1
1
1
1
1
1
1
1
1
1
1
1
1
1
1
1
1
1
1
1
1
1
1
1
1
1
1
1
1
1
1
1
1
1
1
1
1
1
1
1
1
1
1
1
1
1
1
1
1
1
1
1
1
1
1
1
1
1
1
1
1
1
1
1
1
1
1
1
1
1
1
1
1
1
1
1
1
1
1
1
1
1
1
1
1
1
1
1
1
1
1
1
1
1
1
1
1.08252
1.08208
1.08165
1.08123
1.08085
1.08055
1.08038
1.08042
1.08067
1.0811
1.08166
1.08227
1.08289
1.08356
1.08433
1.0853
1.0865
1.08791
1.08942
1.09092
1.09226
1.09335
1.09416
1.09468
1.09495
1.09504
1.09499
1.09484
1.09465
1.09443
1.0942
1.09396
1.09373
1.0935
1.09328
1.09307
1.09286
1.09267
1.09248
1.0923
1.09213
1.09196
1.09181
1.09166
1.09152
1.09139
1.09127
1.09116
1.09106
1.09097
1.09088
1.09081
1.09074
1.09069
1.09064
1.09061
1.09058
1.09057
1.09057
1.09059
1.09062
1.09067
1.09075
1.09086
1.09101
1.09119
1.09143
1.09171
1.09204
1.09243
1.09287
1.09336
1.09389
1.09445
1.09503
1.09563
1.09623
1.09681
1.09738
1.09791
1.09841
1.09887
1.0993
1.09968
1.10002
1.10033
1.1006
1.10085
1.10108
1.10128
1.10147
1.10163
1.10178
1.10192
1.10204
1.10214
1.10222
1.10229
1.10234
1.10237
1.10238
1.10237
1.10234
1.10229
1.10222
1.10214
1.10204
1.10192
1.10178
1.10163
1.10147
1.10128
1.10108
1.10085
1.1006
1.10033
1.10002
1.09968
1.0993
1.09887
1.09841
1.09791
1.09738
1.09681
1.09623
1.09563
1.09503
1.09445
1.09388
1.09335
1.09287
1.09243
1.09204
1.09171
1.09143
1.09119
1.09101
1.09086
1.09075
1.09067
1.09062
1.09059
1.09057
1.09057
1.09058
1.09061
1.09064
1.09069
1.09074
1.09081
1.09088
1.09097
1.09106
1.09116
1.09127
1.09139
1.09152
1.09166
1.09181
1.09196
1.09213
1.0923
1.09248
1.09267
1.09287
1.09307
1.09328
1.09351
1.09374
1.09397
1.09422
1.09447
1.09474
1.09501
1.09529
1.09558
1.09589
1.0962
1.09652
1.09686
1.0972
1.09756
1.09793
1.09831
1.09871
1.09911
1.09953
1.09996
1.1004
1.10085
1.10131
1.10177
1.10224
1.10272
1.10319
1.10366
1.10413
1.10459
1.10504
1.10548
1.1059
1.10631
1.10671
1.10707
1.10736
1.10751
1.10738
1.10679
1.10551
1.10332
1.10006
1.09574
1.09056
1.08489
1.07912
1.07352
1.06809
1.06254
1.05644
1.04941
1.04146
1.03304
1.02489
1.01771
1.01195
1.00768
1.00473
1.0028
1.0016
1.00088
1.00047
1.00024
1.00012
1.00006
1.00003
1.00001
1.00001
1
1
1
1
1
1
1
1
1
1
1
1
1
1
1
1
1
1
1
1
1
1
1
1
1
1
1
1
1
1
1
1
1
1
1
1
1
1
1
1
1
1
1
1
1
1
1
1
1
1
1
1
1
1
1
1
1
1
1
1
1
1
1
1
1
1
1
1
1
1
1
1
1
1
1
1
1
1
1
1
1
1
1
1
1
1
1
1
1
1
1
1
1
1
1
1
1
1
1
1
1
1
1
1
1
1
1
1
1
1
1
1
1
1
1
1
1
1
1
1
1
1
1
1
1
1
1
1
1
1
1
1
1
1
1
1
1
1
1
1
1
1
1
1
1
1
1
1
1
1
1
1
1
1
1
1
1
1
1
1
1
1
1
1.08261
1.08216
1.08173
1.08131
1.08093
1.08065
1.08052
1.0806
1.0809
1.08137
1.08193
1.0825
1.08306
1.08361
1.08423
1.08504
1.08609
1.08739
1.08885
1.09035
1.09175
1.09293
1.09383
1.09445
1.0948
1.09494
1.09493
1.09482
1.09464
1.09443
1.0942
1.09397
1.09374
1.09351
1.09329
1.09308
1.09288
1.09268
1.09249
1.09231
1.09213
1.09197
1.09181
1.09167
1.09153
1.0914
1.09128
1.09117
1.09107
1.09097
1.09089
1.09081
1.09075
1.09069
1.09065
1.09061
1.09059
1.09058
1.09058
1.09061
1.09065
1.09072
1.09081
1.09095
1.09112
1.09134
1.09162
1.09194
1.09233
1.09276
1.09325
1.09378
1.09434
1.09492
1.09551
1.0961
1.09667
1.09722
1.09774
1.09822
1.09866
1.09906
1.09942
1.09974
1.10003
1.10029
1.10053
1.10075
1.10096
1.10115
1.10132
1.10149
1.10164
1.10178
1.1019
1.10201
1.1021
1.10217
1.10222
1.10225
1.10226
1.10225
1.10222
1.10217
1.1021
1.10201
1.1019
1.10178
1.10164
1.10149
1.10132
1.10115
1.10096
1.10075
1.10053
1.10029
1.10003
1.09974
1.09942
1.09906
1.09866
1.09822
1.09774
1.09722
1.09667
1.0961
1.09551
1.09492
1.09434
1.09377
1.09325
1.09276
1.09232
1.09194
1.09161
1.09134
1.09112
1.09095
1.09081
1.09071
1.09065
1.0906
1.09058
1.09058
1.09059
1.09061
1.09065
1.09069
1.09075
1.09081
1.09089
1.09097
1.09107
1.09117
1.09128
1.0914
1.09153
1.09167
1.09181
1.09197
1.09213
1.09231
1.09249
1.09268
1.09288
1.09308
1.09329
1.09352
1.09375
1.09398
1.09423
1.09448
1.09475
1.09502
1.0953
1.09559
1.0959
1.09621
1.09653
1.09687
1.09722
1.09758
1.09795
1.09833
1.09872
1.09912
1.09954
1.09997
1.1004
1.10085
1.1013
1.10176
1.10223
1.10269
1.10316
1.10362
1.10407
1.10451
1.10494
1.10535
1.10574
1.10612
1.10648
1.10679
1.10701
1.10703
1.10671
1.10584
1.1042
1.10158
1.09787
1.09318
1.08779
1.08213
1.07662
1.07152
1.0668
1.06212
1.05696
1.05084
1.04358
1.03552
1.02734
1.01986
1.01364
1.0089
1.00555
1.00332
1.00192
1.00107
1.00058
1.0003
1.00015
1.00008
1.00004
1.00002
1.00001
1
1
1
1
1
1
1
1
1
1
1
1
1
1
1
1
1
1
1
1
1
1
1
1
1
1
1
1
1
1
1
1
1
1
1
1
1
1
1
1
1
1
1
1
1
1
1
1
1
1
1
1
1
1
1
1
1
1
1
1
1
1
1
1
1
1
1
1
1
1
1
1
1
1
1
1
1
1
1
1
1
1
1
1
1
1
1
1
1
1
1
1
1
1
1
1
1
1
1
1
1
1
1
1
1
1
1
1
1
1
1
1
1
1
1
1
1
1
1
1
1
1
1
1
1
1
1
1
1
1
1
1
1
1
1
1
1
1
1
1
1
1
1
1
1
1
1
1
1
1
1
1
1
1
1
1
1
1
1
1
1
1
1
1.08262
1.08217
1.08173
1.08132
1.08095
1.0807
1.08063
1.08077
1.08112
1.08162
1.08218
1.08273
1.08321
1.08365
1.08414
1.0848
1.0857
1.08689
1.08829
1.08978
1.09123
1.09249
1.09349
1.0942
1.09463
1.09484
1.09487
1.09479
1.09463
1.09443
1.09421
1.09398
1.09375
1.09353
1.09331
1.09309
1.09289
1.09269
1.0925
1.09232
1.09215
1.09198
1.09182
1.09168
1.09154
1.09141
1.09129
1.09118
1.09107
1.09098
1.0909
1.09082
1.09076
1.0907
1.09065
1.09062
1.0906
1.09059
1.0906
1.09063
1.09069
1.09077
1.09089
1.09105
1.09126
1.09152
1.09183
1.09221
1.09264
1.09311
1.09364
1.09419
1.09476
1.09535
1.09592
1.09648
1.09702
1.09752
1.09798
1.0984
1.09878
1.09912
1.09943
1.09971
1.09996
1.10019
1.10041
1.10061
1.1008
1.10099
1.10116
1.10132
1.10147
1.10161
1.10173
1.10184
1.10194
1.10201
1.10206
1.1021
1.10211
1.1021
1.10206
1.10201
1.10194
1.10184
1.10173
1.10161
1.10147
1.10132
1.10116
1.10098
1.1008
1.10061
1.10041
1.10019
1.09996
1.09971
1.09943
1.09912
1.09878
1.0984
1.09798
1.09751
1.09701
1.09648
1.09592
1.09534
1.09476
1.09419
1.09363
1.09311
1.09263
1.09221
1.09183
1.09152
1.09126
1.09105
1.09089
1.09077
1.09068
1.09063
1.0906
1.09059
1.0906
1.09062
1.09065
1.0907
1.09075
1.09082
1.0909
1.09098
1.09107
1.09118
1.09129
1.09141
1.09154
1.09168
1.09182
1.09198
1.09215
1.09232
1.0925
1.09269
1.09289
1.09309
1.09331
1.09353
1.09376
1.094
1.09424
1.0945
1.09476
1.09503
1.09532
1.09561
1.09591
1.09623
1.09655
1.09689
1.09724
1.0976
1.09797
1.09835
1.09874
1.09914
1.09956
1.09998
1.10041
1.10085
1.1013
1.10176
1.10221
1.10267
1.10313
1.10357
1.10401
1.10443
1.10484
1.10522
1.10559
1.10593
1.10625
1.10649
1.10661
1.10648
1.10592
1.10473
1.10268
1.09959
1.09545
1.09044
1.08492
1.07936
1.07417
1.06959
1.06553
1.06164
1.05735
1.0521
1.04556
1.03793
1.02982
1.0221
1.01545
1.01025
1.00648
1.00392
1.00229
1.00129
1.0007
1.00037
1.00019
1.00009
1.00005
1.00002
1.00001
1
1
1
1
1
1
1
1
1
1
1
1
1
1
1
1
1
1
1
1
1
1
1
1
1
1
1
1
1
1
1
1
1
1
1
1
1
1
1
1
1
1
1
1
1
1
1
1
1
1
1
1
1
1
1
1
1
1
1
1
1
1
1
1
1
1
1
1
1
1
1
1
1
1
1
1
1
1
1
1
1
1
1
1
1
1
1
1
1
1
1
1
1
1
1
1
1
1
1
1
1
1
1
1
1
1
1
1
1
1
1
1
1
1
1
1
1
1
1
1
1
1
1
1
1
1
1
1
1
1
1
1
1
1
1
1
1
1
1
1
1
1
1
1
1
1
1
1
1
1
1
1
1
1
1
1
1
1
1
1
1
1
1
1.08249
1.08206
1.08163
1.08123
1.0809
1.0807
1.08069
1.08091
1.08132
1.08186
1.08242
1.08294
1.08335
1.0837
1.08407
1.08458
1.08535
1.08641
1.08774
1.08922
1.0907
1.09203
1.09312
1.09393
1.09445
1.09472
1.0948
1.09475
1.09462
1.09443
1.09422
1.09399
1.09377
1.09354
1.09332
1.09311
1.0929
1.09271
1.09252
1.09233
1.09216
1.09199
1.09184
1.09169
1.09155
1.09142
1.0913
1.09119
1.09108
1.09099
1.0909
1.09083
1.09076
1.09071
1.09066
1.09063
1.09061
1.09061
1.09063
1.09067
1.09074
1.09084
1.09098
1.09117
1.09142
1.09172
1.09208
1.09249
1.09296
1.09347
1.09401
1.09458
1.09515
1.09571
1.09626
1.09678
1.09726
1.09771
1.09811
1.09848
1.09881
1.0991
1.09937
1.09962
1.09985
1.10007
1.10028
1.10048
1.10067
1.10086
1.10105
1.10123
1.10139
1.10155
1.10169
1.10181
1.10192
1.102
1.10207
1.1021
1.10212
1.1021
1.10207
1.102
1.10192
1.10181
1.10169
1.10155
1.10139
1.10122
1.10105
1.10086
1.10067
1.10048
1.10027
1.10006
1.09985
1.09961
1.09937
1.0991
1.0988
1.09847
1.09811
1.0977
1.09726
1.09677
1.09625
1.09571
1.09514
1.09457
1.09401
1.09347
1.09296
1.09249
1.09207
1.09172
1.09142
1.09117
1.09098
1.09084
1.09073
1.09066
1.09062
1.09061
1.09061
1.09063
1.09066
1.09071
1.09076
1.09083
1.0909
1.09099
1.09108
1.09118
1.0913
1.09142
1.09155
1.09169
1.09184
1.09199
1.09216
1.09233
1.09252
1.09271
1.0929
1.09311
1.09332
1.09355
1.09377
1.09401
1.09426
1.09451
1.09478
1.09505
1.09533
1.09563
1.09593
1.09625
1.09657
1.09691
1.09726
1.09762
1.09799
1.09838
1.09877
1.09917
1.09958
1.1
1.10042
1.10086
1.1013
1.10175
1.1022
1.10265
1.10309
1.10352
1.10394
1.10435
1.10473
1.10509
1.10543
1.10574
1.106
1.10617
1.10616
1.10583
1.10499
1.10342
1.10091
1.09735
1.09281
1.08755
1.08199
1.07662
1.07182
1.06775
1.06432
1.06114
1.05764
1.05319
1.04738
1.04024
1.0323
1.02441
1.01738
1.0117
1.0075
1.0046
1.00271
1.00154
1.00085
1.00045
1.00023
1.00012
1.00006
1.00003
1.00001
1.00001
1
1
1
1
1
1
1
1
1
1
1
1
1
1
1
1
1
1
1
1
1
1
1
1
1
1
1
1
1
1
1
1
1
1
1
1
1
1
1
1
1
1
1
1
1
1
1
1
1
1
1
1
1
1
1
1
1
1
1
1
1
1
1
1
1
1
1
1
1
1
1
1
1
1
1
1
1
1
1
1
1
1
1
1
1
1
1
1
1
1
1
1
1
1
1
1
1
1
1
1
1
1
1
1
1
1
1
1
1
1
1
1
1
1
1
1
1
1
1
1
1
1
1
1
1
1
1
1
1
1
1
1
1
1
1
1
1
1
1
1
1
1
1
1
1
1
1
1
1
1
1
1
1
1
1
1
1
1
1
1
1
1
1.08221
1.0818
1.0814
1.08104
1.08076
1.08064
1.08073
1.08104
1.08152
1.08209
1.08265
1.08313
1.08349
1.08375
1.08401
1.08439
1.08502
1.08597
1.08721
1.08866
1.09016
1.09156
1.09274
1.09364
1.09425
1.09459
1.09473
1.09472
1.0946
1.09443
1.09423
1.09401
1.09378
1.09356
1.09334
1.09313
1.09292
1.09272
1.09253
1.09235
1.09218
1.09201
1.09185
1.0917
1.09156
1.09143
1.09131
1.0912
1.09109
1.091
1.09091
1.09084
1.09077
1.09072
1.09068
1.09065
1.09063
1.09063
1.09066
1.09071
1.0908
1.09092
1.09109
1.09132
1.0916
1.09194
1.09234
1.09279
1.09328
1.09381
1.09436
1.09492
1.09547
1.096
1.0965
1.09697
1.0974
1.09779
1.09815
1.09846
1.09875
1.09901
1.09926
1.09949
1.09971
1.09992
1.10013
1.10034
1.10054
1.10074
1.10093
1.10112
1.10129
1.10146
1.10161
1.10174
1.10185
1.10195
1.10201
1.10205
1.10207
1.10205
1.10201
1.10195
1.10185
1.10174
1.10161
1.10146
1.10129
1.10112
1.10093
1.10074
1.10054
1.10033
1.10013
1.09992
1.0997
1.09948
1.09925
1.09901
1.09874
1.09846
1.09814
1.09779
1.0974
1.09696
1.09649
1.09599
1.09546
1.09491
1.09435
1.0938
1.09328
1.09278
1.09233
1.09193
1.09159
1.09131
1.09109
1.09092
1.09079
1.09071
1.09066
1.09063
1.09063
1.09064
1.09067
1.09072
1.09077
1.09084
1.09091
1.091
1.09109
1.0912
1.09131
1.09143
1.09156
1.0917
1.09185
1.09201
1.09218
1.09235
1.09253
1.09272
1.09292
1.09313
1.09334
1.09356
1.09379
1.09403
1.09428
1.09453
1.09479
1.09507
1.09535
1.09565
1.09595
1.09627
1.0966
1.09694
1.0973
1.09766
1.09803
1.09841
1.0988
1.0992
1.09961
1.10002
1.10044
1.10087
1.1013
1.10174
1.10218
1.10262
1.10305
1.10347
1.10388
1.10426
1.10462
1.10496
1.10527
1.10554
1.10574
1.1058
1.10563
1.10506
1.10388
1.10187
1.09888
1.09486
1.08996
1.08454
1.07906
1.07397
1.0696
1.06605
1.06319
1.06064
1.05783
1.05412
1.04903
1.04242
1.03472
1.02675
1.01939
1.01327
1.00862
1.00535
1.00318
1.00183
1.00101
1.00054
1.00028
1.00014
1.00007
1.00003
1.00002
1.00001
1
1
1
1
1
1
1
1
1
1
1
1
1
1
1
1
1
1
1
1
1
1
1
1
1
1
1
1
1
1
1
1
1
1
1
1
1
1
1
1
1
1
1
1
1
1
1
1
1
1
1
1
1
1
1
1
1
1
1
1
1
1
1
1
1
1
1
1
1
1
1
1
1
1
1
1
1
1
1
1
1
1
1
1
1
1
1
1
1
1
1
1
1
1
1
1
1
1
1
1
1
1
1
1
1
1
1
1
1
1
1
1
1
1
1
1
1
1
1
1
1
1
1
1
1
1
1
1
1
1
1
1
1
1
1
1
1
1
1
1
1
1
1
1
1
1
1
1
1
1
1
1
1
1
1
1
1
1
1
1
1
1
1.08177
1.08142
1.08107
1.08077
1.08058
1.08056
1.08077
1.08117
1.08172
1.08232
1.08287
1.08331
1.08361
1.08379
1.08396
1.08422
1.08473
1.08556
1.08672
1.08813
1.08963
1.09109
1.09235
1.09334
1.09404
1.09445
1.09465
1.09468
1.09459
1.09443
1.09424
1.09402
1.0938
1.09358
1.09336
1.09315
1.09294
1.09274
1.09255
1.09237
1.0922
1.09203
1.09187
1.09172
1.09158
1.09145
1.09133
1.09121
1.09111
1.09101
1.09093
1.09085
1.09079
1.09073
1.09069
1.09066
1.09065
1.09066
1.0907
1.09076
1.09087
1.09102
1.09122
1.09148
1.0918
1.09217
1.0926
1.09308
1.09359
1.09412
1.09466
1.0952
1.09572
1.09621
1.09666
1.09708
1.09746
1.0978
1.09811
1.09839
1.09865
1.09889
1.09912
1.09934
1.09956
1.09978
1.1
1.10022
1.10044
1.10065
1.10086
1.10107
1.10127
1.10145
1.10163
1.10178
1.10191
1.10201
1.10209
1.10214
1.10215
1.10214
1.10209
1.10201
1.10191
1.10178
1.10162
1.10145
1.10127
1.10107
1.10086
1.10065
1.10043
1.10021
1.09999
1.09977
1.09956
1.09934
1.09911
1.09888
1.09864
1.09838
1.0981
1.09779
1.09745
1.09707
1.09665
1.09619
1.0957
1.09519
1.09465
1.09411
1.09358
1.09307
1.09259
1.09216
1.09179
1.09147
1.09121
1.09101
1.09086
1.09076
1.09069
1.09066
1.09065
1.09066
1.09069
1.09073
1.09078
1.09085
1.09093
1.09101
1.09111
1.09121
1.09132
1.09145
1.09158
1.09172
1.09187
1.09203
1.0922
1.09237
1.09255
1.09274
1.09294
1.09315
1.09336
1.09358
1.09381
1.09405
1.0943
1.09455