# vtk DataFile Version 2.0
LBE two cylinders
ASCII
DATASET STRUCTURED_POINTS
DIMENSIONS 400 100 1
ASPECT_RATIO 1 1 1
ORIGIN 0 0 0
POINT_DATA 40000
SCALARS rho double 1
LOOKUP_TABLE default
1.05901
1.0593
1.05964
1.06001
1.06038
1.06077
1.06116
1.06156
1.06197
1.06237
1.06278
1.06318
1.06358
1.06397
1.06435
1.06472
1.06508
1.06542
1.06574
1.06604
1.06633
1.06659
1.06683
1.06705
1.06724
1.06742
1.06757
1.06771
1.06783
1.06792
1.06801
1.06807
1.06813
1.06817
1.0682
1.06822
1.06823
1.06824
1.06824
1.06824
1.06824
1.06824
1.06825
1.06825
1.06826
1.06828
1.0683
1.06833
1.06837
1.06842
1.06848
1.06856
1.06865
1.06876
1.06888
1.06903
1.06919
1.06937
1.06956
1.06977
1.07
1.07024
1.07049
1.07075
1.07103
1.07131
1.07161
1.07193
1.07226
1.07262
1.07301
1.07342
1.07388
1.07438
1.07493
1.07553
1.07618
1.07689
1.07766
1.07847
1.07932
1.0802
1.08111
1.08202
1.08294
1.08384
1.08472
1.08556
1.08637
1.08712
1.08782
1.08847
1.08905
1.08958
1.09005
1.09045
1.0908
1.0911
1.09134
1.09153
1.09167
1.09177
1.09182
1.09183
1.0918
1.09174
1.09164
1.09151
1.09136
1.09118
1.09098
1.09075
1.09051
1.09026
1.08999
1.08972
1.08944
1.08916
1.08889
1.08862
1.08838
1.08816
1.08798
1.08784
1.08775
1.08773
1.08778
1.0879
1.08809
1.08836
1.08869
1.08908
1.08953
1.09
1.0905
1.091
1.09149
1.09195
1.09238
1.09275
1.09307
1.09333
1.09352
1.09366
1.09373
1.09375
1.09373
1.09368
1.09359
1.09348
1.09336
1.09323
1.0931
1.09297
1.09284
1.09272
1.09261
1.0925
1.0924
1.09231
1.09223
1.09215
1.09208
1.09201
1.09194
1.09187
1.0918
1.09173
1.09165
1.09156
1.09147
1.09137
1.09125
1.09113
1.09099
1.09084
1.09068
1.09051
1.09032
1.09011
1.0899
1.08967
1.08943
1.08918
1.08892
1.08865
1.08838
1.0881
1.08782
1.08754
1.08725
1.08697
1.08669
1.08641
1.08613
1.08587
1.08561
1.08536
1.08512
1.08489
1.08467
1.08446
1.08427
1.08409
1.08393
1.08378
1.08365
1.08353
1.08343
1.08334
1.08327
1.08322
1.08319
1.08319
1.0832
1.08324
1.0833
1.08339
1.0835
1.08365
1.08382
1.08401
1.08423
1.08448
1.08475
1.08505
1.08537
1.0857
1.08606
1.08643
1.08682
1.08723
1.08764
1.08808
1.08852
1.08898
1.08945
1.08994
1.09043
1.09094
1.09146
1.092
1.09255
1.09311
1.09368
1.09427
1.09487
1.09548
1.0961
1.09674
1.09739
1.09804
1.09872
1.0994
1.1001
1.10081
1.10153
1.10226
1.10301
1.10377
1.10454
1.10532
1.1061
1.10689
1.10767
1.10844
1.1092
1.10994
1.11066
1.11136
1.11204
1.11269
1.11332
1.11392
1.1145
1.11506
1.1156
1.11613
1.11664
1.11714
1.11763
1.11812
1.1186
1.11907
1.11953
1.11999
1.12044
1.12089
1.12132
1.12174
1.12215
1.12253
1.1229
1.12324
1.12353
1.12378
1.12396
1.12406
1.12403
1.12386
1.12349
1.12288
1.12196
1.1207
1.11905
1.11696
1.11443
1.11147
1.10812
1.10447
1.10061
1.09668
1.09279
1.08908
1.08563
1.08254
1.07984
1.07757
1.07571
1.07425
1.07315
1.07237
1.07187
1.07159
1.07151
1.07159
1.07179
1.0721
1.0725
1.07296
1.07349
1.07407
1.07468
1.07531
1.07593
1.07649
1.07691
1.07708
1.07684
1.07599
1.07428
1.07149
1.06745
1.06211
1.05561
1.04826
1.04051
1.03289
1.02584
1.01968
1.01457
1.01051
1.00741
1.00511
1.00346
1.0023
1.0015
1.00097
1.00061
1.00038
1.00023
1.00014
1.00008
1.00005
1.00003
1.00002
1.00001
1
1
1
1
1
1
1
1
1
1
1
1
1
1
1
1
1
1
1
1
1
1
1
1
1
1
1
1
1
1
1
1
1
1.05905
1.05937
1.05971
1.06007
1.06044
1.06083
1.06122
1.06161
1.06201
1.06242
1.06282
1.06322
1.06361
1.064
1.06438
1.06474
1.06509
1.06543
1.06575
1.06605
1.06634
1.0666
1.06684
1.06706
1.06726
1.06744
1.0676
1.06774
1.06786
1.06797
1.06806
1.06813
1.0682
1.06825
1.06829
1.06832
1.06834
1.06836
1.06837
1.06838
1.06839
1.0684
1.06841
1.06842
1.06844
1.06846
1.06849
1.06853
1.06857
1.06863
1.0687
1.06878
1.06887
1.06898
1.06911
1.06925
1.06941
1.06958
1.06978
1.06998
1.0702
1.07044
1.07068
1.07094
1.07121
1.07149
1.07179
1.0721
1.07243
1.07279
1.07317
1.07358
1.07403
1.07452
1.07506
1.07565
1.0763
1.07699
1.07774
1.07853
1.07936
1.08022
1.08111
1.082
1.0829
1.08379
1.08465
1.08548
1.08628
1.08702
1.08772
1.08836
1.08894
1.08946
1.08993
1.09034
1.09069
1.09098
1.09123
1.09142
1.09157
1.09167
1.09172
1.09174
1.09172
1.09166
1.09157
1.09145
1.09131
1.09114
1.09094
1.09073
1.0905
1.09026
1.09001
1.08975
1.08948
1.08922
1.08896
1.08871
1.08848
1.08827
1.0881
1.08798
1.0879
1.08788
1.08793
1.08805
1.08824
1.08851
1.08883
1.08922
1.08965
1.09012
1.09061
1.0911
1.09159
1.09205
1.09248
1.09286
1.09318
1.09345
1.09365
1.0938
1.09388
1.09392
1.09391
1.09386
1.09378
1.09368
1.09356
1.09344
1.0933
1.09317
1.09304
1.09292
1.0928
1.09269
1.09258
1.09249
1.09239
1.09231
1.09222
1.09214
1.09206
1.09199
1.0919
1.09182
1.09173
1.09164
1.09153
1.09142
1.0913
1.09117
1.09102
1.09087
1.0907
1.09052
1.09033
1.09012
1.0899
1.08967
1.08943
1.08919
1.08893
1.08866
1.08839
1.08812
1.08784
1.08756
1.08728
1.087
1.08672
1.08645
1.08618
1.08591
1.08566
1.08541
1.08517
1.08494
1.08472
1.08452
1.08432
1.08415
1.08398
1.08383
1.08369
1.08357
1.08347
1.08338
1.08331
1.08326
1.08323
1.08322
1.08324
1.08327
1.08333
1.08342
1.08353
1.08367
1.08384
1.08403
1.08425
1.0845
1.08477
1.08506
1.08538
1.08571
1.08607
1.08644
1.08683
1.08723
1.08765
1.08808
1.08852
1.08898
1.08945
1.08994
1.09043
1.09094
1.09146
1.092
1.09254
1.0931
1.09368
1.09426
1.09486
1.09547
1.09609
1.09673
1.09737
1.09803
1.0987
1.09939
1.10008
1.10079
1.10151
1.10225
1.10299
1.10375
1.10451
1.10529
1.10606
1.10684
1.10762
1.10838
1.10914
1.10988
1.1106
1.1113
1.11198
1.11263
1.11326
1.11386
1.11444
1.115
1.11555
1.11607
1.11659
1.11709
1.11758
1.11806
1.11854
1.11901
1.11947
1.11992
1.12037
1.12081
1.12123
1.12165
1.12205
1.12242
1.12278
1.12309
1.12337
1.12359
1.12374
1.12379
1.12372
1.12349
1.12306
1.12239
1.12143
1.12013
1.11846
1.1164
1.11394
1.11108
1.10788
1.1044
1.10072
1.09696
1.09322
1.08961
1.08623
1.08316
1.08046
1.07815
1.07623
1.0747
1.07353
1.07267
1.0721
1.07176
1.07163
1.07166
1.07182
1.0721
1.07246
1.0729
1.0734
1.07395
1.07453
1.07512
1.07568
1.07617
1.0765
1.07656
1.0762
1.07524
1.07348
1.07073
1.06685
1.06181
1.05567
1.0487
1.04128
1.03386
1.02688
1.02068
1.01545
1.01125
1.00799
1.00555
1.00379
1.00253
1.00166
1.00108
1.00068
1.00043
1.00026
1.00016
1.0001
1.00006
1.00003
1.00002
1.00001
1.00001
1
1
1
1
1
1
1
1
1
1
1
1
1
1
1
1
1
1
1
1
1
1
1
1
1
1
1
1
1
1
1
1
1.05912
1.05946
1.05981
1.06017
1.06054
1.06093
1.06131
1.06171
1.0621
1.0625
1.06289
1.06329
1.06368
1.06406
1.06443
1.06479
1.06514
1.06547
1.06579
1.06609
1.06637
1.06663
1.06688
1.0671
1.06731
1.0675
1.06767
1.06782
1.06796
1.06808
1.06818
1.06827
1.06835
1.06842
1.06848
1.06853
1.06857
1.0686
1.06863
1.06866
1.06868
1.06871
1.06873
1.06876
1.06879
1.06883
1.06887
1.06891
1.06897
1.06903
1.0691
1.06918
1.06928
1.06939
1.06952
1.06966
1.06982
1.06999
1.07017
1.07037
1.07059
1.07081
1.07105
1.0713
1.07156
1.07183
1.07212
1.07242
1.07275
1.07309
1.07346
1.07387
1.07431
1.07479
1.07531
1.07588
1.07651
1.07718
1.0779
1.07866
1.07947
1.0803
1.08116
1.08203
1.0829
1.08377
1.08461
1.08543
1.08621
1.08694
1.08763
1.08827
1.08885
1.08937
1.08983
1.09024
1.0906
1.09089
1.09114
1.09134
1.09149
1.09159
1.09166
1.09168
1.09167
1.09162
1.09154
1.09143
1.0913
1.09114
1.09096
1.09076
1.09055
1.09033
1.09009
1.08985
1.0896
1.08936
1.08912
1.08889
1.08868
1.08849
1.08834
1.08823
1.08817
1.08816
1.08822
1.08834
1.08853
1.08879
1.08912
1.0895
1.08993
1.09039
1.09088
1.09137
1.09186
1.09232
1.09275
1.09314
1.09348
1.09376
1.09398
1.09414
1.09424
1.09429
1.09429
1.09425
1.09418
1.09409
1.09397
1.09385
1.09371
1.09358
1.09344
1.09331
1.09318
1.09306
1.09294
1.09283
1.09272
1.09262
1.09252
1.09242
1.09232
1.09222
1.09212
1.09202
1.09191
1.0918
1.09168
1.09155
1.09141
1.09126
1.09111
1.09094
1.09076
1.09057
1.09036
1.09015
1.08993
1.0897
1.08945
1.08921
1.08895
1.08869
1.08842
1.08815
1.08788
1.0876
1.08733
1.08705
1.08678
1.08651
1.08625
1.08599
1.08573
1.08549
1.08525
1.08502
1.08481
1.0846
1.08441
1.08422
1.08406
1.0839
1.08376
1.08364
1.08353
1.08344
1.08337
1.08331
1.08328
1.08327
1.08328
1.08331
1.08337
1.08346
1.08357
1.08371
1.08387
1.08406
1.08428
1.08452
1.08479
1.08508
1.08539
1.08573
1.08608
1.08645
1.08683
1.08724
1.08765
1.08808
1.08853
1.08899
1.08946
1.08994
1.09043
1.09094
1.09146
1.092
1.09254
1.0931
1.09367
1.09426
1.09486
1.09547
1.09609
1.09672
1.09737
1.09803
1.0987
1.09938
1.10007
1.10078
1.1015
1.10223
1.10298
1.10373
1.10449
1.10526
1.10603
1.1068
1.10757
1.10833
1.10909
1.10982
1.11054
1.11124
1.11191
1.11257
1.1132
1.1138
1.11438
1.11495
1.11549
1.11602
1.11653
1.11703
1.11752
1.118
1.11847
1.11894
1.1194
1.11985
1.12029
1.12072
1.12113
1.12154
1.12192
1.12229
1.12262
1.12291
1.12316
1.12335
1.12345
1.12344
1.1233
1.123
1.12249
1.12174
1.12071
1.11937
1.11769
1.11565
1.11326
1.11053
1.1075
1.10422
1.10076
1.09722
1.09367
1.09022
1.08695
1.08393
1.08123
1.07889
1.07691
1.0753
1.07403
1.07308
1.07242
1.072
1.0718
1.07176
1.07187
1.0721
1.07243
1.07283
1.0733
1.07381
1.07434
1.07488
1.07539
1.07581
1.07607
1.07606
1.07563
1.07463
1.07289
1.07023
1.06652
1.06173
1.05589
1.0492
1.04201
1.03472
1.02777
1.02153
1.0162
1.01186
1.00848
1.00592
1.00406
1.00273
1.0018
1.00117
1.00075
1.00047
1.00029
1.00018
1.00011
1.00006
1.00004
1.00002
1.00001
1.00001
1
1
1
1
1
1
1
1
1
1
1
1
1
1
1
1
1
1
1
1
1
1
1
1
1
1
1
1
1
1
1
1
1.05925
1.0596
1.05995
1.06031
1.06069
1.06107
1.06145
1.06184
1.06223
1.06262
1.06301
1.0634
1.06378
1.06415
1.06452
1.06487
1.06522
1.06555
1.06586
1.06617
1.06645
1.06672
1.06697
1.06721
1.06742
1.06762
1.06781
1.06798
1.06813
1.06827
1.0684
1.06852
1.06862
1.06871
1.06879
1.06887
1.06893
1.06899
1.06905
1.0691
1.06914
1.06919
1.06923
1.06928
1.06932
1.06937
1.06943
1.06948
1.06955
1.06962
1.0697
1.06979
1.06989
1.07
1.07013
1.07026
1.07041
1.07058
1.07075
1.07094
1.07115
1.07136
1.07158
1.07182
1.07207
1.07233
1.07261
1.0729
1.07321
1.07354
1.0739
1.07429
1.07471
1.07518
1.07568
1.07623
1.07682
1.07747
1.07815
1.07889
1.07965
1.08045
1.08128
1.08211
1.08295
1.08379
1.08461
1.0854
1.08616
1.08689
1.08756
1.08819
1.08877
1.08929
1.08976
1.09017
1.09052
1.09083
1.09108
1.09128
1.09144
1.09155
1.09162
1.09166
1.09165
1.09162
1.09155
1.09145
1.09133
1.09119
1.09103
1.09085
1.09066
1.09045
1.09024
1.09002
1.0898
1.08958
1.08937
1.08916
1.08898
1.08882
1.08869
1.0886
1.08855
1.08857
1.08864
1.08877
1.08897
1.08923
1.08956
1.08994
1.09037
1.09083
1.09132
1.09181
1.0923
1.09278
1.09322
1.09362
1.09397
1.09426
1.0945
1.09467
1.09479
1.09486
1.09488
1.09485
1.09479
1.0947
1.09459
1.09447
1.09433
1.09419
1.09405
1.0939
1.09376
1.09362
1.09349
1.09336
1.09323
1.0931
1.09298
1.09286
1.09273
1.09261
1.09248
1.09235
1.09221
1.09207
1.09193
1.09177
1.09161
1.09144
1.09126
1.09107
1.09087
1.09067
1.09045
1.09023
1.08999
1.08975
1.08951
1.08926
1.089
1.08874
1.08847
1.0882
1.08794
1.08767
1.0874
1.08713
1.08686
1.0866
1.08634
1.08609
1.08584
1.0856
1.08536
1.08514
1.08492
1.08471
1.08452
1.08433
1.08416
1.084
1.08385
1.08373
1.08361
1.08352
1.08344
1.08338
1.08334
1.08333
1.08333
1.08336
1.08342
1.0835
1.08361
1.08374
1.08391
1.08409
1.08431
1.08455
1.08481
1.0851
1.08541
1.08574
1.08609
1.08646
1.08685
1.08725
1.08766
1.08809
1.08854
1.089
1.08946
1.08995
1.09044
1.09095
1.09147
1.092
1.09255
1.09311
1.09368
1.09426
1.09486
1.09547
1.09609
1.09672
1.09737
1.09803
1.0987
1.09938
1.10008
1.10078
1.1015
1.10223
1.10297
1.10372
1.10448
1.10524
1.10601
1.10677
1.10754
1.10829
1.10904
1.10977
1.11048
1.11118
1.11185
1.11251
1.11314
1.11374
1.11433
1.11489
1.11543
1.11596
1.11648
1.11698
1.11746
1.11794
1.11841
1.11887
1.11932
1.11977
1.1202
1.12062
1.12103
1.12142
1.12179
1.12214
1.12245
1.12272
1.12293
1.12306
1.1231
1.12303
1.12281
1.12241
1.1218
1.12094
1.11982
1.11841
1.1167
1.11468
1.11236
1.10976
1.10692
1.10388
1.10069
1.09741
1.09411
1.09086
1.08775
1.08483
1.08216
1.07979
1.07775
1.07605
1.07468
1.07363
1.07286
1.07234
1.07204
1.07193
1.07198
1.07215
1.07242
1.07278
1.07321
1.07368
1.07418
1.07468
1.07514
1.07551
1.07571
1.07564
1.07516
1.07414
1.0724
1.0698
1.06622
1.0616
1.05599
1.04955
1.04257
1.03544
1.02856
1.0223
1.0169
1.01246
1.00896
1.0063
1.00433
1.00293
1.00194
1.00126
1.00081
1.00051
1.00032
1.00019
1.00012
1.00007
1.00004
1.00002
1.00001
1.00001
1
1
1
1
1
1
1
1
1
1
1
1
1
1
1
1
1
1
1
1
1
1
1
1
1
1
1
1
1
1
1
1
1.05942
1.05977
1.06013
1.0605
1.06087
1.06125
1.06163
1.06202
1.0624
1.06279
1.06317
1.06355
1.06393
1.0643
1.06466
1.06501
1.06535
1.06569
1.066
1.06631
1.0666
1.06688
1.06714
1.06739
1.06763
1.06785
1.06805
1.06824
1.06842
1.06859
1.06875
1.06889
1.06902
1.06914
1.06926
1.06936
1.06946
1.06955
1.06963
1.0697
1.06978
1.06985
1.06991
1.06998
1.07005
1.07011
1.07018
1.07026
1.07033
1.07041
1.0705
1.07059
1.0707
1.07081
1.07093
1.07106
1.0712
1.07136
1.07152
1.0717
1.07189
1.07208
1.07229
1.07251
1.07274
1.07299
1.07325
1.07352
1.07382
1.07414
1.07448
1.07485
1.07525
1.07569
1.07617
1.07669
1.07725
1.07786
1.0785
1.07919
1.07991
1.08067
1.08145
1.08224
1.08304
1.08384
1.08463
1.08539
1.08613
1.08684
1.0875
1.08812
1.0887
1.08922
1.08968
1.0901
1.09046
1.09077
1.09103
1.09124
1.0914
1.09153
1.09161
1.09165
1.09166
1.09164
1.09158
1.0915
1.0914
1.09128
1.09114
1.09098
1.09081
1.09063
1.09045
1.09026
1.09007
1.08988
1.0897
1.08953
1.08937
1.08925
1.08915
1.08908
1.08907
1.0891
1.08919
1.08934
1.08955
1.08983
1.09016
1.09054
1.09098
1.09144
1.09193
1.09243
1.09293
1.09341
1.09386
1.09428
1.09464
1.09496
1.09521
1.09541
1.09555
1.09564
1.09567
1.09566
1.09561
1.09553
1.09543
1.0953
1.09516
1.09502
1.09486
1.09471
1.09455
1.09439
1.09424
1.09408
1.09393
1.09378
1.09362
1.09347
1.09331
1.09316
1.093
1.09283
1.09266
1.09249
1.09231
1.09212
1.09193
1.09173
1.09152
1.09131
1.09108
1.09086
1.09062
1.09038
1.09013
1.08988
1.08962
1.08936
1.0891
1.08884
1.08857
1.0883
1.08804
1.08777
1.08751
1.08724
1.08698
1.08673
1.08647
1.08622
1.08598
1.08574
1.0855
1.08528
1.08506
1.08485
1.08465
1.08446
1.08428
1.08412
1.08397
1.08383
1.08371
1.08361
1.08352
1.08346
1.08342
1.08339
1.0834
1.08342
1.08347
1.08355
1.08366
1.08379
1.08395
1.08413
1.08434
1.08458
1.08484
1.08513
1.08544
1.08577
1.08611
1.08648
1.08686
1.08726
1.08768
1.08811
1.08855
1.08901
1.08948
1.08996
1.09045
1.09096
1.09148
1.09201
1.09256
1.09312
1.09369
1.09427
1.09487
1.09548
1.0961
1.09673
1.09738
1.09804
1.09871
1.09939
1.10009
1.10079
1.10151
1.10224
1.10298
1.10372
1.10448
1.10523
1.10599
1.10675
1.10751
1.10826
1.109
1.10972
1.11043
1.11113
1.1118
1.11245
1.11308
1.11369
1.11427
1.11484
1.11538
1.11591
1.11642
1.11692
1.11741
1.11789
1.11835
1.11881
1.11925
1.11969
1.12011
1.12053
1.12092
1.1213
1.12166
1.12198
1.12226
1.12249
1.12265
1.12273
1.12269
1.12253
1.1222
1.12168
1.12095
1.11997
1.11875
1.11726
1.1155
1.1135
1.11127
1.10882
1.1062
1.10342
1.10053
1.09756
1.09455
1.09155
1.08863
1.08583
1.08322
1.08085
1.07876
1.07697
1.07549
1.07431
1.07342
1.07278
1.07238
1.07218
1.07214
1.07224
1.07246
1.07277
1.07316
1.07359
1.07405
1.0745
1.07492
1.07523
1.07537
1.07524
1.07471
1.07364
1.07189
1.06934
1.06586
1.06142
1.05604
1.04984
1.04307
1.0361
1.0293
1.02305
1.01759
1.01305
1.00944
1.00667
1.00461
1.00313
1.00208
1.00136
1.00088
1.00056
1.00035
1.00021
1.00013
1.00008
1.00004
1.00003
1.00001
1.00001
1
1
1
1
1
1
1
1
1
1
1
1
1
1
1
1
1
1
1
1
1
1
1
1
1
1
1
1
1
1
1
1
1.05964
1.06
1.06036
1.06073
1.0611
1.06148
1.06186
1.06225
1.06263
1.06301
1.0634
1.06377
1.06415
1.06451
1.06488
1.06523
1.06558
1.06591
1.06624
1.06655
1.06686
1.06715
1.06743
1.0677
1.06795
1.0682
1.06843
1.06865
1.06886
1.06906
1.06925
1.06943
1.06959
1.06975
1.0699
1.07004
1.07017
1.07029
1.0704
1.07051
1.07061
1.0707
1.0708
1.07088
1.07097
1.07106
1.07114
1.07123
1.07132
1.07141
1.0715
1.0716
1.0717
1.07181
1.07193
1.07205
1.07218
1.07233
1.07248
1.07264
1.0728
1.07298
1.07317
1.07337
1.07358
1.07381
1.07405
1.07431
1.07458
1.07488
1.0752
1.07555
1.07592
1.07633
1.07678
1.07726
1.07778
1.07834
1.07894
1.07958
1.08025
1.08095
1.08168
1.08242
1.08317
1.08393
1.08468
1.08541
1.08612
1.08681
1.08746
1.08807
1.08863
1.08915
1.08962
1.09004
1.0904
1.09072
1.09099
1.09121
1.09139
1.09152
1.09161
1.09167
1.09169
1.09169
1.09165
1.09159
1.09151
1.09141
1.09129
1.09116
1.09102
1.09087
1.09072
1.09057
1.09041
1.09026
1.09012
1.08998
1.08987
1.08978
1.08971
1.08969
1.0897
1.08976
1.08988
1.09005
1.09028
1.09057
1.09091
1.09131
1.09174
1.09222
1.09272
1.09322
1.09373
1.09422
1.09469
1.09512
1.09551
1.09585
1.09613
1.09635
1.09651
1.09661
1.09667
1.09667
1.09664
1.09657
1.09647
1.09635
1.09621
1.09605
1.09589
1.09572
1.09555
1.09537
1.0952
1.09502
1.09484
1.09465
1.09447
1.09428
1.09409
1.0939
1.0937
1.0935
1.09329
1.09308
1.09286
1.09263
1.0924
1.09217
1.09193
1.09168
1.09143
1.09117
1.09091
1.09065
1.09038
1.09011
1.08984
1.08956
1.08929
1.08902
1.08874
1.08847
1.0882
1.08794
1.08767
1.08741
1.08715
1.0869
1.08664
1.0864
1.08615
1.08591
1.08568
1.08545
1.08523
1.08502
1.08481
1.08462
1.08443
1.08426
1.0841
1.08396
1.08383
1.08372
1.08363
1.08355
1.0835
1.08347
1.08347
1.08349
1.08354
1.08361
1.08371
1.08384
1.08399
1.08417
1.08438
1.08462
1.08488
1.08516
1.08546
1.08579
1.08614
1.0865
1.08689
1.08728
1.0877
1.08813
1.08857
1.08903
1.08949
1.08998
1.09047
1.09098
1.0915
1.09203
1.09258
1.09313
1.0937
1.09429
1.09488
1.09549
1.09611
1.09675
1.09739
1.09805
1.09872
1.09941
1.1001
1.10081
1.10153
1.10226
1.10299
1.10374
1.10448
1.10524
1.10599
1.10674
1.10749
1.10823
1.10896
1.10968
1.11039
1.11108
1.11175
1.1124
1.11303
1.11363
1.11422
1.11479
1.11534
1.11586
1.11638
1.11688
1.11736
1.11783
1.11829
1.11874
1.11918
1.11961
1.12003
1.12043
1.12081
1.12117
1.1215
1.1218
1.12204
1.12222
1.12232
1.12232
1.1222
1.12192
1.12147
1.12082
1.11994
1.11884
1.1175
1.11593
1.11415
1.11218
1.11004
1.10777
1.10537
1.10288
1.10031
1.09766
1.09497
1.09225
1.08955
1.08692
1.0844
1.08204
1.07991
1.07804
1.07644
1.07513
1.0741
1.07334
1.07281
1.0725
1.07237
1.0724
1.07255
1.0728
1.07313
1.07352
1.07393
1.07434
1.0747
1.07496
1.07504
1.07484
1.07425
1.07315
1.07139
1.06888
1.0655
1.06122
1.05603
1.05006
1.0435
1.03669
1.02999
1.02376
1.01826
1.01364
1.00992
1.00705
1.0049
1.00334
1.00223
1.00147
1.00095
1.0006
1.00038
1.00023
1.00014
1.00008
1.00005
1.00003
1.00002
1.00001
1
1
1
1
1
1
1
1
1
1
1
1
1
1
1
1
1
1
1
1
1
1
1
1
1
1
1
1
1
1
1
1
1.05991
1.06027
1.06064
1.06101
1.06139
1.06177
1.06216
1.06254
1.06293
1.06331
1.0637
1.06408
1.06446
1.06483
1.0652
1.06556
1.06591
1.06626
1.0666
1.06693
1.06725
1.06757
1.06787
1.06817
1.06845
1.06872
1.06899
1.06924
1.06949
1.06972
1.06995
1.07016
1.07036
1.07056
1.07074
1.07092
1.07108
1.07123
1.07138
1.07151
1.07164
1.07176
1.07188
1.07199
1.0721
1.0722
1.0723
1.0724
1.0725
1.07259
1.07269
1.07279
1.07289
1.073
1.07311
1.07322
1.07334
1.07346
1.0736
1.07374
1.07388
1.07404
1.07421
1.07438
1.07457
1.07477
1.07499
1.07522
1.07547
1.07575
1.07604
1.07636
1.07671
1.07709
1.0775
1.07794
1.07841
1.07892
1.07946
1.08004
1.08065
1.08129
1.08195
1.08264
1.08334
1.08404
1.08474
1.08544
1.08612
1.08678
1.08741
1.08801
1.08856
1.08908
1.08955
1.08997
1.09034
1.09067
1.09095
1.09118
1.09137
1.09152
1.09162
1.0917
1.09174
1.09175
1.09173
1.09169
1.09164
1.09156
1.09148
1.09138
1.09127
1.09116
1.09104
1.09093
1.09082
1.09071
1.09061
1.09052
1.09045
1.0904
1.09038
1.09039
1.09044
1.09054
1.09068
1.09088
1.09113
1.09144
1.0918
1.09221
1.09266
1.09314
1.09365
1.09417
1.09469
1.0952
1.09569
1.09614
1.09655
1.09691
1.09721
1.09746
1.09765
1.09778
1.09785
1.09788
1.09786
1.0978
1.09771
1.0976
1.09746
1.0973
1.09713
1.09695
1.09676
1.09657
1.09637
1.09616
1.09596
1.09574
1.09553
1.09531
1.09508
1.09485
1.09461
1.09437
1.09412
1.09387
1.09361
1.09335
1.09308
1.0928
1.09252
1.09224
1.09195
1.09166
1.09137
1.09107
1.09078
1.09048
1.09019
1.08989
1.0896
1.08931
1.08903
1.08875
1.08847
1.08819
1.08792
1.08765
1.08739
1.08713
1.08688
1.08663
1.08638
1.08614
1.0859
1.08567
1.08544
1.08522
1.08501
1.08481
1.08461
1.08443
1.08426
1.08411
1.08397
1.08385
1.08375
1.08366
1.0836
1.08357
1.08356
1.08357
1.08361
1.08368
1.08377
1.08389
1.08405
1.08422
1.08443
1.08466
1.08491
1.08519
1.0855
1.08582
1.08617
1.08653
1.08691
1.08731
1.08772
1.08815
1.08859
1.08905
1.08952
1.09
1.09049
1.091
1.09152
1.09205
1.0926
1.09315
1.09373
1.09431
1.0949
1.09551
1.09614
1.09677
1.09742
1.09808
1.09875
1.09944
1.10013
1.10084
1.10156
1.10228
1.10302
1.10376
1.1045
1.10525
1.10599
1.10674
1.10748
1.10821
1.10893
1.10965
1.11035
1.11103
1.1117
1.11235
1.11298
1.11359
1.11417
1.11474
1.11529
1.11582
1.11633
1.11683
1.11731
1.11778
1.11823
1.11868
1.11911
1.11953
1.11993
1.12032
1.12068
1.12102
1.12133
1.12158
1.12178
1.1219
1.12193
1.12184
1.1216
1.1212
1.1206
1.1198
1.11879
1.11755
1.11611
1.11447
1.11268
1.11075
1.10873
1.10664
1.10448
1.10229
1.10004
1.09773
1.09537
1.09295
1.0905
1.08805
1.08564
1.08334
1.08118
1.07924
1.07753
1.07608
1.07491
1.074
1.07334
1.07291
1.07267
1.0726
1.07267
1.07286
1.07313
1.07346
1.07382
1.07418
1.07449
1.07469
1.0747
1.07445
1.0738
1.07266
1.0709
1.06842
1.06513
1.06099
1.05599
1.05022
1.04387
1.03723
1.03063
1.02443
1.0189
1.01421
1.0104
1.00743
1.00519
1.00355
1.00239
1.00157
1.00102
1.00065
1.00041
1.00025
1.00015
1.00009
1.00005
1.00003
1.00002
1.00001
1.00001
1
1
1
1
1
1
1
1
1
1
1
1
1
1
1
1
1
1
1
1
1
1
1
1
1
1
1
1
1
1
1
1.06023
1.0606
1.06098
1.06136
1.06175
1.06214
1.06253
1.06292
1.06332
1.06371
1.0641
1.0645
1.06488
1.06527
1.06565
1.06603
1.0664
1.06677
1.06713
1.06749
1.06784
1.06818
1.06851
1.06884
1.06915
1.06946
1.06976
1.07005
1.07033
1.07061
1.07087
1.07112
1.07136
1.07159
1.07181
1.07201
1.07221
1.07239
1.07257
1.07273
1.07288
1.07302
1.07316
1.07329
1.07341
1.07353
1.07364
1.07375
1.07385
1.07395
1.07405
1.07415
1.07424
1.07434
1.07444
1.07454
1.07464
1.07475
1.07486
1.07498
1.0751
1.07523
1.07537
1.07552
1.07568
1.07586
1.07605
1.07626
1.07648
1.07673
1.07699
1.07728
1.0776
1.07794
1.0783
1.0787
1.07912
1.07957
1.08005
1.08057
1.08111
1.08168
1.08228
1.0829
1.08353
1.08418
1.08483
1.08549
1.08613
1.08676
1.08737
1.08795
1.0885
1.08901
1.08948
1.08991
1.09029
1.09063
1.09092
1.09116
1.09136
1.09153
1.09165
1.09174
1.0918
1.09183
1.09184
1.09183
1.0918
1.09176
1.0917
1.09164
1.09157
1.0915
1.09142
1.09135
1.09128
1.09122
1.09117
1.09113
1.09111
1.09111
1.09113
1.09119
1.09128
1.09142
1.0916
1.09182
1.0921
1.09243
1.09281
1.09324
1.0937
1.0942
1.09473
1.09526
1.0958
1.09632
1.09683
1.0973
1.09774
1.09812
1.09845
1.09873
1.09894
1.0991
1.0992
1.09925
1.09925
1.0992
1.09912
1.09901
1.09888
1.09872
1.09855
1.09836
1.09816
1.09795
1.09774
1.09751
1.09728
1.09705
1.0968
1.09655
1.09629
1.09603
1.09576
1.09548
1.09519
1.0949
1.0946
1.09429
1.09398
1.09367
1.09335
1.09302
1.0927
1.09237
1.09204
1.09171
1.09138
1.09105
1.09073
1.0904
1.09009
1.08977
1.08946
1.08916
1.08886
1.08857
1.08828
1.088
1.08772
1.08745
1.08719
1.08693
1.08667
1.08642
1.08617
1.08593
1.0857
1.08547
1.08524
1.08503
1.08483
1.08463
1.08445
1.08428
1.08413
1.084
1.08389
1.08379
1.08372
1.08368
1.08366
1.08366
1.0837
1.08376
1.08384
1.08396
1.08411
1.08428
1.08448
1.08471
1.08496
1.08524
1.08553
1.08586
1.0862
1.08656
1.08694
1.08734
1.08775
1.08818
1.08862
1.08907
1.08954
1.09003
1.09052
1.09103
1.09155
1.09208
1.09262
1.09318
1.09375
1.09434
1.09493
1.09554
1.09617
1.0968
1.09745
1.09811
1.09879
1.09947
1.10017
1.10088
1.1016
1.10232
1.10305
1.10379
1.10453
1.10527
1.10601
1.10674
1.10747
1.1082
1.10891
1.10962
1.11031
1.11099
1.11166
1.1123
1.11293
1.11354
1.11413
1.1147
1.11524
1.11577
1.11629
1.11678
1.11726
1.11772
1.11817
1.11861
1.11903
1.11944
1.11983
1.1202
1.12054
1.12085
1.12112
1.12133
1.12147
1.12152
1.12145
1.12125
1.12089
1.12034
1.1196
1.11865
1.11748
1.11612
1.11458
1.1129
1.11111
1.10926
1.10737
1.10547
1.10357
1.10166
1.09973
1.09776
1.09573
1.09362
1.09144
1.08919
1.08693
1.0847
1.08255
1.08054
1.07874
1.07716
1.07584
1.07478
1.07397
1.0734
1.07304
1.07286
1.07284
1.07295
1.07315
1.07342
1.07373
1.07403
1.07428
1.07442
1.07438
1.07406
1.07337
1.07219
1.07042
1.06797
1.06475
1.06073
1.0559
1.05033
1.04418
1.03771
1.03123
1.02508
1.01953
1.01478
1.01088
1.00782
1.00549
1.00378
1.00255
1.00169
1.0011
1.0007
1.00044
1.00027
1.00017
1.0001
1.00006
1.00003
1.00002
1.00001
1.00001
1
1
1
1
1
1
1
1
1
1
1
1
1
1
1
1
1
1
1
1
1
1
1
1
1
1
1
1
1
1
1
1.06063
1.06101
1.0614
1.06179
1.06219
1.0626
1.063
1.06341
1.06382
1.06423
1.06465
1.06506
1.06547
1.06588
1.06628
1.06669
1.06709
1.06749
1.06788
1.06826
1.06865
1.06902
1.06939
1.06975
1.0701
1.07045
1.07078
1.07111
1.07143
1.07173
1.07203
1.07231
1.07259
1.07285
1.07309
1.07333
1.07355
1.07376
1.07395
1.07413
1.0743
1.07446
1.07461
1.07475
1.07488
1.075
1.07512
1.07523
1.07534
1.07544
1.07553
1.07562
1.07571
1.07579
1.07588
1.07596
1.07604
1.07613
1.07621
1.07631
1.0764
1.07651
1.07662
1.07674
1.07688
1.07703
1.07719
1.07737
1.07757
1.07778
1.07802
1.07827
1.07855
1.07885
1.07917
1.07951
1.07988
1.08027
1.08069
1.08113
1.08161
1.08211
1.08263
1.08318
1.08375
1.08434
1.08493
1.08554
1.08614
1.08674
1.08732
1.08789
1.08842
1.08893
1.0894
1.08983
1.09022
1.09057
1.09087
1.09113
1.09135
1.09153
1.09168
1.09179
1.09187
1.09192
1.09196
1.09197
1.09197
1.09196
1.09194
1.09192
1.09189
1.09186
1.09183
1.09181
1.09179
1.09178
1.09178
1.09179
1.09182
1.09187
1.09195
1.09205
1.09219
1.09236
1.09258
1.09284
1.09315
1.09351
1.09391
1.09435
1.09484
1.09535
1.09589
1.09644
1.09699
1.09754
1.09806
1.09856
1.09902
1.09943
1.09979
1.10009
1.10034
1.10052
1.10065
1.10072
1.10074
1.10072
1.10066
1.10056
1.10043
1.10028
1.10011
1.09992
1.09971
1.0995
1.09927
1.09903
1.09879
1.09853
1.09827
1.098
1.09771
1.09742
1.09712
1.09681
1.09649
1.09616
1.09583
1.09549
1.09514
1.09478
1.09443
1.09406
1.0937
1.09333
1.09296
1.09259
1.09222
1.09186
1.0915
1.09114
1.09078
1.09043
1.09009
1.08976
1.08943
1.08911
1.08879
1.08849
1.08819
1.08789
1.08761
1.08733
1.08705
1.08678
1.08652
1.08626
1.08601
1.08577
1.08553
1.0853
1.08508
1.08487
1.08468
1.0845
1.08433
1.08418
1.08405
1.08395
1.08387
1.08381
1.08378
1.08377
1.0838
1.08385
1.08393
1.08404
1.08418
1.08435
1.08454
1.08476
1.08501
1.08528
1.08558
1.0859
1.08624
1.0866
1.08697
1.08737
1.08778
1.08821
1.08865
1.08911
1.08957
1.09006
1.09055
1.09106
1.09158
1.09211
1.09266
1.09322
1.09379
1.09437
1.09497
1.09558
1.0962
1.09684
1.09749
1.09815
1.09883
1.09952
1.10022
1.10093
1.10164
1.10237
1.1031
1.10383
1.10456
1.10529
1.10603
1.10675
1.10748
1.10819
1.1089
1.1096
1.11028
1.11096
1.11162
1.11226
1.11289
1.1135
1.11408
1.11465
1.1152
1.11573
1.11624
1.11673
1.11721
1.11767
1.11811
1.11854
1.11895
1.11935
1.11972
1.12007
1.12038
1.12066
1.12088
1.12103
1.1211
1.12106
1.12088
1.12055
1.12005
1.11935
1.11845
1.11734
1.11604
1.11457
1.11296
1.11125
1.1095
1.10774
1.106
1.1043
1.10265
1.10102
1.09941
1.09776
1.09605
1.09425
1.09234
1.09032
1.08822
1.08609
1.08397
1.08194
1.08005
1.07835
1.07689
1.07567
1.0747
1.07398
1.07349
1.07319
1.07306
1.07308
1.07321
1.07341
1.07365
1.07389
1.07409
1.07417
1.07407
1.07369
1.07295
1.07173
1.06995
1.06752
1.06436
1.06045
1.05577
1.05039
1.04444
1.03813
1.03178
1.02568
1.02014
1.01534
1.01136
1.00821
1.00579
1.004
1.00271
1.0018
1.00118
1.00075
1.00048
1.0003
1.00018
1.00011
1.00006
1.00004
1.00002
1.00001
1.00001
1
1
1
1
1
1
1
1
1
1
1
1
1
1
1
1
1
1
1
1
1
1
1
1
1
1
1
1
1
1
1
1.06112
1.06152
1.06192
1.06233
1.06275
1.06318
1.06361
1.06404
1.06448
1.06492
1.06536
1.0658
1.06624
1.06669
1.06713
1.06757
1.068
1.06844
1.06887
1.06929
1.06971
1.07012
1.07053
1.07093
1.07132
1.0717
1.07207
1.07243
1.07277
1.07311
1.07343
1.07374
1.07404
1.07432
1.07458
1.07483
1.07507
1.07529
1.07549
1.07568
1.07586
1.07602
1.07618
1.07632
1.07645
1.07657
1.07669
1.07679
1.07689
1.07699
1.07707
1.07715
1.07722
1.07729
1.07736
1.07742
1.07748
1.07754
1.07761
1.07767
1.07774
1.07782
1.0779
1.078
1.0781
1.07823
1.07836
1.07851
1.07868
1.07887
1.07907
1.07929
1.07953
1.07979
1.08006
1.08036
1.08067
1.081
1.08135
1.08172
1.08212
1.08255
1.083
1.08347
1.08397
1.0845
1.08504
1.08559
1.08615
1.08672
1.08727
1.08782
1.08834
1.08884
1.08931
1.08975
1.09015
1.09051
1.09083
1.0911
1.09134
1.09154
1.09171
1.09184
1.09195
1.09203
1.09209
1.09213
1.09217
1.09219
1.09221
1.09222
1.09224
1.09225
1.09227
1.0923
1.09233
1.09237
1.09242
1.09249
1.09257
1.09268
1.0928
1.09295
1.09314
1.09336
1.09361
1.09391
1.09425
1.09463
1.09505
1.09552
1.09602
1.09655
1.0971
1.09767
1.09824
1.0988
1.09935
1.09986
1.10035
1.10078
1.10117
1.1015
1.10177
1.10199
1.10214
1.10224
1.10229
1.10229
1.10224
1.10216
1.10205
1.10191
1.10174
1.10156
1.10136
1.10114
1.10092
1.10068
1.10042
1.10016
1.09989
1.0996
1.09931
1.099
1.09868
1.09835
1.09801
1.09766
1.0973
1.09693
1.09655
1.09617
1.09577
1.09538
1.09498
1.09457
1.09416
1.09375
1.09335
1.09294
1.09253
1.09213
1.09174
1.09134
1.09096
1.09058
1.09021
1.08985
1.0895
1.08915
1.08882
1.08849
1.08817
1.08786
1.08756
1.08726
1.08697
1.08669
1.08641
1.08614
1.08589
1.08563
1.08539
1.08517
1.08495
1.08475
1.08457
1.0844
1.08426
1.08413
1.08404
1.08397
1.08392
1.0839
1.08392
1.08396
1.08403
1.08413
1.08426
1.08442
1.08461
1.08483
1.08507
1.08533
1.08563
1.08594
1.08628
1.08664
1.08701
1.08741
1.08782
1.08824
1.08868
1.08914
1.08961
1.09009
1.09059
1.09109
1.09162
1.09215
1.09269
1.09325
1.09383
1.09441
1.09501
1.09562
1.09625
1.09689
1.09754
1.0982
1.09888
1.09957
1.10027
1.10098
1.1017
1.10242
1.10315
1.10388
1.1046
1.10533
1.10605
1.10677
1.10748
1.10819
1.10889
1.10958
1.11026
1.11093
1.11158
1.11222
1.11285
1.11345
1.11404
1.11461
1.11516
1.11568
1.11619
1.11668
1.11716
1.11761
1.11805
1.11846
1.11886
1.11924
1.11959
1.11991
1.12019
1.12042
1.12059
1.12067
1.12065
1.1205
1.1202
1.11973
1.11907
1.11821
1.11715
1.11589
1.11447
1.11291
1.11126
1.10956
1.10787
1.10623
1.10465
1.10316
1.10175
1.1004
1.09907
1.09773
1.09632
1.09482
1.09318
1.0914
1.08949
1.08748
1.08543
1.0834
1.08145
1.07965
1.07804
1.07667
1.07554
1.07466
1.07402
1.07359
1.07335
1.07326
1.0733
1.07342
1.0736
1.07378
1.07391
1.07393
1.07376
1.07333
1.07253
1.07128
1.06948
1.06706
1.06396
1.06014
1.05561
1.0504
1.04464
1.03851
1.03228
1.02626
1.02073
1.01588
1.01184
1.0086
1.0061
1.00423
1.00288
1.00192
1.00126
1.00081
1.00051
1.00032
1.0002
1.00012
1.00007
1.00004
1.00002
1.00001
1.00001
1
1
1
1
1
1
1
1
1
1
1
1
1
1
1
1
1
1
1
1
1
1
1
1
1
1
1
1
1
1
1
1.06173
1.06215
1.06257
1.06301
1.06346
1.06392
1.06438
1.06485
1.06532
1.0658
1.06628
1.06677
1.06725
1.06774
1.06822
1.0687
1.06918
1.06966