# vtk DataFile Version 2.0
LBE two cylinders
ASCII
DATASET STRUCTURED_POINTS
DIMENSIONS 400 100 1
ASPECT_RATIO 1 1 1
ORIGIN 0 0 0
POINT_DATA 40000
SCALARS rho double 1
LOOKUP_TABLE default
1.28528
1.28134
1.27761
1.27418
1.27111
1.26844
1.26618
1.26433
1.26287
1.26175
1.26093
1.26038
1.26006
1.25992
1.25994
1.26008
1.26033
1.26065
1.26104
1.26148
1.26196
1.26248
1.26303
1.26361
1.26421
1.26483
1.26548
1.26616
1.26686
1.26759
1.26834
1.26912
1.26993
1.27076
1.27163
1.27252
1.27343
1.27437
1.27534
1.27632
1.27733
1.27836
1.2794
1.28045
1.28152
1.28258
1.28365
1.28472
1.28577
1.28682
1.28786
1.28889
1.28991
1.29092
1.29193
1.29295
1.29398
1.29505
1.29615
1.29732
1.29855
1.29986
1.30128
1.30282
1.30453
1.30645
1.30869
1.31141
1.3149
1.31959
1.3262
1.33572
1.34939
1.36836
1.3928
1.42102
1.44923
1.47293
1.48884
1.49595
1.49529
1.48903
1.47959
1.469
1.45863
1.44922
1.44102
1.43395
1.42782
1.42241
1.41754
1.41311
1.40903
1.40529
1.40188
1.39881
1.3961
1.39372
1.39166
1.38988
1.38834
1.38699
1.3858
1.38474
1.3838
1.38297
1.38226
1.38169
1.3813
1.38114
1.38125
1.38173
1.38263
1.38407
1.38613
1.38893
1.39257
1.39714
1.40267
1.40913
1.41636
1.42405
1.43175
1.43891
1.44485
1.44894
1.45062
1.44955
1.44564
1.43913
1.43052
1.42046
1.40966
1.39866
1.38786
1.37749
1.36764
1.3584
1.34981
1.34192
1.33477
1.32837
1.32271
1.31773
1.31338
1.30959
1.30627
1.30336
1.30079
1.29851
1.29647
1.29462
1.29293
1.29136
1.28988
1.28848
1.28713
1.28581
1.28453
1.28326
1.28201
1.28077
1.27955
1.27833
1.27714
1.27596
1.2748
1.27366
1.27255
1.27147
1.27041
1.26939
1.2684
1.26745
1.26653
1.26564
1.26479
1.26398
1.2632
1.26246
1.26175
1.26108
1.26045
1.25986
1.25931
1.2588
1.25834
1.25794
1.2576
1.25733
1.25715
1.25707
1.2571
1.25729
1.25765
1.25821
1.25902
1.26012
1.26154
1.26332
1.26551
1.26812
1.27115
1.27459
1.27838
1.28245
1.28669
1.29097
1.29514
1.29907
1.30262
1.30571
1.30828
1.31031
1.31181
1.31284
1.31346
1.31374
1.31376
1.31358
1.31326
1.31284
1.31234
1.3118
1.31121
1.31059
1.30994
1.30926
1.30857
1.30785
1.30711
1.30636
1.3056
1.30482
1.30404
1.30326
1.30247
1.30168
1.30089
1.30011
1.29933
1.29855
1.29778
1.29701
1.29625
1.29549
1.29473
1.29398
1.29322
1.29247
1.29172
1.29098
1.29023
1.28949
1.28876
1.28804
1.28732
1.28662
1.28593
1.28527
1.28462
1.284
1.28341
1.28284
1.28231
1.28181
1.28134
1.28091
1.28052
1.28015
1.27983
1.27954
1.27928
1.27905
1.27886
1.27869
1.27855
1.27844
1.27834
1.27826
1.27819
1.27813
1.27808
1.27803
1.27799
1.27795
1.27791
1.27787
1.27783
1.27779
1.27776
1.27773
1.27771
1.27769
1.27768
1.27768
1.27768
1.2777
1.27773
1.27776
1.2778
1.27785
1.27791
1.27797
1.27804
1.27811
1.27819
1.27826
1.27834
1.27843
1.27851
1.27859
1.27867
1.27874
1.27882
1.27889
1.27896
1.27902
1.27908
1.27914
1.27919
1.27924
1.2793
1.27936
1.27942
1.27949
1.27958
1.27968
1.2798
1.27994
1.2801
1.28028
1.2805
1.28074
1.28101
1.28131
1.28164
1.282
1.2824
1.28282
1.28327
1.28376
1.28427
1.28481
1.28537
1.28596
1.28657
1.2872
1.28785
1.28852
1.2892
1.28988
1.29058
1.29129
1.292
1.29272
1.29344
1.29417
1.29489
1.29562
1.29635
1.29708
1.29781
1.29853
1.29926
1.29998
1.3007
1.30143
1.30214
1.30286
1.30357
1.30428
1.30498
1.30567
1.30635
1.30702
1.30766
1.30829
1.3089
1.30947
1.31003
1.31055
1.31103
1.31148
1.31188
1.31222
1.31248
1.31263
1.31263
1.31243
1.31196
1.31116
1.30998
1.30834
1.30622
1.3036
1.30052
1.29704
1.29326
1.28929
1.28557
1.28181
1.27821
1.27486
1.27183
1.26917
1.26689
1.26499
1.26347
1.26229
1.26141
1.26081
1.26043
1.26025
1.26023
1.26034
1.26055
1.26086
1.26123
1.26166
1.26213
1.26265
1.26319
1.26377
1.26437
1.26499
1.26564
1.26632
1.26702
1.26775
1.2685
1.26928
1.27009
1.27092
1.27178
1.27267
1.27358
1.27452
1.27548
1.27646
1.27747
1.27849
1.27953
1.28058
1.28163
1.2827
1.28376
1.28482
1.28588
1.28693
1.28798
1.28901
1.29004
1.29107
1.2921
1.29315
1.29422
1.29532
1.29648
1.29768
1.29896
1.30031
1.30177
1.30334
1.30507
1.30703
1.30933
1.31217
1.31587
1.32092
1.3281
1.33843
1.35307
1.37277
1.39707
1.4236
1.44862
1.46866
1.48192
1.48833
1.48878
1.48458
1.47716
1.468
1.45847
1.4495
1.44153
1.43457
1.42841
1.42285
1.41777
1.41312
1.40891
1.40511
1.40171
1.39868
1.39598
1.39361
1.39155
1.38977
1.38824
1.38692
1.38575
1.38473
1.38382
1.38303
1.38238
1.38187
1.38155
1.38145
1.38163
1.38217
1.38313
1.38462
1.38675
1.38961
1.39329
1.39787
1.40335
1.40966
1.41661
1.42389
1.43107
1.43765
1.44306
1.44679
1.44838
1.44751
1.44406
1.43815
1.43014
1.42058
1.41009
1.39926
1.38854
1.37818
1.36834
1.35909
1.35048
1.34256
1.33537
1.32892
1.32321
1.31818
1.31378
1.30994
1.30658
1.30363
1.30103
1.29873
1.29666
1.29479
1.29308
1.2915
1.29001
1.2886
1.28725
1.28593
1.28465
1.28338
1.28214
1.2809
1.27968
1.27848
1.27729
1.27611
1.27496
1.27383
1.27272
1.27164
1.27059
1.26957
1.26858
1.26763
1.26671
1.26582
1.26497
1.26416
1.26338
1.26264
1.26193
1.26126
1.26064
1.26005
1.2595
1.259
1.25855
1.25817
1.25784
1.2576
1.25745
1.25741
1.25749
1.25774
1.25817
1.25881
1.25971
1.26089
1.26241
1.26427
1.26652
1.26915
1.27216
1.27552
1.27916
1.28301
1.28697
1.29093
1.29477
1.2984
1.3017
1.30462
1.30711
1.30914
1.31072
1.31188
1.31266
1.3131
1.31327
1.31322
1.313
1.31264
1.3122
1.31168
1.31111
1.31049
1.30985
1.30918
1.30849
1.30777
1.30704
1.3063
1.30554
1.30477
1.304
1.30322
1.30244
1.30166
1.30088
1.3001
1.29933
1.29856
1.29779
1.29702
1.29626
1.2955
1.29475
1.29399
1.29324
1.29249
1.29174
1.291
1.29026
1.28952
1.28879
1.28807
1.28736
1.28666
1.28597
1.28531
1.28467
1.28405
1.28346
1.2829
1.28237
1.28187
1.2814
1.28097
1.28058
1.28022
1.27989
1.2796
1.27934
1.27911
1.27891
1.27874
1.27859
1.27847
1.27836
1.27827
1.2782
1.27813
1.27808
1.27803
1.27798
1.27794
1.27789
1.27785
1.27782
1.27778
1.27775
1.27772
1.2777
1.27768
1.27768
1.27768
1.27768
1.2777
1.27773
1.27776
1.2778
1.27785
1.27791
1.27797
1.27804
1.27811
1.27819
1.27827
1.27834
1.27843
1.27851
1.27859
1.27867
1.27874
1.27882
1.27889
1.27896
1.27902
1.27908
1.27914
1.2792
1.27925
1.27931
1.27937
1.27944
1.27952
1.27961
1.27972
1.27984
1.27998
1.28014
1.28033
1.28054
1.28079
1.28106
1.28136
1.28169
1.28205
1.28244
1.28287
1.28332
1.2838
1.28431
1.28485
1.28541
1.286
1.28661
1.28724
1.28789
1.28855
1.28922
1.28991
1.29061
1.29131
1.29203
1.29274
1.29346
1.29419
1.29491
1.29564
1.29637
1.29709
1.29782
1.29854
1.29926
1.29998
1.3007
1.30142
1.30213
1.30284
1.30355
1.30425
1.30494
1.30563
1.3063
1.30695
1.30759
1.30822
1.30882
1.30939
1.30994
1.31046
1.31094
1.31137
1.31176
1.31207
1.31228
1.31237
1.31229
1.312
1.31144
1.31056
1.30931
1.30764
1.30553
1.30299
1.30003
1.29672
1.29314
1.28939
1.28594
1.28243
1.27903
1.27582
1.27288
1.27024
1.26795
1.26601
1.26441
1.26315
1.26219
1.2615
1.26105
1.2608
1.26073
1.26079
1.26097
1.26124
1.2616
1.26201
1.26247
1.26297
1.26351
1.26408
1.26468
1.26531
1.26596
1.26664
1.26734
1.26806
1.26882
1.26959
1.2704
1.27123
1.27209
1.27297
1.27388
1.27481
1.27577
1.27675
1.27775
1.27876
1.2798
1.28084
1.2819
1.28296
1.28402
1.28508
1.28614
1.2872
1.28825
1.28931
1.29036
1.29142
1.29249
1.29359
1.29473
1.2959
1.29712
1.2984
1.29974
1.30116
1.30265
1.30425
1.306
1.30798
1.31031
1.31324
1.31712
1.3225
1.33018
1.34117
1.35644
1.3764
1.40012
1.42503
1.44765
1.46521
1.47662
1.48224
1.48298
1.47978
1.47367
1.46585
1.45743
1.44923
1.44167
1.43482
1.42862
1.42296
1.41777
1.41304
1.40876
1.40491
1.40148
1.39846
1.39581
1.3935
1.3915
1.38977
1.38828
1.38697
1.38584
1.38484
1.38396
1.38321
1.38258
1.38211
1.38182
1.38175
1.38197
1.38255
1.38356
1.38511
1.38729
1.39021
1.39393
1.39849
1.40388
1.40997
1.41656
1.42337
1.43001
1.43608
1.44111
1.44468
1.44637
1.44587
1.44295
1.43761
1.43011
1.42093
1.41067
1.39996
1.38927
1.37892
1.36905
1.35976
1.3511
1.34312
1.33587
1.32937
1.32361
1.31854
1.31412
1.31025
1.30688
1.30392
1.30131
1.29899
1.29692
1.29505
1.29334
1.29175
1.29026
1.28885
1.2875
1.28619
1.28491
1.28365
1.28241
1.28119
1.27998
1.27878
1.2776
1.27644
1.27529
1.27417
1.27306
1.27199
1.27094
1.26993
1.26894
1.26799
1.26707
1.26618
1.26533
1.26451
1.26373
1.26299
1.26228
1.26162
1.26099
1.26041
1.25987
1.25938
1.25895
1.25859
1.2583
1.2581
1.258
1.25802
1.25819
1.25853
1.25906
1.25983
1.26086
1.26218
1.26382
1.26578
1.26809
1.27072
1.27365
1.27684
1.28021
1.28371
1.28724
1.29074
1.29412
1.29733
1.3003
1.30299
1.30537
1.30741
1.3091
1.31043
1.31143
1.3121
1.31249
1.31263
1.31257
1.31233
1.31197
1.31151
1.31097
1.31038
1.30975
1.30908
1.30839
1.30769
1.30696
1.30623
1.30548
1.30472
1.30396
1.3032
1.30243
1.30166
1.30089
1.30012
1.29935
1.29859
1.29783
1.29707
1.29631
1.29555
1.2948
1.29405
1.2933
1.29255
1.29181
1.29106
1.29032
1.28959
1.28886
1.28814
1.28743
1.28673
1.28605
1.28539
1.28475
1.28414
1.28355
1.28299
1.28246
1.28196
1.2815
1.28107
1.28067
1.28031
1.27998
1.27969
1.27942
1.27919
1.27898
1.2788
1.27865
1.27851
1.2784
1.2783
1.27821
1.27814
1.27808
1.27802
1.27797
1.27792
1.27787
1.27783
1.2778
1.27776
1.27773
1.27771
1.27769
1.27767
1.27767
1.27767
1.27768
1.2777
1.27773
1.27777
1.27781
1.27786
1.27792
1.27798
1.27805
1.27812
1.2782
1.27827
1.27835
1.27843
1.27851
1.27859
1.27867
1.27875
1.27882
1.27889
1.27896
1.27903
1.27909
1.27915
1.27921
1.27927
1.27934
1.27941
1.27948
1.27957
1.27966
1.27977
1.2799
1.28004
1.28021
1.2804
1.28062
1.28086
1.28113
1.28144
1.28177
1.28213
1.28252
1.28294
1.2834
1.28388
1.28439
1.28493
1.28549
1.28607
1.28668
1.28731
1.28796
1.28862
1.28929
1.28998
1.29067
1.29138
1.29209
1.29281
1.29353
1.29425
1.29497
1.2957
1.29642
1.29714
1.29786
1.29858
1.2993
1.30002
1.30073
1.30144
1.30214
1.30284
1.30354
1.30423
1.30491
1.30558
1.30624
1.30688
1.30751
1.30813
1.30872
1.30929
1.30983
1.31034
1.31081
1.31123
1.31158
1.31185
1.31199
1.31199
1.31181
1.31139
1.3107
1.3097
1.30836
1.30664
1.30456
1.30211
1.29932
1.29624
1.29293
1.28947
1.28635
1.28319
1.28009
1.2771
1.2743
1.27173
1.26944
1.26745
1.26577
1.26441
1.26334
1.26254
1.26199
1.26165
1.26149
1.26149
1.26162
1.26185
1.26216
1.26255
1.26299
1.26348
1.26402
1.26458
1.26518
1.2658
1.26645
1.26713
1.26783
1.26855
1.2693
1.27008
1.27088
1.27171
1.27256
1.27344
1.27434
1.27527
1.27622
1.27719
1.27819
1.2792
1.28022
1.28126
1.28231
1.28337
1.28443
1.2855
1.28657
1.28764
1.28871
1.28979
1.29088
1.29199
1.29313
1.29431
1.29552
1.29679
1.2981
1.29947
1.30088
1.30234
1.30386
1.30548
1.30723
1.30922
1.31162
1.31468
1.31882
1.32466
1.33299
1.34471
1.3605
1.38021
1.40245
1.42474
1.4445
1.46003
1.47073
1.47661
1.47794
1.47539
1.47005
1.46318
1.45577
1.44841
1.44135
1.43469
1.42849
1.42277
1.41752
1.41276
1.40845
1.4046
1.40119
1.39819
1.39558
1.39332
1.39137
1.38968
1.38823
1.38697
1.38589
1.38494
1.38413
1.38345
1.38291
1.38253
1.38233
1.38237
1.3827
1.38338
1.38449
1.38613
1.38838
1.39132
1.39501
1.39944
1.40456
1.41023
1.41627
1.42245
1.42848
1.43405
1.43879
1.44233
1.44425
1.44417
1.44181
1.43706
1.4301
1.42134
1.41139
1.40085
1.39024
1.37989
1.36998
1.36062
1.35188
1.34382
1.3365
1.32993
1.32412
1.31902
1.31457
1.31068
1.30729
1.30432
1.30171
1.29938
1.29731
1.29543
1.29372
1.29214
1.29065
1.28925
1.28791
1.28661
1.28534
1.28409
1.28287
1.28166
1.28046
1.27928
1.27811
1.27695
1.27581
1.2747
1.2736
1.27253
1.27149
1.27048
1.26949
1.26854
1.26762
1.26673
1.26588
1.26506
1.26428
1.26353
1.26282
1.26216
1.26154
1.26096
1.26044
1.25997
1.25956
1.25923
1.25899
1.25885
1.25883
1.25894
1.25922
1.25969
1.26038
1.26131
1.26251
1.26399
1.26577
1.26784
1.27018
1.27276
1.27554
1.27846
1.28145
1.28447
1.28746
1.29038
1.29321
1.29592
1.2985
1.30092
1.30317
1.30521
1.30701
1.30854
1.30979
1.31074
1.31141
1.3118
1.31195
1.31189
1.31166
1.31129
1.31081
1.31026
1.30965
1.309
1.30832
1.30762
1.3069
1.30617
1.30544
1.30469
1.30395
1.3032
1.30244
1.30169
1.30093
1.30017
1.29942
1.29866
1.29791
1.29715
1.2964
1.29565
1.2949
1.29415
1.2934
1.29265
1.29191
1.29117
1.29043
1.2897
1.28897
1.28825
1.28754
1.28685
1.28617
1.28551
1.28488
1.28426
1.28368
1.28312
1.28259
1.2821
1.28164
1.28121
1.28081
1.28044
1.28011
1.27981
1.27954
1.27929
1.27908
1.27888
1.27872
1.27857
1.27844
1.27833
1.27823
1.27815
1.27807
1.27801
1.27795
1.2779
1.27785
1.27781
1.27777
1.27774
1.27771
1.27769
1.27767
1.27766
1.27766
1.27767
1.27768
1.2777
1.27774
1.27777
1.27782
1.27787
1.27793
1.27799
1.27806
1.27813
1.27821
1.27828
1.27836
1.27844
1.27852
1.2786
1.27868
1.27875
1.27883
1.2789
1.27897
1.27904
1.2791
1.27917
1.27923
1.2793
1.27937
1.27945
1.27953
1.27962
1.27972
1.27984
1.27998
1.28013
1.2803
1.2805
1.28072
1.28096
1.28124
1.28154
1.28187
1.28224
1.28263
1.28305
1.28351
1.28399
1.2845
1.28503
1.2856
1.28618
1.28679
1.28742
1.28806
1.28872
1.2894
1.29008
1.29078
1.29148
1.29219
1.29291
1.29363
1.29435
1.29507
1.29579
1.29651
1.29724
1.29795
1.29867
1.29938
1.30009
1.30079
1.30149
1.30219
1.30287
1.30355
1.30423
1.30489
1.30555
1.30619
1.30683
1.30745
1.30805
1.30864
1.3092
1.30974
1.31024
1.31069
1.31108
1.31138
1.31157
1.31162
1.31149
1.31115
1.31056
1.3097
1.30854
1.30707
1.3053
1.30324
1.3009
1.29832
1.29553
1.29257
1.2895
1.28686
1.28413
1.28139
1.2787
1.27609
1.27363
1.27137
1.26935
1.26759
1.26611
1.26491
1.26397
1.26329
1.26283
1.26257
1.26247
1.26253
1.2627
1.26297
1.26332
1.26373
1.2642
1.26472
1.26528
1.26586
1.26648
1.26713
1.26781
1.2685
1.26923
1.26998
1.27075
1.27155
1.27237
1.27322
1.27409
1.27499
1.27591
1.27685
1.27781
1.2788
1.2798
1.28082
1.28186
1.28291
1.28396
1.28503
1.2861
1.28718
1.28827
1.28937
1.29049
1.29164
1.29283
1.29405
1.29533
1.29665
1.29801
1.29941
1.30085
1.30231
1.30379
1.30532
1.30691
1.30865
1.31064
1.3131
1.31633
1.32079
1.32712
1.33613
1.34855
1.3647
1.38399
1.40473
1.4247
1.44196
1.45542
1.46477
1.47007
1.47162
1.47
1.46602
1.46049
1.45409
1.44733
1.4406
1.43419
1.42818
1.42259
1.41739
1.4126
1.40827
1.40443
1.40108
1.39817
1.39564
1.39345
1.39156
1.38993
1.38852
1.3873
1.38624
1.38531
1.3845
1.38381
1.38326
1.38288
1.3827
1.38277
1.38316
1.38392
1.38514
1.3869
1.38925
1.39226
1.39594
1.40024
1.40507
1.41031
1.41577
1.42128
1.42664
1.43165
1.43604
1.43951
1.44167
1.44209
1.44038
1.43634
1.43
1.42173
1.41211
1.40178
1.39127
1.38095
1.37101
1.36158
1.35275
1.3446
1.3372
1.33057
1.32471
1.31958
1.31511
1.31121
1.30782
1.30485
1.30223
1.29991
1.29784
1.29597
1.29426
1.29268
1.29121
1.28982
1.28848
1.28719
1.28594
1.28471
1.2835
1.28231
1.28113
1.27996
1.2788
1.27766
1.27654
1.27543
1.27434
1.27328
1.27224
1.27123
1.27025
1.2693
1.26837
1.26748
1.26663
1.26581
1.26503
1.26428
1.26358
1.26291
1.2623
1.26173
1.26123
1.26079
1.26042
1.26014
1.25996
1.2599
1.25998
1.26021
1.26064
1.26127
1.26214
1.26325
1.26464
1.26629
1.2682
1.27034
1.27267
1.27513
1.27768
1.28025
1.2828
1.28528
1.28768
1.29
1.29225
1.29444
1.2966
1.29871
1.30077
1.30275
1.30461
1.3063
1.30778
1.30901
1.30998
1.31066
1.31108
1.31125
1.3112
1.31097
1.3106
1.31011
1.30955
1.30893
1.30827
1.30758
1.30687
1.30616
1.30543
1.3047
1.30397
1.30323
1.30249
1.30175
1.30101
1.30026
1.29952
1.29877
1.29802
1.29728
1.29653
1.29578
1.29504
1.29429
1.29354
1.2928
1.29205
1.29131
1.29058
1.28985
1.28912
1.28841
1.2877
1.28701
1.28633
1.28568
1.28504
1.28443
1.28385
1.28329
1.28277
1.28227
1.28181
1.28138
1.28098
1.28061
1.28027
1.27996
1.27968
1.27943
1.2792
1.27899
1.27881
1.27864
1.2785
1.27837
1.27826
1.27816
1.27808
1.278
1.27793
1.27787
1.27782
1.27778
1.27774
1.27771
1.27768
1.27766
1.27765
1.27765
1.27765
1.27766
1.27768
1.27771
1.27774
1.27779
1.27783
1.27789
1.27795
1.27801
1.27808
1.27815
1.27823
1.2783
1.27838
1.27846
1.27853
1.27861
1.27869
1.27876
1.27884
1.27891
1.27898
1.27905
1.27912
1.27919
1.27926
1.27934
1.27941
1.2795
1.27959
1.27969
1.2798
1.27993
1.28007
1.28023
1.28041
1.28062
1.28084
1.2811
1.28137
1.28168
1.28202
1.28238
1.28277
1.2832
1.28365
1.28414
1.28465
1.28518
1.28575
1.28633
1.28694
1.28757
1.28821
1.28887
1.28954
1.29023
1.29092
1.29163
1.29234
1.29305
1.29377
1.29449
1.29521
1.29593
1.29665
1.29737
1.29808
1.2988
1.2995
1.3002
1.3009
1.30159
1.30227
1.30294
1.30361
1.30426
1.30491
1.30555
1.30618
1.3068
1.30741
1.30801
1.30859
1.30914
1.30967
1.31015
1.31057
1.3109
1.31113
1.31121
1.31111
1.31081
1.31027
1.30947
1.3084
1.30707
1.30548
1.30367
1.30165
1.29947
1.29715
1.29472
1.29218
1.28955
1.28749
1.28523
1.28291
1.28057
1.27822
1.27593
1.27374
1.27171
1.26988
1.26828
1.26694
1.26585
1.26501
1.2644
1.26401
1.2638
1.26375
1.26384
1.26404
1.26434
1.26472
1.26516
1.26565
1.26619
1.26677
1.26738
1.26802
1.26869
1.26939
1.27011
1.27085
1.27162
1.27241
1.27323
1.27407
1.27493
1.27582
1.27673
1.27766
1.27862
1.2796
1.28059
1.2816
1.28263
1.28367
1.28473
1.2858
1.28688
1.28798
1.2891
1.29025
1.29143
1.29266
1.29394
1.29526
1.29664
1.29807
1.29952
1.30099
1.30247
1.30393
1.3054
1.30688
1.30843
1.31013
1.31214
1.31469
1.31813
1.32296
1.32986
1.33955
1.35257
1.36885
1.38736
1.40633
1.42395
1.43899
1.45091
1.45943
1.46445
1.46611
1.46498
1.46175
1.45708
1.45148
1.44544
1.43931
1.43334
1.42761
1.42217
1.41707
1.41238
1.40814
1.40438
1.40107
1.39818
1.39566
1.39348
1.39159
1.38997
1.38855
1.38732
1.38625
1.38532
1.38453
1.38388
1.38338
1.38308
1.383
1.3832
1.38374
1.38467
1.38608
1.388
1.39049
1.39355
1.39715
1.40122
1.40563
1.41028
1.41503
1.41978
1.42445
1.42892
1.43303
1.43649
1.43892
1.43985
1.43881
1.43547
1.42979
1.42209
1.4129
1.40287
1.39255
1.38229
1.37233
1.36282
1.35388
1.34561
1.3381
1.33139
1.32547
1.32031
1.31581
1.31191
1.30851
1.30553
1.30292
1.3006
1.29853
1.29667
1.29496
1.2934
1.29193
1.29055
1.28923
1.28796
1.28673
1.28552
1.28433
1.28315
1.28199
1.28084
1.2797
1.27858
1.27747
1.27637
1.2753
1.27424
1.27321
1.2722
1.27122
1.27027
1.26935
1.26846
1.26761
1.26679
1.266
1.26526
1.26456
1.2639
1.2633
1.26276
1.26228
1.26187
1.26156
1.26134
1.26125
1.26129
1.26149
1.26188
1.26248
1.2633
1.26437
1.26569
1.26725
1.26906
1.27106
1.27321
1.27545
1.27773
1.27997
1.28213
1.28418
1.28611
1.28793
1.28967
1.29137
1.29307
1.29481
1.29659
1.29843
1.30028
1.30213
1.3039
1.30555
1.30702
1.30826
1.30923
1.30994
1.31038
1.31056
1.31052
1.3103
1.30993
1.30944
1.30887
1.30825
1.30758
1.30689
1.30619
1.30548
1.30476
1.30403
1.30331
1.30258
1.30185
1.30112
1.30039
1.29965
1.29892
1.29818
1.29744
1.29669
1.29595
1.29521
1.29446
1.29372
1.29298
1.29223
1.2915
1.29076
1.29003
1.28931
1.28859
1.28789
1.2872
1.28653
1.28588
1.28525
1.28464
1.28406
1.2835
1.28298
1.28249
1.28202
1.28159
1.28118
1.28081
1.28046
1.28014
1.27985
1.27958
1.27934
1.27912
1.27892
1.27874
1.27858
1.27843
1.2783
1.27819
1.27809
1.278
1.27792
1.27785
1.2778
1.27775
1.27771
1.27768
1.27766
1.27764
1.27763
1.27764
1.27764
1.27766
1.27769
1.27772
1.27776
1.2778
1.27785
1.27791
1.27797
1.27803
1.2781
1.27817
1.27825
1.27832
1.2784
1.27847
1.27855
1.27863
1.2787
1.27878
1.27885
1.27892
1.27899
1.27907
1.27914
1.27921
1.27929
1.27937
1.27946
1.27956
1.27966
1.27977
1.2799
1.28004
1.28019
1.28036
1.28055
1.28076
1.281
1.28126
1.28154
1.28185
1.28219
1.28256
1.28296
1.28339
1.28384
1.28433
1.28484
1.28537
1.28594
1.28652
1.28713
1.28775
1.28839
1.28905
1.28972
1.29041
1.2911
1.2918
1.29251
1.29323
1.29395
1.29467
1.29539
1.29611
1.29683
1.29754
1.29825
1.29896
1.29966
1.30036
1.30104
1.30172
1.30239
1.30305
1.3037
1.30434
1.30498
1.3056
1.30622
1.30683
1.30743
1.30801
1.30858
1.30912
1.30962
1.31007
1.31043
1.31068
1.31079
1.31073
1.31045
1.30994
1.30918
1.30815
1.30689
1.30539
1.30372
1.3019
1.29998
1.298
1.29597
1.29391
1.29182
1.28968
1.28826
1.28649
1.28463
1.28268
1.28065
1.27858
1.27652
1.27453
1.27266
1.27096
1.26947
1.26822
1.2672
1.26642
1.26586
1.26551
1.26533
1.26532
1.26543
1.26566
1.26598
1.26638
1.26684
1.26735
1.26791
1.2685
1.26913
1.26979
1.27048
1.27119
1.27193
1.27269
1.27347
1.27428
1.27511
1.27596
1.27684
1.27774
1.27867
1.27961
1.28058
1.28156
1.28257
1.28359
1.28463
1.28569
1.28677
1.28787
1.289
1.29016
1.29138
1.29264
1.29396
1.29534
1.29678
1.29827
1.29977
1.30129
1.30279
1.30425
1.30568
1.30708
1.30849
1.30997
1.31165
1.31368
1.31634
1.32003
1.32527
1.33272
1.34303
1.35653
1.37278
1.39046
1.40784
1.42344
1.43656
1.44694
1.45443
1.45893
1.46063
1.45995
1.45737
1.45341
1.44853
1.44316
1.43764
1.43213
1.42674
1.42155
1.41667
1.41217
1.40808
1.40443
1.40118
1.39835
1.39589
1.39377
1.39193
1.39034
1.38894
1.3877
1.3866
1.38564
1.3848
1.3841
1.38356
1.38323
1.38316
1.38341
1.38404
1.38512
1.38671
1.38882
1.39147
1.3946
1.39814
1.40197
1.40596
1.41
1.41404
1.41804
1.42202
1.42595
1.42974
1.43317
1.43586
1.43729
1.43691
1.4343
1.42934
1.42226
1.41359
1.40395
1.39387
1.38374
1.37378
1.3642
1.35514
1.34674
1.33912
1.33233
1.32636
1.32117
1.31666
1.31275
1.30934
1.30637
1.30376
1.30145
1.29939
1.29753
1.29584
1.29428
1.29283
1.29146
1.29016
1.28891
1.28769
1.2865
1.28534
1.28418
1.28304
1.28191
1.2808
1.27969
1.2786
1.27752
1.27645
1.27541
1.27439
1.27339
1.27241
1.27146
1.27055
1.26966
1.26881
1.26799
1.26721
1.26648
1.26578
1.26515
1.26456
1.26405
1.26361
1.26326
1.26301
1.26288
1.2629
1.26307
1.26343
1.26399
1.26479
1.26582
1.26709
1.26861
1.27034
1.27224
1.27427
1.27636
1.27844
1.28045
1.28232
1.28404
1.28559
1.287
1.28828
1.28951
1.29072
1.29197
1.29331
1.29476
1.29632
1.298
1.29974
1.3015
1.30323
1.30485
1.30631
1.30756
1.30855
1.30927
1.30973
1.30993
1.30991
1.3097
1.30933
1.30885
1.30828
1.30765
1.30699
1.3063
1.3056
1.30489
1.30417
1.30345
1.30274
1.30201
1.30129
1.30057
1.29984
1.29911
1.29837
1.29764
1.2969
1.29616
1.29541
1.29467
1.29393
1.29319
1.29245
1.29171
1.29098
1.29025
1.28953
1.28882
1.28812
1.28743
1.28676
1.28611
1.28549
1.28488
1.2843
1.28375
1.28323
1.28273
1.28227
1.28183
1.28142
1.28104
1.28069
1.28036
1.28005
1.27977
1.27951
1.27927
1.27905
1.27885
1.27867
1.27851
1.27836
1.27823
1.27811
1.27801
1.27792
1.27784
1.27778
1.27773
1.27769
1.27766
1.27763
1.27762
1.27762
1.27763
1.27764
1.27766
1.27769
1.27773
1.27777
1.27782
1.27787
1.27793
1.27799
1.27806
1.27813
1.2782
1.27827
1.27835
1.27842
1.2785
1.27857
1.27865
1.27872
1.27879
1.27886
1.27894
1.27901
1.27908
1.27916
1.27924
1.27933
1.27942
1.27952
1.27962
1.27974
1.27987
1.28001
1.28016
1.28033
1.28052
1.28072
1.28094
1.28119
1.28145
1.28175
1.28207
1.28241
1.28278
1.28319
1.28361
1.28407
1.28456
1.28507
1.28561
1.28617
1.28675
1.28735
1.28798
1.28862
1.28927
1.28994
1.29062
1.29132
1.29202
1.29273
1.29344
1.29416
1.29488
1.2956
1.29632
1.29704
1.29775
1.29846
1.29917
1.29987
1.30056
1.30124
1.30191
1.30257
1.30322
1.30386
1.30449
1.30511
1.30572
1.30633
1.30693
1.30752
1.3081
1.30865
1.30917
1.30963
1.31001
1.31028
1.31041
1.31037
1.31011
1.30962
1.30888
1.30788
1.30665
1.30521
1.3036
1.30189
1.30013
1.29836
1.29661
1.29491
1.29325
1.2916
1.28995
1.28921
1.28792
1.28652
1.28498
1.28331
1.28152
1.27965
1.27776
1.2759
1.27414
1.27253
1.27111
1.26991
1.26893
1.26818
1.26765
1.26732
1.26717
1.26716
1.26729
1.26753
1.26787
1.26828
1.26875
1.26928
1.26985
1.27045
1.2711
1.27177
1.27246
1.27319
1.27394
1.27471
1.27551
1.27633
1.27717
1.27803
1.27892
1.27983
1.28076
1.28172
1.28269
1.28369
1.28471
1.28574
1.28681
1.2879
1.28903
1.29021
1.29143
1.29273
1.29409
1.29552
1.29701
1.29855
1.30011
1.30167
1.3032
1.30467
1.30608
1.30743
1.30874
1.31006
1.31148
1.31313
1.31521
1.31801
1.32196
1.3276
1.33558
1.34645
1.36027
1.37632
1.3931
1.40894
1.42276
1.43423
1.44331
1.44987
1.45385
1.45541
1.45494
1.45284
1.44948
1.44524
1.44049
1.4355
1.43048
1.42555
1.42079
1.41628
1.41204
1.40812
1.40454
1.40134
1.39851
1.39602
1.39382
1.39189
1.39019
1.38869
1.38738
1.38623
1.38523
1.38439
1.38372
1.38325
1.38303
1.3831
1.38354
1.38439
1.38571
1.38754
1.38987
1.39268
1.39586
1.39928
1.4028
1.40629
1.40968
1.41297
1.4162
1.41948
1.42287
1.42633
1.4297
1.4326
1.43448
1.43472
1.43284
1.42862
1.42224
1.41419
1.40505
1.39532
1.38538
1.37547
1.36582
1.35664
1.3481
1.34036
1.33347
1.32743
1.3222
1.31766
1.31374
1.31033
1.30736
1.30475
1.30244
1.30039
1.29853
1.29685
1.29531
1.29387
1.29252
1.29124
1.29001
1.28881
1.28765
1.2865
1.28537
1.28426
1.28315
1.28206
1.28097
1.2799
1.27884
1.27779
1.27676
1.27575
1.27476
1.27379
1.27285
1.27194
1.27106
1.27022
1.26941
1.26864
1.26792
1.26725
1.26664
1.26609
1.26562
1.26524
1.26496
1.26481
1.26479
1.26494
1.26528
1.26582
1.26659
1.2676
1.26885
1.27033
1.27201
1.27385
1.2758
1.27778
1.27972
1.28156
1.28323
1.28471
1.28598
1.28706
1.28799
1.28881
1.28959
1.29039
1.29125
1.29223
1.29335
1.29462
1.29606
1.29762
1.29928
1.30098
1.30266
1.30426
1.3057
1.30695
1.30795
1.30869
1.30917
1.30939
1.30939
1.30919
1.30884
1.30836
1.3078
1.30718
1.30651
1.30582
1.30512
1.30441
1.30369
1.30297
1.30225
1.30153
1.30081
1.30008
1.29935
1.29862
1.29788
1.29714
1.2964
1.29566
1.29491
1.29417
1.29343
1.29269
1.29195
1.29122
1.29049
1.28978
1.28907
1.28837
1.28769
1.28703
1.28638
1.28576
1.28515
1.28458
1.28403
1.2835
1.28301
1.28254
1.2821
1.28169
1.2813
1.28094
1.2806
1.28028
1.27998
1.2797
1.27945
1.27921
1.27899
1.27879
1.2786
1.27843
1.27828
1.27815
1.27803
1.27793
1.27784
1.27777
1.27771
1.27767
1.27764
1.27762
1.27761
1.27761
1.27762
1.27764
1.27766
1.2777
1.27774
1.27779
1.27784
1.2779
1.27796
1.27802
1.27809
1.27816
1.27823
1.2783
1.27838
1.27845
1.27852
1.27859
1.27867
1.27874
1.27881
1.27888
1.27895
1.27903
1.27911
1.27919
1.27928
1.27937
1.27947
1.27958
1.2797
1.27983
1.27998
1.28013
1.2803
1.28049
1.28069
1.28091
1.28115
1.2814
1.28168
1.28199
1.28231
1.28267
1.28304
1.28345
1.28388
1.28434
1.28483
1.28534
1.28588
1.28644
1.28702
1.28762
1.28824
1.28887
1.28953
1.29019
1.29087
1.29156
1.29226
1.29297
1.29368
1.2944
1.29513
1.29585
1.29657
1.29729
1.29801
1.29872
1.29943
1.30013
1.30082
1.3015
1.30216
1.30282
1.30346
1.3041
1.30472
1.30534
1.30595
1.30656
1.30715
1.30773
1.30829
1.30882
1.30929
1.30968
1.30997
1.31011
1.31008
1.30984
1.30936
1.30863
1.30765
1.30644
1.30503
1.30348
1.30184
1.30017
1.29853
1.29696
1.29549
1.29412
1.29284
1.29162
1.29043
1.29037
1.28952
1.28855
1.28743
1.28614
1.28468
1.28306
1.28133
1.27955
1.27778
1.27608
1.27452
1.27313
1.27195
1.27099
1.27025
1.26973
1.2694
1.26925
1.26925
1.26938
1.26963
1.26996
1.27038
1.27085
1.27139
1.27196
1.27257
1.27322
1.2739
1.27461
1.27534
1.27609
1.27687
1.27768
1.27851
1.27936
1.28023
1.28113
1.28205
1.28299
1.28396
1.28494
1.28596
1.287
1.28808
1.2892
1.29037
1.2916
1.29291
1.2943
1.29577
1.29731
1.29891
1.30052
1.30213
1.3037
1.30519
1.30659
1.30791
1.30915
1.31035
1.31159
1.31296
1.31461
1.31675
1.3197
1.32391
1.32993
1.33838
1.3497
1.36375
1.37955
1.39548
1.40997
1.42223
1.43221
1.44
1.4456
1.44901
1.45038
1.44999
1.44817
1.44523
1.44153
1.43738
1.433
1.42855
1.42413
1.41982
1.41568
1.41175
1.40806
1.40466
1.40158
1.39882
1.39635
1.39417
1.39223
1.39052
1.389
1.38765
1.38644
1.38537
1.38446
1.38374
1.38324
1.38302
1.38315
1.38369
1.3847
1.38622
1.38827
1.3908
1.39373
1.39692
1.4002
1.4034
1.4064
1.40915
1.41173
1.41425
1.41687
1.41973
1.42286
1.42612
1.42916
1.43141
1.43221
1.43099
1.42751
1.42189
1.41455
1.40602
1.39674
1.38706
1.37725
1.36756
1.35825
1.34958
1.34171
1.33473
1.32863
1.32336
1.3188
1.31487
1.31146
1.30848
1.30587
1.30356
1.30151
1.29966
1.29799
1.29645
1.29503
1.2937
1.29243
1.29122
1.29005
1.28891
1.28779
1.28668
1.28559
1.28451
1.28344
1.28238
1.28132
1.28028
1.27925
1.27824
1.27724
1.27627
1.27532
1.27439
1.27349
1.27263
1.2718
1.27101
1.27026
1.26957
1.26893
1.26836
1.26786
1.26746
1.26716
1.26698
1.26695
1.26708
1.2674
1.26793
1.26869
1.26968
1.27091
1.27237
1.27403
1.27583
1.27772
1.27963
1.28147
1.28319
1.28472
1.28602
1.28709
1.28794
1.28861
1.28913
1.28958
1.29
1.29045
1.29098
1.29164
1.29245
1.29343
1.29459
1.29591
1.29739
1.29897
1.3006
1.30223
1.3038
1.30523
1.30647
1.30749
1.30825
1.30875
1.309
1.30902
1.30884
1.3085
1.30803
1.30747
1.30685
1.30618
1.30548
1.30477
1.30405
1.30332
1.3026
1.30187
1.30113
1.3004
1.29966
1.29893
1.29818
1.29744
1.29669
1.29595
1.2952
1.29445
1.29371
1.29297
1.29223
1.2915
1.29077
1.29006
1.28935
1.28866
1.28798
1.28732
1.28668
1.28606
1.28546
1.28489
1.28434
1.28382
1.28332
1.28285
1.2824
1.28198
1.28159
1.28121
1.28086
1.28053
1.28022
1.27992
1.27965
1.27939
1.27915
1.27892
1.27872
1.27853
1.27836
1.27821
1.27807
1.27796
1.27786
1.27778
1.27771
1.27766
1.27763
1.2776
1.2776
1.2776
1.27761
1.27764
1.27767
1.27771
1.27775
1.27781
1.27786
1.27792
1.27799
1.27806
1.27813
1.2782
1.27827
1.27834
1.27841
1.27848
1.27855
1.27862
1.27869
1.27876
1.27883
1.2789
1.27898
1.27905
1.27913
1.27922
1.27932
1.27942
1.27954
1.27966
1.2798
1.27994
1.2801
1.28028
1.28047
1.28067
1.28089
1.28113
1.28138
1.28166
1.28195
1.28226
1.2826
1.28296
1.28335
1.28376
1.2842
1.28466
1.28514
1.28565
1.28619
1.28675
1.28732
1.28792
1.28854
1.28917
1.28982
1.29048
1.29116
1.29185
1.29255
1.29326
1.29397
1.29469
1.29542
1.29615
1.29687
1.2976
1.29833
1.29905
1.29976
1.30046
1.30116
1.30184
1.30251
1.30317
1.30382
1.30446
1.30509
1.30571
1.30633
1.30693
1.30752
1.30809
1.30862
1.3091
1.3095
1.30979
1.30993
1.3099
1.30966
1.30918
1.30846
1.30749
1.3063
1.30493
1.30342
1.30184
1.30025
1.29871
1.29725
1.29593
1.29475
1.2937
1.29278
1.29195
1.29116
1.29176
1.29128
1.2907
1.28997
1.28906
1.28795
1.28662
1.28512
1.28349
1.28177
1.28005
1.27838
1.27683
1.27545
1.27427
1.2733
1.27255
1.27202
1.27168
1.27151
1.2715
1.27163
1.27186
1.27219
1.2726
1.27307
1.2736
1.27417
1.27478
1.27543
1.27611
1.27682
1.27756
1.27832
1.2791
1.27991
1.28075
1.28161
1.28249
1.28339
1.28432
1.28527
1.28625
1.28727
1.28832
1.28942
1.29058
1.2918
1.29312
1.29452
1.29602
1.2976
1.29924
1.30091
1.30257
1.30418
1.3057
1.30711
1.30841
1.30961
1.31073
1.31184
1.313
1.31433
1.31599
1.3182
1.3213
1.32574
1.3321
1.34097
1.35264
1.36683
1.38235
1.39746
1.41072
1.42159
1.4302
1.43679
1.44146
1.44426
1.44534
1.44497
1.44339
1.44086
1.43768
1.43409
1.43028
1.42642
1.42257
1.41879
1.4151
1.41153
1.4081
1.40485
1.40182
1.399
1.39643
1.3941
1.39201
1.39015
1.38849
1.38702
1.38573
1.38464
1.38375
1.3831
1.38274
1.3827
1.38305
1.38385
1.38514
1.38694
1.38923
1.39195
1.39495
1.39809
1.40115
1.40397
1.40645
1.40859
1.41049
1.41233
1.41433
1.41666
1.41944
1.42253
1.42561
1.42812
1.42937
1.42874
1.42597
1.42114
1.4146
1.40679
1.39808
1.38876
1.3791
1.3694
1.35999
1.35118
1.34318
1.3361
1.32993
1.32461
1.32003
1.31608
1.31266
1.30968
1.30706
1.30475
1.30269
1.30085
1.29918
1.29765
1.29624
1.29492
1.29367
1.29248
1.29133
1.29021
1.28911
1.28803
1.28697
1.28591
1.28487
1.28383
1.2828
1.28178
1.28077
1.27978
1.27881
1.27785
1.27692
1.27601
1.27513
1.27429
1.27349
1.27272