# vtk DataFile Version 2.0
LBE two cylinders
ASCII
DATASET STRUCTURED_POINTS
DIMENSIONS 400 100 1
ASPECT_RATIO 1 1 1
ORIGIN 0 0 0
POINT_DATA 40000
SCALARS rho double 1
LOOKUP_TABLE default
1.08788
1.0879
1.08792
1.08794
1.08796
1.08798
1.088
1.08801
1.08803
1.08804
1.08805
1.08806
1.08806
1.08807
1.08807
1.08808
1.08808
1.08808
1.08809
1.08809
1.0881
1.0881
1.08811
1.08812
1.08813
1.08814
1.08816
1.08818
1.0882
1.08823
1.08827
1.0883
1.08835
1.0884
1.08845
1.08851
1.08858
1.08866
1.08874
1.08883
1.08893
1.08904
1.08916
1.08928
1.08942
1.08956
1.08971
1.08986
1.09003
1.09021
1.09039
1.09058
1.09077
1.09098
1.09119
1.0914
1.09163
1.09186
1.09209
1.09233
1.09258
1.09283
1.0931
1.09336
1.09363
1.09391
1.0942
1.09449
1.09479
1.09509
1.0954
1.09572
1.09605
1.09638
1.09672
1.09706
1.09741
1.09777
1.09813
1.09849
1.09885
1.09922
1.09959
1.09996
1.10032
1.10068
1.10103
1.10137
1.1017
1.10201
1.10231
1.10259
1.10284
1.10307
1.10327
1.10345
1.10359
1.10371
1.10379
1.10385
1.10388
1.10387
1.10385
1.10379
1.10372
1.10362
1.10351
1.10339
1.10324
1.10309
1.10293
1.10277
1.10259
1.10242
1.10224
1.10205
1.10187
1.10169
1.1015
1.10132
1.10114
1.10095
1.10077
1.10059
1.1004
1.10022
1.10004
1.09985
1.09967
1.09949
1.0993
1.09912
1.09894
1.09875
1.09857
1.09839
1.09821
1.09803
1.09785
1.09768
1.0975
1.09733
1.09716
1.097
1.09684
1.09669
1.09654
1.0964
1.09626
1.09613
1.096
1.09588
1.09577
1.09567
1.09557
1.09548
1.09539
1.09532
1.09525
1.09518
1.09512
1.09507
1.09503
1.09499
1.09495
1.09492
1.0949
1.09488
1.09486
1.09485
1.09483
1.09483
1.09482
1.09481
1.09481
1.09481
1.09481
1.0948
1.0948
1.0948
1.0948
1.0948
1.0948
1.0948
1.09479
1.09479
1.09478
1.09477
1.09475
1.09474
1.09472
1.09469
1.09466
1.09462
1.09458
1.09452
1.09445
1.09436
1.09426
1.09414
1.09399
1.09382
1.09361
1.09336
1.09308
1.09275
1.09238
1.09196
1.09148
1.09095
1.09037
1.08974
1.08907
1.08834
1.08758
1.08678
1.08596
1.08511
1.08426
1.0834
1.08256
1.08173
1.08093
1.08017
1.07945
1.07879
1.0782
1.07767
1.07721
1.07682
1.07651
1.07626
1.07608
1.07597
1.0759
1.07588
1.07589
1.07594
1.076
1.07607
1.07614
1.07621
1.07627
1.07633
1.07637
1.07639
1.07641
1.0764
1.07638
1.07635
1.07629
1.07623
1.07615
1.07606
1.07597
1.07586
1.07574
1.07562
1.0755
1.07538
1.07525
1.07513
1.07502
1.07491
1.07481
1.07472
1.07464
1.07457
1.07452
1.07447
1.07444
1.07443
1.07442
1.07442
1.07444
1.07447
1.0745
1.07454
1.07459
1.07465
1.07472
1.07479
1.07487
1.07495
1.07504
1.07514
1.07525
1.07536
1.07548
1.0756
1.07574
1.07588
1.07602
1.07618
1.07633
1.0765
1.07667
1.07684
1.07701
1.07719
1.07737
1.07754
1.07772
1.0779
1.07807
1.07824
1.0784
1.07856
1.07872
1.07886
1.079
1.07913
1.07925
1.07935
1.07945
1.07954
1.07961
1.07967
1.07971
1.07975
1.07976
1.07977
1.07976
1.07973
1.07969
1.07964
1.07957
1.0795
1.07941
1.07931
1.0792
1.07908
1.07895
1.07881
1.07866
1.0785
1.07833
1.07815
1.07796
1.07775
1.07752
1.07728
1.07703
1.07675
1.07645
1.07612
1.07577
1.07539
1.07498
1.07454
1.07407
1.07357
1.07304
1.07247
1.07188
1.07126
1.07061
1.06994
1.06924
1.06853
1.0678
1.06707
1.06632
1.06557
1.06482
1.06408
1.06335
1.06263
1.06192
1.06124
1.06058
1.05994
1.05934
1.05876
1.05822
1.05772
1.05725
1.05683
1.05644
1.05609
1.05578
1.05551
1.05529
1.05511
1.05496
1.05486
1.0548
1.05478
1.0548
1.05486
1.05496
1.0551
1.05527
1.05549
1.05574
1.05603
1.05635
1.05671
1.05711
1.05753
1.08788
1.0879
1.08792
1.08794
1.08796
1.08798
1.08799
1.08801
1.08802
1.08803
1.08804
1.08805
1.08806
1.08807
1.08807
1.08807
1.08808
1.08808
1.08809
1.08809
1.0881
1.0881
1.08811
1.08812
1.08813
1.08815
1.08816
1.08819
1.08821
1.08824
1.08827
1.08831
1.08836
1.08841
1.08846
1.08852
1.08859
1.08867
1.08875
1.08885
1.08895
1.08906
1.08917
1.0893
1.08943
1.08957
1.08972
1.08988
1.09005
1.09022
1.0904
1.09059
1.09079
1.09099
1.0912
1.09142
1.09164
1.09187
1.09211
1.09235
1.0926
1.09285
1.09311
1.09337
1.09364
1.09392
1.09421
1.0945
1.09479
1.09509
1.0954
1.09572
1.09604
1.09637
1.0967
1.09704
1.09739
1.09774
1.09809
1.09845
1.09881
1.09917
1.09953
1.09989
1.10025
1.1006
1.10095
1.10128
1.1016
1.10191
1.1022
1.10247
1.10272
1.10295
1.10315
1.10332
1.10347
1.10358
1.10367
1.10373
1.10376
1.10376
1.10374
1.10369
1.10362
1.10353
1.10343
1.1033
1.10317
1.10302
1.10287
1.10271
1.10254
1.10237
1.10219
1.10201
1.10183
1.10165
1.10147
1.10129
1.1011
1.10092
1.10074
1.10056
1.10038
1.1002
1.10001
1.09983
1.09965
1.09947
1.09928
1.0991
1.09892
1.09874
1.09856
1.09838
1.0982
1.09802
1.09784
1.09767
1.0975
1.09733
1.09717
1.097
1.09685
1.09669
1.09655
1.0964
1.09627
1.09614
1.09601
1.09589
1.09578
1.09568
1.09558
1.09549
1.0954
1.09533
1.09526
1.09519
1.09514
1.09508
1.09504
1.095
1.09496
1.09493
1.09491
1.09489
1.09487
1.09485
1.09484
1.09483
1.09482
1.09482
1.09481
1.09481
1.09481
1.0948
1.0948
1.0948
1.0948
1.0948
1.0948
1.09479
1.09479
1.09478
1.09477
1.09476
1.09475
1.09473
1.09471
1.09469
1.09465
1.09461
1.09457
1.09451
1.09444
1.09435
1.09425
1.09412
1.09397
1.09379
1.09358
1.09333
1.09304
1.09271
1.09233
1.09191
1.09143
1.0909
1.09032
1.08969
1.08901
1.08828
1.08752
1.08673
1.08591
1.08507
1.08422
1.08337
1.08253
1.08171
1.08092
1.08016
1.07946
1.07881
1.07822
1.0777
1.07724
1.07686
1.07655
1.07631
1.07613
1.07602
1.07595
1.07592
1.07594
1.07597
1.07603
1.07609
1.07616
1.07623
1.07629
1.07634
1.07637
1.0764
1.0764
1.0764
1.07638
1.07634
1.07629
1.07622
1.07615
1.07606
1.07596
1.07585
1.07574
1.07562
1.07549
1.07537
1.07525
1.07513
1.07502
1.07491
1.07481
1.07472
1.07464
1.07457
1.07452
1.07448
1.07445
1.07443
1.07442
1.07443
1.07444
1.07447
1.0745
1.07454
1.07459
1.07465
1.07472
1.07479
1.07487
1.07495
1.07505
1.07514
1.07525
1.07536
1.07548
1.07561
1.07574
1.07588
1.07603
1.07618
1.07634
1.07651
1.07667
1.07684
1.07702
1.07719
1.07737
1.07755
1.07772
1.0779
1.07807
1.07824
1.0784
1.07856
1.07871
1.07885
1.07899
1.07911
1.07923
1.07933
1.07943
1.07951
1.07957
1.07963
1.07967
1.0797
1.07971
1.0797
1.07969
1.07966
1.07961
1.07955
1.07948
1.0794
1.0793
1.0792
1.07908
1.07895
1.07881
1.07867
1.07851
1.07834
1.07817
1.07798
1.07777
1.07756
1.07733
1.07709
1.07682
1.07654
1.07624
1.07591
1.07556
1.07518
1.07478
1.07435
1.07389
1.0734
1.07288
1.07233
1.07175
1.07115
1.07052
1.06987
1.0692
1.06851
1.06781
1.06709
1.06637
1.06564
1.06492
1.0642
1.06348
1.06278
1.06209
1.06142
1.06077
1.06014
1.05954
1.05897
1.05844
1.05794
1.05747
1.05704
1.05665
1.0563
1.05598
1.05571
1.05548
1.05529
1.05514
1.05503
1.05496
1.05493
1.05494
1.055
1.05509
1.05522
1.05539
1.05559
1.05584
1.05612
1.05643
1.05678
1.05716
1.05757
1.08787
1.08789
1.08791
1.08793
1.08795
1.08797
1.08798
1.088
1.08801
1.08802
1.08803
1.08804
1.08805
1.08806
1.08806
1.08807
1.08807
1.08808
1.08808
1.08809
1.08809
1.0881
1.08811
1.08812
1.08813
1.08814
1.08816
1.08818
1.08821
1.08824
1.08827
1.08831
1.08836
1.08841
1.08847
1.08853
1.0886
1.08868
1.08876
1.08885
1.08895
1.08906
1.08918
1.0893
1.08944
1.08958
1.08973
1.08989
1.09005
1.09023
1.09041
1.0906
1.09079
1.09099
1.0912
1.09142
1.09164
1.09187
1.0921
1.09235
1.09259
1.09284
1.0931
1.09337
1.09363
1.09391
1.09419
1.09448
1.09477
1.09507
1.09538
1.09569
1.09601
1.09633
1.09666
1.097
1.09734
1.09769
1.09804
1.09839
1.09874
1.0991
1.09946
1.09981
1.10016
1.10051
1.10085
1.10118
1.1015
1.1018
1.10209
1.10236
1.10261
1.10283
1.10303
1.10321
1.10335
1.10347
1.10356
1.10362
1.10365
1.10366
1.10364
1.1036
1.10353
1.10345
1.10335
1.10323
1.1031
1.10296
1.10281
1.10265
1.10249
1.10232
1.10215
1.10197
1.10179
1.10161
1.10143
1.10125
1.10107
1.10089
1.10071
1.10053
1.10035
1.10017
1.09999
1.09981
1.09963
1.09945
1.09926
1.09908
1.0989
1.09872
1.09854
1.09836
1.09819
1.09801
1.09784
1.09766
1.09749
1.09733
1.09716
1.097
1.09685
1.09669
1.09655
1.09641
1.09627
1.09614
1.09602
1.0959
1.09579
1.09568
1.09559
1.0955
1.09541
1.09534
1.09527
1.0952
1.09514
1.09509
1.09505
1.095
1.09497
1.09494
1.09491
1.09489
1.09487
1.09485
1.09484
1.09483
1.09482
1.09481
1.09481
1.09481
1.0948
1.0948
1.0948
1.0948
1.09479
1.09479
1.09479
1.09478
1.09478
1.09477
1.09476
1.09475
1.09474
1.09472
1.0947
1.09467
1.09464
1.0946
1.09455
1.0945
1.09442
1.09434
1.09423
1.0941
1.09395
1.09377
1.09356
1.09331
1.09302
1.09268
1.0923
1.09187
1.09139
1.09085
1.09027
1.08964
1.08896
1.08823
1.08747
1.08668
1.08586
1.08502
1.08417
1.08333
1.0825
1.08168
1.0809
1.08015
1.07946
1.07881
1.07823
1.07772
1.07727
1.0769
1.07659
1.07636
1.07618
1.07606
1.076
1.07597
1.07598
1.07601
1.07606
1.07612
1.07619
1.07625
1.0763
1.07635
1.07638
1.0764
1.07641
1.0764
1.07637
1.07634
1.07628
1.07622
1.07614
1.07605
1.07595
1.07584
1.07573
1.07561
1.07549
1.07537
1.07524
1.07513
1.07501
1.07491
1.07481
1.07472
1.07464
1.07457
1.07452
1.07448
1.07445
1.07443
1.07442
1.07442
1.07444
1.07446
1.0745
1.07454
1.07459
1.07465
1.07471
1.07479
1.07487
1.07495
1.07504
1.07514
1.07525
1.07537
1.07549
1.07561
1.07575
1.07589
1.07604
1.07619
1.07635
1.07652
1.07668
1.07685
1.07703
1.0772
1.07738
1.07755
1.07773
1.0779
1.07807
1.07824
1.07839
1.07855
1.0787
1.07883
1.07897
1.07909
1.0792
1.07929
1.07938
1.07945
1.07951
1.07956
1.07959
1.07961
1.07961
1.0796
1.07957
1.07952
1.07947
1.0794
1.07931
1.07922
1.07911
1.07899
1.07886
1.07871
1.07856
1.0784
1.07823
1.07805
1.07785
1.07765
1.07744
1.07721
1.07697
1.07671
1.07644
1.07616
1.07585
1.07552
1.07518
1.07481
1.07441
1.07399
1.07355
1.07308
1.07258
1.07206
1.07151
1.07094
1.07035
1.06974
1.06911
1.06846
1.0678
1.06712
1.06644
1.06576
1.06507
1.06438
1.0637
1.06303
1.06237
1.06172
1.06109
1.06048
1.0599
1.05934
1.05881
1.05831
1.05784
1.05741
1.05701
1.05665
1.05633
1.05605
1.0558
1.0556
1.05544
1.05532
1.05523
1.05519
1.05519
1.05523
1.0553
1.05542
1.05557
1.05577
1.056
1.05626
1.05657
1.05691
1.05727
1.05766
1.08786
1.08788
1.0879
1.08792
1.08794
1.08795
1.08797
1.08798
1.088
1.08801
1.08802
1.08803
1.08804
1.08804
1.08805
1.08805
1.08806
1.08806
1.08807
1.08807
1.08808
1.08809
1.0881
1.08811
1.08812
1.08814
1.08816
1.08818
1.08821
1.08824
1.08827
1.08831
1.08836
1.08841
1.08846
1.08853
1.0886
1.08867
1.08876
1.08885
1.08895
1.08906
1.08918
1.0893
1.08943
1.08957
1.08972
1.08988
1.09005
1.09022
1.0904
1.09059
1.09078
1.09098
1.09119
1.09141
1.09163
1.09185
1.09209
1.09233
1.09257
1.09282
1.09308
1.09334
1.0936
1.09388
1.09416
1.09444
1.09473
1.09503
1.09533
1.09564
1.09595
1.09627
1.0966
1.09693
1.09726
1.09761
1.09795
1.0983
1.09865
1.099
1.09935
1.0997
1.10005
1.10039
1.10073
1.10106
1.10137
1.10168
1.10196
1.10223
1.10248
1.10271
1.10291
1.10308
1.10323
1.10335
1.10345
1.10351
1.10355
1.10356
1.10355
1.10351
1.10345
1.10337
1.10327
1.10316
1.10303
1.1029
1.10275
1.1026
1.10244
1.10227
1.1021
1.10193
1.10175
1.10158
1.1014
1.10122
1.10104
1.10086
1.10068
1.1005
1.10032
1.10014
1.09996
1.09978
1.0996
1.09942
1.09924
1.09906
1.09888
1.0987
1.09852
1.09835
1.09817
1.09799
1.09782
1.09765
1.09748
1.09732
1.09715
1.097
1.09684
1.09669
1.09654
1.0964
1.09627
1.09614
1.09602
1.0959
1.09579
1.09569
1.09559
1.0955
1.09542
1.09534
1.09527
1.09521
1.09515
1.09509
1.09505
1.09501
1.09497
1.09494
1.09491
1.09489
1.09487
1.09485
1.09484
1.09482
1.09482
1.09481
1.0948
1.0948
1.09479
1.09479
1.09479
1.09478
1.09478
1.09478
1.09478
1.09477
1.09477
1.09476
1.09475
1.09474
1.09472
1.09471
1.09469
1.09466
1.09463
1.09459
1.09454
1.09448
1.09441
1.09432
1.09422
1.09409
1.09393
1.09375
1.09354
1.09328
1.09299
1.09265
1.09227
1.09184
1.09135
1.09082
1.09023
1.08959
1.08891
1.08819
1.08742
1.08663
1.08581
1.08498
1.08414
1.0833
1.08247
1.08166
1.08088
1.08014
1.07945
1.07882
1.07824
1.07774
1.0773
1.07693
1.07663
1.0764
1.07622
1.07611
1.07604
1.07602
1.07602
1.07605
1.0761
1.07615
1.07621
1.07627
1.07632
1.07636
1.07639
1.07641
1.07641
1.0764
1.07637
1.07633
1.07628
1.07621
1.07613
1.07604
1.07594
1.07584
1.07572
1.0756
1.07548
1.07536
1.07524
1.07512
1.07501
1.0749
1.07481
1.07472
1.07464
1.07457
1.07452
1.07447
1.07444
1.07442
1.07441
1.07442
1.07443
1.07445
1.07449
1.07453
1.07458
1.07464
1.0747
1.07478
1.07486
1.07495
1.07504
1.07514
1.07525
1.07537
1.07549
1.07562
1.07576
1.0759
1.07605
1.0762
1.07636
1.07653
1.0767
1.07687
1.07704
1.07721
1.07739
1.07756
1.07773
1.0779
1.07807
1.07823
1.07839
1.07854
1.07868
1.07881
1.07893
1.07905
1.07915
1.07924
1.07931
1.07938
1.07942
1.07946
1.07948
1.07948
1.07947
1.07944
1.07939
1.07933
1.07926
1.07917
1.07907
1.07895
1.07882
1.07868
1.07853
1.07837
1.0782
1.07801
1.07782
1.07762
1.07741
1.07718
1.07695
1.07671
1.07645
1.07619
1.07591
1.07561
1.0753
1.07498
1.07463
1.07427
1.07389
1.07349
1.07307
1.07263
1.07216
1.07168
1.07117
1.07065
1.0701
1.06954
1.06897
1.06837
1.06777
1.06715
1.06653
1.0659
1.06526
1.06462
1.06399
1.06336
1.06274
1.06213
1.06153
1.06094
1.06038
1.05983
1.05931
1.05882
1.05835
1.05792
1.05752
1.05715
1.05682
1.05652
1.05626
1.05604
1.05586
1.05572
1.05561
1.05555
1.05553
1.05555
1.05561
1.0557
1.05584
1.05601
1.05623
1.05647
1.05676
1.05708
1.05743
1.05782
1.08784
1.08786
1.08788
1.0879
1.08792
1.08794
1.08795
1.08797
1.08798
1.08799
1.088
1.08801
1.08802
1.08802
1.08803
1.08804
1.08804
1.08805
1.08805
1.08806
1.08807
1.08808
1.08809
1.0881
1.08811
1.08813
1.08815
1.08817
1.0882
1.08823
1.08826
1.0883
1.08835
1.0884
1.08846
1.08852
1.08859
1.08867
1.08875
1.08884
1.08894
1.08905
1.08917
1.08929
1.08942
1.08956
1.08971
1.08986
1.09003
1.0902
1.09038
1.09056
1.09076
1.09096
1.09116
1.09138
1.09159
1.09182
1.09205
1.09229
1.09253
1.09278
1.09303
1.09329
1.09355
1.09382
1.0941
1.09438
1.09466
1.09496
1.09526
1.09556
1.09587
1.09618
1.0965
1.09683
1.09716
1.0975
1.09783
1.09818
1.09852
1.09887
1.09922
1.09956
1.09991
1.10025
1.10058
1.10091
1.10122
1.10153
1.10182
1.10209
1.10234
1.10257
1.10278
1.10296
1.10311
1.10324
1.10333
1.1034
1.10345
1.10346
1.10345
1.10342
1.10336
1.10329
1.1032
1.10309
1.10297
1.10283
1.10269
1.10254
1.10238
1.10222
1.10205
1.10188
1.10171
1.10153
1.10136
1.10118
1.101
1.10083
1.10065
1.10047
1.10029
1.10011
1.09993
1.09975
1.09957
1.09939
1.09921
1.09904
1.09886
1.09868
1.0985
1.09832
1.09815
1.09798
1.0978
1.09763
1.09747
1.0973
1.09714
1.09698
1.09683
1.09668
1.09654
1.0964
1.09626
1.09614
1.09601
1.0959
1.09579
1.09569
1.09559
1.0955
1.09542
1.09534
1.09527
1.09521
1.09515
1.09509
1.09505
1.095
1.09497
1.09493
1.09491
1.09488
1.09486
1.09484
1.09483
1.09482
1.09481
1.0948
1.09479
1.09478
1.09478
1.09478
1.09477
1.09477
1.09477
1.09476
1.09476
1.09475
1.09475
1.09474
1.09473
1.09472
1.0947
1.09469
1.09467
1.09464
1.09461
1.09457
1.09452
1.09446
1.09439
1.0943
1.0942
1.09407
1.09392
1.09373
1.09352
1.09326
1.09297
1.09263
1.09224
1.09181
1.09132
1.09078
1.0902
1.08956
1.08887
1.08815
1.08739
1.08659
1.08577
1.08494
1.0841
1.08327
1.08244
1.08164
1.08087
1.08014
1.07945
1.07883
1.07826
1.07776
1.07733
1.07696
1.07667
1.07644
1.07627
1.07616
1.07609
1.07606
1.07606
1.07609
1.07613
1.07618
1.07624
1.07629
1.07634
1.07638
1.0764
1.07642
1.07642
1.0764
1.07637
1.07633
1.07627
1.07621
1.07613
1.07603
1.07593
1.07583
1.07571
1.0756
1.07548
1.07536
1.07524
1.07512
1.07501
1.0749
1.07481
1.07472
1.07464
1.07457
1.07451
1.07447
1.07444
1.07441
1.0744
1.07441
1.07442
1.07444
1.07447
1.07452
1.07457
1.07463
1.07469
1.07477
1.07485
1.07494
1.07504
1.07514
1.07525
1.07537
1.0755
1.07563
1.07577
1.07591
1.07606
1.07622
1.07638
1.07654
1.07671
1.07688
1.07705
1.07722
1.0774
1.07757
1.07774
1.0779
1.07806
1.07822
1.07837
1.07851
1.07865
1.07877
1.07889
1.07899
1.07908
1.07916
1.07922
1.07927
1.0793
1.07932
1.07932
1.0793
1.07927
1.07922
1.07916
1.07908
1.07898
1.07887
1.07874
1.0786
1.07845
1.07829
1.07811
1.07792
1.07772
1.07751
1.0773
1.07707
1.07683
1.07659
1.07633
1.07607
1.0758
1.07552
1.07523
1.07493
1.07462
1.0743
1.07396
1.07361
1.07325
1.07287
1.07248
1.07207
1.07165
1.07121
1.07075
1.07028
1.0698
1.0693
1.06878
1.06826
1.06772
1.06717
1.06662
1.06605
1.06548
1.06491
1.06433
1.06375
1.06318
1.06261
1.06205
1.0615
1.06096
1.06044
1.05994
1.05945
1.05899
1.05856
1.05815
1.05777
1.05743
1.05711
1.05684
1.0566
1.05639
1.05623
1.0561
1.05602
1.05597
1.05596
1.05599
1.05607
1.05618
1.05633
1.05652
1.05675
1.05701
1.05731
1.05765
1.05802
1.08782
1.08784
1.08786
1.08788
1.0879
1.08791
1.08793
1.08794
1.08796
1.08797
1.08798
1.08799
1.088
1.088
1.08801
1.08802
1.08802
1.08803
1.08803
1.08804
1.08805
1.08806
1.08807
1.08808
1.0881
1.08811
1.08813
1.08816
1.08819
1.08822
1.08825
1.08829
1.08834
1.08839
1.08845
1.08851
1.08858
1.08865
1.08874
1.08883
1.08893
1.08903
1.08915
1.08927
1.0894
1.08954
1.08968
1.08984
1.09
1.09017
1.09034
1.09053
1.09072
1.09091
1.09112
1.09133
1.09154
1.09177
1.09199
1.09223
1.09247
1.09271
1.09296
1.09321
1.09347
1.09374
1.09401
1.09429
1.09457
1.09486
1.09515
1.09545
1.09575
1.09606
1.09637
1.09669
1.09702
1.09735
1.09768
1.09802
1.09836
1.0987
1.09904
1.09938
1.09973
1.10006
1.1004
1.10072
1.10104
1.10135
1.10164
1.10192
1.10217
1.10241
1.10262
1.10281
1.10297
1.1031
1.1032
1.10328
1.10333
1.10335
1.10335
1.10332
1.10327
1.1032
1.10311
1.10301
1.10289
1.10276
1.10262
1.10247
1.10232
1.10216
1.10199
1.10183
1.10166
1.10149
1.10131
1.10114
1.10096
1.10078
1.10061
1.10043
1.10025
1.10007
1.0999
1.09972
1.09954
1.09936
1.09918
1.099
1.09883
1.09865
1.09847
1.0983
1.09812
1.09795
1.09778
1.09761
1.09744
1.09728
1.09712
1.09697
1.09681
1.09667
1.09652
1.09639
1.09625
1.09613
1.09601
1.09589
1.09578
1.09568
1.09559
1.0955
1.09541
1.09534
1.09527
1.0952
1.09514
1.09509
1.09504
1.095
1.09496
1.09493
1.0949
1.09487
1.09485
1.09483
1.09482
1.0948
1.09479
1.09478
1.09477
1.09477
1.09476
1.09476
1.09475
1.09475
1.09474
1.09474
1.09474
1.09473
1.09472
1.09472
1.09471
1.09469
1.09468
1.09466
1.09464
1.09462
1.09458
1.09455
1.0945
1.09444
1.09437
1.09428
1.09418
1.09405
1.0939
1.09371
1.0935
1.09324
1.09295
1.09261
1.09222
1.09178
1.0913
1.09076
1.09017
1.08953
1.08884
1.08811
1.08735
1.08656
1.08574
1.08491
1.08407
1.08324
1.08242
1.08162
1.08086
1.08013
1.07946
1.07884
1.07828
1.07778
1.07736
1.077
1.07671
1.07649
1.07632
1.0762
1.07614
1.07611
1.07611
1.07613
1.07617
1.07622
1.07627
1.07631
1.07636
1.07639
1.07641
1.07642
1.07642
1.0764
1.07637
1.07632
1.07627
1.0762
1.07612
1.07603
1.07593
1.07582
1.07571
1.07559
1.07547
1.07535
1.07523
1.07512
1.07501
1.0749
1.0748
1.07472
1.07464
1.07457
1.07451
1.07446
1.07443
1.0744
1.07439
1.07439
1.0744
1.07443
1.07446
1.0745
1.07455
1.07461
1.07468
1.07475
1.07484
1.07493
1.07503
1.07514
1.07525
1.07537
1.0755
1.07563
1.07577
1.07592
1.07607
1.07623
1.07639
1.07655
1.07672
1.07689
1.07706
1.07723
1.0774
1.07757
1.07773
1.07789
1.07805
1.0782
1.07834
1.07847
1.0786
1.07871
1.07881
1.0789
1.07898
1.07904
1.07909
1.07912
1.07913
1.07913
1.07911
1.07907
1.07902
1.07895
1.07886
1.07875
1.07863
1.07849
1.07834
1.07817
1.07799
1.0778
1.07759
1.07737
1.07715
1.07691
1.07666
1.07641
1.07615
1.07588
1.0756
1.07532
1.07504
1.07474
1.07445
1.07414
1.07383
1.07351
1.07319
1.07285
1.07251
1.07216
1.07181
1.07144
1.07106
1.07067
1.07027
1.06986
1.06944
1.06901
1.06857
1.06812
1.06765
1.06718
1.0667
1.06621
1.06571
1.06521
1.0647
1.06419
1.06367
1.06315
1.06264
1.06213
1.06163
1.06113
1.06065
1.06018
1.05973
1.0593
1.05889
1.0585
1.05815
1.05782
1.05753
1.05726
1.05704
1.05685
1.05669
1.05658
1.0565
1.05647
1.05647
1.05651
1.0566
1.05672
1.05688
1.05709
1.05733
1.0576
1.05792
1.05827
1.0878
1.08782
1.08784
1.08786
1.08787
1.08789
1.0879
1.08792
1.08793
1.08794
1.08795
1.08796
1.08797
1.08798
1.08798
1.08799
1.088
1.088
1.08801
1.08802
1.08803
1.08804
1.08805
1.08806
1.08808
1.0881
1.08812
1.08814
1.08817
1.0882
1.08824
1.08828
1.08832
1.08837
1.08843
1.08849
1.08856
1.08864
1.08872
1.08881
1.0889
1.08901
1.08912
1.08924
1.08937
1.0895
1.08965
1.0898
1.08996
1.09012
1.0903
1.09048
1.09067
1.09086
1.09106
1.09127
1.09148
1.0917
1.09192
1.09215
1.09238
1.09262
1.09287
1.09312
1.09337
1.09363
1.0939
1.09417
1.09445
1.09473
1.09501
1.09531
1.0956
1.09591
1.09621
1.09653
1.09684
1.09717
1.09749
1.09782
1.09816
1.0985
1.09883
1.09917
1.09951
1.09985
1.10018
1.10051
1.10083
1.10114
1.10143
1.10172
1.10198
1.10222
1.10244
1.10264
1.1028
1.10295
1.10306
1.10314
1.1032
1.10323
1.10323
1.10321
1.10316
1.1031
1.10301
1.10291
1.1028
1.10268
1.10254
1.1024
1.10225
1.10209
1.10193
1.10177
1.1016
1.10143
1.10126
1.10109
1.10091
1.10074
1.10056
1.10039
1.10021
1.10003
1.09985
1.09968
1.0995
1.09932
1.09914
1.09897
1.09879
1.09861
1.09844
1.09826
1.09809
1.09792
1.09775
1.09758
1.09741
1.09725
1.09709
1.09694
1.09679
1.09664
1.0965
1.09637
1.09624
1.09611
1.09599
1.09588
1.09577
1.09567
1.09557
1.09549
1.0954
1.09533
1.09526
1.09519
1.09513
1.09508
1.09503
1.09499
1.09495
1.09492
1.09489
1.09486
1.09484
1.09482
1.0948
1.09479
1.09477
1.09476
1.09475
1.09475
1.09474
1.09473
1.09473
1.09472
1.09472
1.09471
1.09471
1.0947
1.0947
1.09469
1.09468
1.09467
1.09465
1.09464
1.09461
1.09459
1.09456
1.09452
1.09447
1.09442
1.09435
1.09426
1.09416
1.09403
1.09388
1.0937
1.09348
1.09323
1.09293
1.09259
1.0922
1.09176
1.09127
1.09073
1.09014
1.0895
1.08881
1.08808
1.08732
1.08653
1.08571
1.08488
1.08405
1.08322
1.0824
1.08161
1.08085
1.08013
1.07946
1.07885
1.0783
1.07781
1.0774
1.07704
1.07676
1.07654
1.07637
1.07626
1.07619
1.07616
1.07615
1.07617
1.0762
1.07625
1.07629
1.07633
1.07637
1.0764
1.07642
1.07642
1.07642
1.0764
1.07636
1.07632
1.07626
1.07619
1.07611
1.07602
1.07592
1.07581
1.0757
1.07558
1.07546
1.07535
1.07523
1.07512
1.07501
1.0749
1.0748
1.07471
1.07463
1.07456
1.0745
1.07446
1.07442
1.07439
1.07438
1.07438
1.07439
1.07441
1.07444
1.07448
1.07453
1.07459
1.07466
1.07474
1.07482
1.07492
1.07502
1.07513
1.07525
1.07537
1.0755
1.07564
1.07578
1.07593
1.07608
1.07624
1.0764
1.07656
1.07672
1.07689
1.07706
1.07722
1.07739
1.07755
1.07771
1.07786
1.07801
1.07815
1.07828
1.07841
1.07852
1.07862
1.07871
1.07878
1.07884
1.07888
1.07891
1.07892
1.07891
1.07889
1.07884
1.07878
1.0787
1.0786
1.07848
1.07835
1.0782
1.07803
1.07785
1.07765
1.07744
1.07721
1.07698
1.07673
1.07647
1.07621
1.07593
1.07565
1.07537
1.07508
1.07478
1.07448
1.07418
1.07388
1.07358
1.07327
1.07296
1.07266
1.07235
1.07203
1.07172
1.0714
1.07108
1.07076
1.07043
1.07009
1.06975
1.06941
1.06905
1.06869
1.06833
1.06795
1.06757
1.06718
1.06677
1.06636
1.06594
1.06551
1.06508
1.06463
1.06418
1.06372
1.06326
1.0628
1.06234
1.06188
1.06142
1.06098
1.06054
1.06012
1.05971
1.05933
1.05896
1.05862
1.05831
1.05803
1.05778
1.05756
1.05738
1.05724
1.05713
1.05706
1.05704
1.05705
1.0571
1.05719
1.05732
1.05749
1.05771
1.05796
1.05824
1.05857
1.08777
1.08779
1.08781
1.08783
1.08785
1.08786
1.08788
1.08789
1.0879
1.08791
1.08792
1.08793
1.08794
1.08795
1.08796
1.08796
1.08797
1.08798
1.08799
1.08799
1.088
1.08801
1.08803
1.08804
1.08806
1.08807
1.08809
1.08812
1.08815
1.08818
1.08821
1.08825
1.0883
1.08835
1.08841
1.08847
1.08854
1.08861
1.08869
1.08878
1.08887
1.08898
1.08909
1.0892
1.08933
1.08946
1.0896
1.08975
1.08991
1.09007
1.09024
1.09041
1.0906
1.09079
1.09098
1.09118
1.09139
1.09161
1.09182
1.09205
1.09228
1.09251
1.09275
1.093
1.09324
1.0935
1.09376
1.09402
1.09429
1.09457
1.09484
1.09513
1.09542
1.09571
1.09601
1.09632
1.09663
1.09695
1.09727
1.09759
1.09792
1.09825
1.09858
1.09892
1.09926
1.09959
1.09992
1.10025
1.10058
1.10089
1.10119
1.10148
1.10175
1.102
1.10223
1.10244
1.10262
1.10277
1.10289
1.10298
1.10305
1.10308
1.10309
1.10308
1.10304
1.10298
1.1029
1.10281
1.1027
1.10258
1.10245
1.10231
1.10216
1.10201
1.10185
1.10169
1.10153
1.10136
1.10119
1.10102
1.10085
1.10068
1.10051
1.10033
1.10016
1.09998
1.0998
1.09963
1.09945
1.09927
1.0991
1.09892
1.09874
1.09857
1.09839
1.09822
1.09805
1.09788
1.09771
1.09754
1.09738
1.09722
1.09706
1.09691
1.09676
1.09661
1.09648
1.09634
1.09621
1.09609
1.09597
1.09586
1.09575
1.09565
1.09556
1.09547
1.09539
1.09531
1.09524
1.09518
1.09512
1.09507
1.09502
1.09497
1.09494
1.0949
1.09487
1.09484
1.09482
1.0948
1.09478
1.09477
1.09475
1.09474
1.09473
1.09472
1.09471
1.09471
1.0947
1.0947
1.09469
1.09468
1.09468
1.09467
1.09466
1.09466
1.09465
1.09463
1.09462
1.0946
1.09458
1.09456
1.09453
1.09449
1.09445
1.09439
1.09432
1.09424
1.09414
1.09401
1.09386
1.09368
1.09346
1.09321
1.09291
1.09257
1.09218
1.09174
1.09125
1.09071
1.09012
1.08947
1.08879
1.08806
1.08729
1.0865
1.08568
1.08486
1.08403
1.0832
1.08239
1.0816
1.08085
1.08014
1.07948
1.07887
1.07833
1.07785
1.07744
1.07709
1.07681
1.07659
1.07643
1.07631
1.07624
1.07621
1.0762
1.07621
1.07624
1.07628
1.07632
1.07635
1.07638
1.07641
1.07642
1.07642
1.07641
1.07639
1.07635
1.07631
1.07625
1.07618
1.07609
1.076
1.0759
1.0758
1.07569
1.07557
1.07546
1.07534
1.07523
1.07511
1.075
1.0749
1.0748
1.07471
1.07463
1.07456
1.0745
1.07445
1.07441
1.07438
1.07436
1.07436
1.07437
1.07438
1.07441
1.07445
1.0745
1.07456
1.07463
1.07471
1.0748
1.0749
1.075
1.07512
1.07524
1.07536
1.07549
1.07563
1.07578
1.07592
1.07608
1.07623
1.07639
1.07655
1.07672
1.07688
1.07704
1.0772
1.07736
1.07752
1.07767
1.07781
1.07795
1.07808
1.0782
1.07831
1.07841
1.07849
1.07856
1.07861
1.07865
1.07867
1.07868
1.07866
1.07863
1.07858
1.07851
1.07841
1.0783
1.07818
1.07803
1.07786
1.07768
1.07748
1.07727
1.07704
1.0768
1.07654
1.07628
1.076
1.07572
1.07542
1.07512
1.07482
1.07451
1.0742
1.07389
1.07358
1.07327
1.07296
1.07266
1.07235
1.07206
1.07176
1.07147
1.07118
1.07089
1.07061
1.07033
1.07005
1.06977
1.06949
1.06922
1.06893
1.06865
1.06836
1.06807
1.06777
1.06746
1.06715
1.06683
1.0665
1.06616
1.0658
1.06544
1.06507
1.06468
1.06429
1.06389
1.06348
1.06307
1.06265
1.06223
1.06182
1.0614
1.061
1.0606
1.06022
1.05985
1.05951
1.05918
1.05888
1.05861
1.05837
1.05816
1.05799
1.05785
1.05775
1.05769
1.05766
1.05768
1.05774
1.05784
1.05797
1.05815
1.05837
1.05863
1.05892
1.08775
1.08777
1.08779
1.0878
1.08782
1.08783
1.08785
1.08786
1.08787
1.08788
1.08789
1.0879
1.08791
1.08792
1.08792
1.08793
1.08794
1.08795
1.08796
1.08796
1.08797
1.08799
1.088
1.08801
1.08803
1.08805
1.08807
1.08809
1.08812
1.08815
1.08819
1.08823
1.08827
1.08832
1.08838
1.08844
1.08851
1.08858
1.08866
1.08875
1.08884
1.08894
1.08905
1.08916
1.08928
1.08941
1.08955
1.08969
1.08984
1.09
1.09017
1.09034
1.09052
1.0907
1.09089
1.09109
1.09129
1.0915
1.09171
1.09193
1.09215
1.09238
1.09261
1.09285
1.09309
1.09334
1.09359
1.09385
1.09411
1.09438
1.09465
1.09493
1.09521
1.0955
1.09579
1.09608
1.09639
1.0967
1.09701
1.09732
1.09765
1.09797
1.0983
1.09863
1.09897
1.0993
1.09963
1.09996
1.10029
1.10061
1.10091
1.10121
1.10149
1.10175
1.10199
1.10221
1.1024
1.10256
1.1027
1.1028
1.10287
1.10292
1.10294
1.10293
1.1029
1.10284
1.10277
1.10268
1.10258
1.10246
1.10234
1.1022
1.10206
1.10191
1.10176
1.1016
1.10144
1.10128
1.10112
1.10095
1.10078
1.10061
1.10044
1.10027
1.10009
1.09992
1.09974
1.09957
1.09939
1.09922
1.09904
1.09886
1.09869
1.09851
1.09834
1.09817
1.09799
1.09783
1.09766
1.09749
1.09733
1.09717
1.09702
1.09687
1.09672
1.09658
1.09644
1.09631
1.09618
1.09606
1.09594
1.09583
1.09573
1.09563
1.09554
1.09545
1.09537
1.09529
1.09522
1.09516
1.0951
1.09505
1.095
1.09496
1.09492
1.09488
1.09485
1.09482
1.0948
1.09478
1.09476
1.09474
1.09473
1.09471
1.0947
1.09469
1.09468
1.09468
1.09467
1.09466
1.09466
1.09465
1.09465
1.09464
1.09463
1.09462
1.09461
1.0946
1.09459
1.09457
1.09455
1.09453
1.0945
1.09446
1.09442
1.09437
1.0943
1.09422
1.09411
1.09399
1.09384
1.09366
1.09345
1.09319
1.0929
1.09256
1.09217
1.09173
1.09124
1.09069
1.0901
1.08945
1.08876
1.08803
1.08727
1.08648
1.08566
1.08484
1.08401
1.08319
1.08238
1.0816
1.08085
1.08015
1.0795
1.0789
1.07836
1.07789
1.07748
1.07714
1.07687
1.07665
1.07649
1.07637
1.0763
1.07626
1.07625
1.07626
1.07628
1.07631
1.07634
1.07637
1.0764
1.07642
1.07642
1.07642
1.07641
1.07638
1.07634
1.07629
1.07623
1.07616
1.07608
1.07599
1.07589
1.07579
1.07568
1.07557
1.07545
1.07534
1.07522
1.07511
1.075
1.0749
1.0748
1.07471
1.07463
1.07456
1.07449
1.07444
1.0744
1.07437
1.07435
1.07434
1.07434
1.07436
1.07439
1.07443
1.07447
1.07454
1.07461
1.07469
1.07478
1.07488
1.07498
1.0751
1.07522
1.07535
1.07548
1.07562
1.07576
1.07591
1.07606
1.07622
1.07638
1.07653
1.07669
1.07685
1.07701
1.07716
1.07731
1.07746
1.0776
1.07773
1.07786
1.07797
1.07807
1.07817
1.07825
1.07831
1.07836
1.07839
1.07841
1.07841
1.07838
1.07834
1.07828
1.0782
1.0781
1.07797
1.07783
1.07767
1.07749
1.0773
1.07708
1.07685
1.07661
1.07635
1.07608
1.07579
1.0755
1.0752
1.07489
1.07457
1.07425
1.07393
1.0736
1.07328
1.07296
1.07264
1.07232
1.07201
1.07171
1.07142
1.07113
1.07085
1.07058
1.07032
1.07007
1.06982
1.06958
1.06935
1.06912
1.0689
1.06868
1.06846
1.06824
1.06802
1.0678
1.06757
1.06734
1.06711
1.06686
1.06661
1.06634
1.06607
1.06578
1.06548
1.06517
1.06484
1.0645
1.06415
1.06379
1.06343
1.06305
1.06267
1.06229
1.06191
1.06153
1.06116
1.0608
1.06045
1.06012
1.05981
1.05952
1.05926
1.05902
1.05882
1.05865
1.05852
1.05842
1.05836
1.05835
1.05837
1.05843
1.05853
1.05867
1.05885
1.05908
1.05934
1.08772
1.08774
1.08776
1.08777
1.08779
1.0878
1.08781
1.08783
1.08784
1.08785
1.08786
1.08787
1.08788
1.08788
1.08789
1.0879
1.08791
1.08791
1.08792
1.08793
1.08794
1.08795
1.08797
1.08798
1.088
1.08802
1.08804
1.08807
1.08809
1.08812
1.08816
1.0882
1.08824
1.08829
1.08835
1.08841
1.08847
1.08854
1.08862
1.0887
1.08879
1.08889
1.089
1.08911
1.08922
1.08935
1.08948
1.08962
1.08977
1.08992
1.09008
1.09025
1.09042
1.0906
1.09078
1.09097
1.09117
1.09137
1.09157
1.09178
1.092
1.09222
1.09245
1.09268
1.09291
1.09315
1.09339
1.09364
1.0939
1.09416
1.09442
1.09469
1.09496
1.09524
1.09552
1.09581
1.09611
1.09641
1.09671
1.09702
1.09734
1.09765
1.09798
1.09831
1.09864
1.09897
1.0993
1.09963
1.09996
1.10028
1.1006
1.1009
1.10119
1.10147
1.10172
1.10195
1.10215
1.10233
1.10247
1.10259
1.10268
1.10273
1.10276
1.10276
1.10273
1.10269
1.10262
1.10254
1.10244
1.10233
1.10221
1.10208
1.10194
1.1018
1.10165
1.1015
1.10134
1.10119
1.10102
1.10086
1.1007
1.10053
1.10036
1.10019
1.10002
1.09984
1.09967
1.0995
1.09932
1.09915
1.09897
1.0988
1.09862
1.09845
1.09827
1.0981
1.09793
1.09777
1.0976
1.09744
1.09728
1.09712
1.09697
1.09682
1.09667
1.09653
1.0964
1.09627
1.09614
1.09602
1.09591
1.0958
1.0957
1.0956
1.09551
1.09542
1.09534
1.09527
1.0952
1.09514
1.09508
1.09502
1.09498
1.09493
1.09489
1.09486
1.09483
1.0948
1.09477
1.09475
1.09473
1.09471
1.0947
1.09468
1.09467
1.09466
1.09465
1.09464
1.09464
1.09463
1.09462
1.09462
1.09461
1.0946
1.09459
1.09459
1.09458