# vtk DataFile Version 2.0
LBE two cylinders
ASCII
DATASET STRUCTURED_POINTS
DIMENSIONS 400 100 1
ASPECT_RATIO 1 1 1
ORIGIN 0 0 0
POINT_DATA 40000
SCALARS rho double 1
LOOKUP_TABLE default
1.71379
1.71378
1.71378
1.71378
1.71379
1.7138
1.71381
1.71383
1.71385
1.71387
1.71389
1.71392
1.71394
1.71397
1.714
1.71403
1.71407
1.7141
1.71414
1.71417
1.71421
1.71425
1.71429
1.71434
1.71438
1.71443
1.71448
1.71453
1.71458
1.71463
1.71469
1.71475
1.7148
1.71486
1.71492
1.71498
1.71504
1.7151
1.71516
1.71521
1.71526
1.7153
1.71534
1.71537
1.71539
1.7154
1.71541
1.7154
1.71537
1.71533
1.71528
1.71521
1.71513
1.71502
1.7149
1.71477
1.71461
1.71444
1.71424
1.71403
1.71381
1.71356
1.7133
1.71303
1.71274
1.71243
1.71212
1.71179
1.71146
1.71111
1.71076
1.7104
1.71004
1.70968
1.70931
1.70894
1.70858
1.70822
1.70786
1.70751
1.70717
1.70683
1.7065
1.70619
1.70588
1.70559
1.70531
1.70504
1.70479
1.70456
1.70434
1.70413
1.70395
1.70378
1.70363
1.7035
1.70339
1.7033
1.70322
1.70317
1.70313
1.70312
1.70313
1.70315
1.7032
1.70327
1.70336
1.70347
1.7036
1.70375
1.70392
1.70412
1.70433
1.70457
1.70482
1.7051
1.70539
1.70571
1.70604
1.70639
1.70676
1.70714
1.70753
1.70794
1.70835
1.70877
1.7092
1.70963
1.71007
1.7105
1.71093
1.71136
1.71178
1.71219
1.71259
1.71298
1.71335
1.7137
1.71403
1.71434
1.71463
1.71489
1.71512
1.71532
1.71549
1.71563
1.71573
1.7158
1.71584
1.71584
1.71581
1.71575
1.71565
1.71553
1.71539
1.71523
1.71505
1.71485
1.71465
1.71444
1.71424
1.71403
1.71384
1.71365
1.71348
1.71332
1.71317
1.71304
1.71293
1.71283
1.71274
1.71266
1.71259
1.71252
1.71246
1.71239
1.71231
1.71223
1.71213
1.71202
1.71189
1.71174
1.71157
1.71138
1.71116
1.71092
1.71066
1.71038
1.71008
1.70975
1.70941
1.70906
1.7087
1.70832
1.70794
1.70756
1.70718
1.7068
1.70642
1.70606
1.7057
1.70536
1.70503
1.70473
1.70444
1.70417
1.70393
1.70371
1.70352
1.70335
1.7032
1.70309
1.703
1.70293
1.70289
1.70287
1.70287
1.70289
1.70294
1.703
1.70307
1.70316
1.70326
1.70337
1.70349
1.70362
1.70375
1.70388
1.70401
1.70415
1.70428
1.70441
1.70454
1.70466
1.70478
1.7049
1.70502
1.70513
1.70524
1.70535
1.70546
1.70557
1.70568
1.70579
1.7059
1.70602
1.70614
1.70627
1.7064
1.70654
1.70669
1.70684
1.70701
1.70718
1.70736
1.70755
1.70774
1.70795
1.70816
1.70838
1.7086
1.70883
1.70907
1.7093
1.70954
1.70978
1.71002
1.71026
1.71049
1.71072
1.71095
1.71117
1.71138
1.71159
1.71179
1.71198
1.71216
1.71233
1.71249
1.71263
1.71277
1.7129
1.71301
1.71312
1.71321
1.71329
1.71336
1.71342
1.71348
1.71352
1.71355
1.71357
1.71359
1.71359
1.71359
1.71358
1.71357
1.71354
1.71352
1.71349
1.71345
1.71341
1.71336
1.71331
1.71326
1.71321
1.71315
1.71309
1.71303
1.71297
1.71291
1.71285
1.71278
1.71272
1.71266
1.7126
1.71254
1.71248
1.71243
1.71238
1.71232
1.71228
1.71223
1.71219
1.71215
1.71211
1.71208
1.71205
1.71203
1.71201
1.712
1.71199
1.71198
1.71198
1.71199
1.712
1.71202
1.71204
1.71207
1.7121
1.71214
1.71219
1.71225
1.71231
1.71237
1.71245
1.71252
1.71261
1.7127
1.71279
1.71289
1.71299
1.71309
1.7132
1.71331
1.71342
1.71353
1.71364
1.71375
1.71386
1.71396
1.71407
1.71416
1.71425
1.71434
1.71442
1.71449
1.71456
1.71461
1.71466
1.7147
1.71473
1.71475
1.71477
1.71477
1.71477
1.71476
1.71474
1.71471
1.71468
1.71464
1.71459
1.71455
1.7145
1.71444
1.71439
1.71433
1.71427
1.71422
1.71416
1.71411
1.71406
1.71401
1.71397
1.71393
1.71389
1.71386
1.71384
1.71382
1.7138
1.71379
1.71378
1.71378
1.71378
1.71379
1.7138
1.71381
1.71383
1.71384
1.71386
1.71389
1.71391
1.71394
1.71397
1.714
1.71403
1.71406
1.7141
1.71413
1.71417
1.71421
1.71425
1.71429
1.71433
1.71438
1.71442
1.71447
1.71452
1.71458
1.71463
1.71469
1.71474
1.7148
1.71486
1.71492
1.71498
1.71504
1.7151
1.71515
1.71521
1.71525
1.7153
1.71533
1.71536
1.71538
1.71539
1.7154
1.71538
1.71536
1.71532
1.71527
1.7152
1.71511
1.71501
1.71489
1.71475
1.7146
1.71442
1.71423
1.71402
1.7138
1.71355
1.7133
1.71302
1.71273
1.71243
1.71212
1.71179
1.71146
1.71111
1.71076
1.71041
1.71005
1.70968
1.70932
1.70895
1.70859
1.70823
1.70788
1.70753
1.70718
1.70685
1.70652
1.70621
1.7059
1.70561
1.70533
1.70506
1.70481
1.70458
1.70436
1.70416
1.70397
1.70381
1.70366
1.70353
1.70342
1.70332
1.70325
1.7032
1.70316
1.70315
1.70315
1.70318
1.70323
1.70329
1.70338
1.70349
1.70362
1.70378
1.70395
1.70414
1.70436
1.70459
1.70485
1.70512
1.70542
1.70573
1.70606
1.70641
1.70678
1.70715
1.70755
1.70795
1.70836
1.70878
1.70921
1.70964
1.71007
1.7105
1.71093
1.71135
1.71177
1.71218
1.71258
1.71296
1.71333
1.71368
1.71401
1.71432
1.71461
1.71486
1.71509
1.7153
1.71547
1.7156
1.71571
1.71578
1.71582
1.71582
1.71579
1.71573
1.71564
1.71553
1.71539
1.71523
1.71505
1.71486
1.71466
1.71446
1.71425
1.71405
1.71386
1.71367
1.7135
1.71334
1.7132
1.71307
1.71295
1.71285
1.71276
1.71268
1.71261
1.71254
1.71248
1.71241
1.71233
1.71225
1.71215
1.71204
1.71191
1.71176
1.71159
1.7114
1.71118
1.71094
1.71068
1.7104
1.7101
1.70978
1.70944
1.70909
1.70873
1.70835
1.70798
1.7076
1.70722
1.70684
1.70647
1.7061
1.70575
1.70541
1.70509
1.70478
1.7045
1.70423
1.70399
1.70377
1.70358
1.70341
1.70327
1.70315
1.70306
1.70299
1.70295
1.70293
1.70293
1.70295
1.703
1.70305
1.70313
1.70322
1.70331
1.70342
1.70354
1.70366
1.70379
1.70392
1.70405
1.70419
1.70432
1.70445
1.70457
1.7047
1.70482
1.70494
1.70505
1.70516
1.70527
1.70538
1.70549
1.7056
1.70571
1.70582
1.70593
1.70605
1.70617
1.7063
1.70643
1.70657
1.70672
1.70687
1.70704
1.70721
1.70739
1.70758
1.70777
1.70798
1.70819
1.7084
1.70863
1.70885
1.70908
1.70932
1.70955
1.70979
1.71003
1.71026
1.7105
1.71072
1.71095
1.71117
1.71138
1.71158
1.71178
1.71197
1.71214
1.71231
1.71247
1.71262
1.71275
1.71288
1.71299
1.71309
1.71318
1.71327
1.71334
1.7134
1.71345
1.71349
1.71352
1.71354
1.71356
1.71356
1.71356
1.71355
1.71354
1.71352
1.71349
1.71346
1.71342
1.71338
1.71333
1.71329
1.71323
1.71318
1.71312
1.71307
1.71301
1.71295
1.71288
1.71282
1.71276
1.7127
1.71264
1.71258
1.71252
1.71247
1.71241
1.71236
1.71231
1.71226
1.71222
1.71218
1.71214
1.7121
1.71207
1.71204
1.71202
1.712
1.71199
1.71198
1.71198
1.71198
1.71198
1.712
1.71201
1.71204
1.71207
1.7121
1.71215
1.7122
1.71225
1.71231
1.71238
1.71245
1.71253
1.71261
1.7127
1.7128
1.71289
1.71299
1.7131
1.71321
1.71332
1.71343
1.71354
1.71365
1.71376
1.71386
1.71397
1.71407
1.71416
1.71425
1.71434
1.71442
1.71449
1.71455
1.71461
1.71466
1.7147
1.71473
1.71475
1.71476
1.71477
1.71476
1.71475
1.71473
1.71471
1.71467
1.71464
1.71459
1.71455
1.71449
1.71444
1.71439
1.71433
1.71427
1.71422
1.71416
1.71411
1.71406
1.71402
1.71397
1.71393
1.7139
1.71387
1.71384
1.71382
1.7138
1.71379
1.71379
1.71378
1.71378
1.71379
1.7138
1.71381
1.71382
1.71384
1.71386
1.71388
1.71391
1.71393
1.71396
1.71399
1.71402
1.71406
1.71409
1.71413
1.71416
1.7142
1.71424
1.71428
1.71433
1.71437
1.71442
1.71447
1.71452
1.71457
1.71463
1.71468
1.71474
1.7148
1.71486
1.71492
1.71498
1.71504
1.71509
1.71515
1.7152
1.71525
1.71529
1.71533
1.71536
1.71538
1.71539
1.71539
1.71538
1.71535
1.71531
1.71526
1.71519
1.71511
1.71501
1.71489
1.71475
1.71459
1.71442
1.71423
1.71402
1.7138
1.71356
1.7133
1.71303
1.71274
1.71244
1.71213
1.7118
1.71147
1.71113
1.71078
1.71042
1.71007
1.7097
1.70934
1.70898
1.70862
1.70826
1.7079
1.70755
1.70721
1.70688
1.70655
1.70624
1.70593
1.70564
1.70536
1.7051
1.70485
1.70461
1.7044
1.70419
1.70401
1.70384
1.70369
1.70356
1.70345
1.70336
1.70329
1.70323
1.7032
1.70318
1.70319
1.70322
1.70326
1.70333
1.70342
1.70353
1.70366
1.70381
1.70398
1.70418
1.70439
1.70463
1.70488
1.70516
1.70545
1.70576
1.70609
1.70644
1.7068
1.70718
1.70757
1.70797
1.70838
1.70879
1.70922
1.70965
1.71008
1.7105
1.71093
1.71135
1.71177
1.71218
1.71257
1.71295
1.71332
1.71367
1.714
1.71431
1.71459
1.71485
1.71508
1.71528
1.71545
1.71559
1.7157
1.71577
1.71581
1.71582
1.71579
1.71573
1.71565
1.71554
1.7154
1.71524
1.71507
1.71488
1.71469
1.71449
1.71429
1.71409
1.7139
1.71371
1.71354
1.71338
1.71324
1.71311
1.713
1.71289
1.71281
1.71273
1.71265
1.71259
1.71252
1.71245
1.71237
1.71229
1.71219
1.71208
1.71195
1.71181
1.71164
1.71145
1.71123
1.711
1.71074
1.71046
1.71016
1.70984
1.7095
1.70915
1.70879
1.70842
1.70805
1.70767
1.70729
1.70692
1.70655
1.70619
1.70584
1.7055
1.70518
1.70488
1.70459
1.70433
1.70409
1.70387
1.70368
1.70351
1.70337
1.70326
1.70316
1.7031
1.70305
1.70304
1.70304
1.70306
1.7031
1.70316
1.70323
1.70331
1.70341
1.70352
1.70363
1.70376
1.70388
1.70401
1.70414
1.70427
1.7044
1.70453
1.70465
1.70477
1.70489
1.70501
1.70512
1.70524
1.70534
1.70545
1.70556
1.70567
1.70577
1.70588
1.706
1.70611
1.70623
1.70636
1.70649
1.70663
1.70678
1.70693
1.70709
1.70726
1.70744
1.70763
1.70782
1.70802
1.70823
1.70844
1.70866
1.70889
1.70911
1.70935
1.70958
1.70981
1.71004
1.71028
1.7105
1.71073
1.71095
1.71116
1.71137
1.71157
1.71177
1.71195
1.71212
1.71229
1.71244
1.71259
1.71272
1.71284
1.71295
1.71306
1.71315
1.71323
1.71329
1.71335
1.7134
1.71344
1.71347
1.71349
1.71351
1.71351
1.71351
1.7135
1.71349
1.71347
1.71344
1.71341
1.71337
1.71333
1.71329
1.71324
1.71319
1.71313
1.71308
1.71302
1.71296
1.7129
1.71284
1.71278
1.71272
1.71266
1.7126
1.71254
1.71248
1.71243
1.71238
1.71232
1.71227
1.71223
1.71218
1.71214
1.71211
1.71207
1.71204
1.71202
1.712
1.71198
1.71197
1.71196
1.71196
1.71196
1.71197
1.71198
1.712
1.71203
1.71206
1.7121
1.71214
1.71219
1.71225
1.71231
1.71238
1.71245
1.71253
1.71261
1.7127
1.7128
1.7129
1.713
1.7131
1.71321
1.71332
1.71343
1.71354
1.71365
1.71376
1.71387
1.71397
1.71407
1.71416
1.71425
1.71434
1.71442
1.71449
1.71455
1.71461
1.71465
1.71469
1.71472
1.71474
1.71476
1.71476
1.71476
1.71475
1.71473
1.7147
1.71467
1.71463
1.71459
1.71454
1.71449
1.71444
1.71439
1.71433
1.71428
1.71422
1.71417
1.71412
1.71407
1.71402
1.71398
1.71394
1.7139
1.71387
1.71385
1.71382
1.71381
1.7138
1.71379
1.71378
1.71378
1.71378
1.71379
1.7138
1.71381
1.71383
1.71385
1.71387
1.7139
1.71392
1.71395
1.71398
1.71401
1.71404
1.71408
1.71411
1.71415
1.71419
1.71423
1.71427
1.71432
1.71436
1.71441
1.71446
1.71451
1.71457
1.71462
1.71468
1.71474
1.7148
1.71485
1.71492
1.71498
1.71504
1.71509
1.71515
1.7152
1.71525
1.71529
1.71533
1.71536
1.71538
1.71539
1.71539
1.71538
1.71535
1.71531
1.71526
1.71519
1.71511
1.71501
1.71489
1.71475
1.7146
1.71443
1.71424
1.71403
1.71381
1.71357
1.71331
1.71304
1.71275
1.71245
1.71214
1.71182
1.71149
1.71115
1.7108
1.71045
1.71009
1.70973
1.70937
1.70901
1.70865
1.70829
1.70794
1.70759
1.70725
1.70692
1.70659
1.70628
1.70598
1.70568
1.70541
1.70514
1.70489
1.70466
1.70444
1.70424
1.70405
1.70389
1.70374
1.70361
1.70349
1.7034
1.70333
1.70327
1.70324
1.70322
1.70323
1.70325
1.7033
1.70337
1.70345
1.70356
1.70369
1.70384
1.70401
1.70421
1.70442
1.70465
1.70491
1.70518
1.70547
1.70578
1.70611
1.70645
1.70681
1.70719
1.70758
1.70797
1.70838
1.7088
1.70922
1.70964
1.71007
1.7105
1.71092
1.71134
1.71176
1.71216
1.71256
1.71294
1.71331
1.71366
1.71399
1.71429
1.71458
1.71484
1.71507
1.71527
1.71545
1.71559
1.7157
1.71577
1.71581
1.71582
1.7158
1.71575
1.71567
1.71556
1.71543
1.71527
1.7151
1.71492
1.71473
1.71453
1.71433
1.71414
1.71395
1.71376
1.71359
1.71344
1.71329
1.71317
1.71305
1.71295
1.71286
1.71279
1.71271
1.71265
1.71258
1.71251
1.71244
1.71235
1.71226
1.71215
1.71202
1.71188
1.71171
1.71152
1.71131
1.71107
1.71081
1.71054
1.71024
1.70992
1.70959
1.70924
1.70888
1.70852
1.70815
1.70777
1.7074
1.70703
1.70666
1.7063
1.70595
1.70562
1.7053
1.705
1.70472
1.70446
1.70422
1.70401
1.70382
1.70365
1.70351
1.70339
1.7033
1.70324
1.70319
1.70317
1.70317
1.7032
1.70323
1.70329
1.70336
1.70345
1.70354
1.70365
1.70376
1.70388
1.704
1.70413
1.70426
1.70438
1.70451
1.70464
1.70476
1.70488
1.705
1.70511
1.70523
1.70534
1.70544
1.70555
1.70565
1.70576
1.70587
1.70597
1.70608
1.7062
1.70632
1.70644
1.70657
1.70671
1.70685
1.707
1.70716
1.70733
1.7075
1.70769
1.70788
1.70807
1.70828
1.70849
1.7087
1.70893
1.70915
1.70938
1.7096
1.70983
1.71006
1.71029
1.71051
1.71073
1.71095
1.71116
1.71136
1.71156
1.71175
1.71193
1.7121
1.71226
1.71241
1.71255
1.71268
1.7128
1.71291
1.713
1.71309
1.71317
1.71324
1.71329
1.71334
1.71338
1.71341
1.71343
1.71344
1.71345
1.71344
1.71344
1.71342
1.7134
1.71337
1.71334
1.7133
1.71326
1.71322
1.71317
1.71312
1.71307
1.71301
1.71296
1.7129
1.71284
1.71278
1.71272
1.71266
1.7126
1.71255
1.71249
1.71243
1.71238
1.71233
1.71228
1.71223
1.71218
1.71214
1.7121
1.71207
1.71203
1.71201
1.71198
1.71196
1.71195
1.71194
1.71193
1.71193
1.71193
1.71194
1.71196
1.71198
1.71201
1.71204
1.71208
1.71213
1.71218
1.71224
1.7123
1.71238
1.71245
1.71253
1.71262
1.71271
1.7128
1.7129
1.71301
1.71311
1.71322
1.71333
1.71344
1.71355
1.71366
1.71377
1.71387
1.71398
1.71407
1.71417
1.71426
1.71434
1.71442
1.71449
1.71455
1.71461
1.71465
1.71469
1.71472
1.71474
1.71475
1.71476
1.71476
1.71474
1.71473
1.7147
1.71467
1.71463
1.71459
1.71455
1.7145
1.71444
1.71439
1.71434
1.71428
1.71423
1.71417
1.71412
1.71407
1.71403
1.71398
1.71394
1.71391
1.71388
1.71385
1.71383
1.71381
1.7138
1.71378
1.71378
1.71378
1.71378
1.71378
1.71379
1.7138
1.71382
1.71384
1.71386
1.71388
1.71391
1.71393
1.71396
1.71399
1.71403
1.71406
1.7141
1.71413
1.71417
1.71421
1.71426
1.7143
1.71435
1.7144
1.71445
1.7145
1.71456
1.71461
1.71467
1.71473
1.71479
1.71485
1.71491
1.71497
1.71503
1.71509
1.71515
1.7152
1.71525
1.71529
1.71533
1.71536
1.71538
1.71539
1.71539
1.71538
1.71535
1.71531
1.71526
1.71519
1.71511
1.71501
1.71489
1.71476
1.71461
1.71444
1.71425
1.71404
1.71382
1.71358
1.71333
1.71306
1.71278
1.71248
1.71217
1.71185
1.71152
1.71119
1.71084
1.71049
1.71014
1.70978
1.70942
1.70906
1.7087
1.70834
1.70799
1.70764
1.7073
1.70697
1.70665
1.70634
1.70603
1.70574
1.70547
1.7052
1.70495
1.70472
1.7045
1.7043
1.70411
1.70395
1.7038
1.70366
1.70355
1.70346
1.70338
1.70333
1.70329
1.70328
1.70328
1.70331
1.70335
1.70342
1.7035
1.70361
1.70374
1.70389
1.70406
1.70425
1.70446
1.7047
1.70495
1.70522
1.70551
1.70582
1.70614
1.70649
1.70684
1.70722
1.7076
1.708
1.7084
1.70881
1.70923
1.70966
1.71008
1.71051
1.71093
1.71135
1.71176
1.71217
1.71256
1.71294
1.71331
1.71366
1.71399
1.71429
1.71458
1.71484
1.71507
1.71528
1.71545
1.7156
1.71571
1.71579
1.71583
1.71585
1.71583
1.71578
1.7157
1.7156
1.71547
1.71532
1.71515
1.71498
1.71479
1.71459
1.7144
1.7142
1.71402
1.71384
1.71367
1.71351
1.71337
1.71325
1.71313
1.71304
1.71295
1.71287
1.7128
1.71273
1.71267
1.7126
1.71253
1.71245
1.71235
1.71224
1.71212
1.71197
1.71181
1.71162
1.71141
1.71118
1.71092
1.71065
1.71035
1.71004
1.70971
1.70937
1.70901
1.70865
1.70828
1.70791
1.70754
1.70717
1.70681
1.70645
1.70611
1.70578
1.70547
1.70517
1.70489
1.70463
1.7044
1.70419
1.704
1.70383
1.70369
1.70358
1.70349
1.70343
1.70338
1.70336
1.70336
1.70338
1.70342
1.70348
1.70354
1.70363
1.70372
1.70382
1.70393
1.70405
1.70417
1.70429
1.70442
1.70455
1.70467
1.70479
1.70491
1.70503
1.70515
1.70526
1.70537
1.70548
1.70558
1.70569
1.70579
1.70589
1.70599
1.7061
1.70621
1.70632
1.70644
1.70656
1.70668
1.70682
1.70696
1.7071
1.70726
1.70742
1.70759
1.70777
1.70796
1.70815
1.70835
1.70855
1.70876
1.70898
1.7092
1.70942
1.70964
1.70986
1.71008
1.7103
1.71052
1.71074
1.71095
1.71115
1.71135
1.71154
1.71172
1.7119
1.71206
1.71222
1.71236
1.7125
1.71262
1.71274
1.71284
1.71294
1.71302
1.7131
1.71316
1.71321
1.71326
1.7133
1.71332
1.71334
1.71335
1.71336
1.71335
1.71334
1.71333
1.71331
1.71328
1.71325
1.71321
1.71317
1.71313
1.71308
1.71303
1.71298
1.71293
1.71287
1.71281
1.71276
1.7127
1.71264
1.71258
1.71252
1.71247
1.71241
1.71236
1.7123
1.71225
1.7122
1.71216
1.71211
1.71207
1.71204
1.712
1.71197
1.71195
1.71192
1.71191
1.71189
1.71189
1.71188
1.71188
1.71189
1.7119
1.71192
1.71195
1.71198
1.71202
1.71206
1.71211
1.71216
1.71222
1.71229
1.71236
1.71244
1.71252
1.71261
1.7127
1.7128
1.7129
1.71301
1.71311
1.71322
1.71333
1.71344
1.71355
1.71366
1.71377
1.71387
1.71398
1.71407
1.71417
1.71426
1.71434
1.71441
1.71448
1.71455
1.7146
1.71465
1.71468
1.71471
1.71474
1.71475
1.71475
1.71475
1.71474
1.71472
1.7147
1.71467
1.71463
1.71459
1.71455
1.7145
1.71445
1.71439
1.71434
1.71429
1.71423
1.71418
1.71413
1.71408
1.71403
1.71399
1.71395
1.71391
1.71388
1.71385
1.71383
1.71381
1.71379
1.71378
1.71377
1.71377
1.71377
1.71377
1.71378
1.71379
1.7138
1.71382
1.71384
1.71386
1.71388
1.71391
1.71394
1.71397
1.714
1.71404
1.71407
1.71411
1.71415
1.71419
1.71424
1.71428
1.71433
1.71438
1.71443
1.71449
1.71454
1.7146
1.71466
1.71472
1.71478
1.71484
1.71491
1.71497
1.71503
1.71509
1.71515
1.7152
1.71525
1.71529
1.71533
1.71536
1.71538
1.71539
1.71539
1.71538
1.71535
1.71532
1.71527
1.7152
1.71512
1.71502
1.7149
1.71477
1.71462
1.71445
1.71426
1.71406
1.71384
1.71361
1.71336
1.71309
1.71281
1.71251
1.71221
1.71189
1.71156
1.71123
1.71089
1.71054
1.71018
1.70983
1.70947
1.70911
1.70876
1.7084
1.70805
1.70771
1.70737
1.70704
1.70671
1.7064
1.7061
1.70581
1.70553
1.70527
1.70502
1.70478
1.70457
1.70436
1.70418
1.70401
1.70386
1.70373
1.70361
1.70352
1.70344
1.70338
1.70335
1.70333
1.70333
1.70335
1.7034
1.70346
1.70355
1.70365
1.70378
1.70393
1.70409
1.70428
1.70449
1.70472
1.70497
1.70524
1.70553
1.70584
1.70616
1.7065
1.70686
1.70723
1.70761
1.708
1.7084
1.70882
1.70923
1.70965
1.71008
1.7105
1.71092
1.71134
1.71175
1.71215
1.71255
1.71293
1.7133
1.71365
1.71398
1.71429
1.71458
1.71484
1.71507
1.71528
1.71546
1.71561
1.71572
1.71581
1.71586
1.71588
1.71586
1.71582
1.71574
1.71565
1.71552
1.71538
1.71521
1.71504
1.71485
1.71466
1.71447
1.71428
1.7141
1.71392
1.71375
1.7136
1.71346
1.71334
1.71323
1.71313
1.71304
1.71297
1.7129
1.71284
1.71277
1.71271
1.71263
1.71256
1.71246
1.71236
1.71223
1.71209
1.71193
1.71174
1.71153
1.71131
1.71105
1.71078
1.71049
1.71018
1.70985
1.70951
1.70916
1.7088
1.70844
1.70807
1.7077
1.70734
1.70698
1.70663
1.70629
1.70597
1.70565
1.70536
1.70509
1.70483
1.7046
1.70439
1.7042
1.70404
1.70391
1.70379
1.7037
1.70364
1.7036
1.70358
1.70358
1.70359
1.70363
1.70368
1.70375
1.70383
1.70392
1.70402
1.70413
1.70425
1.70436
1.70448
1.70461
1.70473
1.70485
1.70497
1.70509
1.7052
1.70531
1.70542
1.70553
1.70564
1.70574
1.70584
1.70594
1.70604
1.70614
1.70624
1.70635
1.70645
1.70657
1.70668
1.70681
1.70694
1.70707
1.70721
1.70736
1.70752
1.70769
1.70786
1.70804
1.70823
1.70842
1.70862
1.70882
1.70903
1.70924
1.70946
1.70967
1.70989
1.7101
1.71032
1.71053
1.71074
1.71094
1.71113
1.71133
1.71151
1.71169
1.71185
1.71201
1.71216
1.7123
1.71243
1.71256
1.71267
1.71277
1.71286
1.71294
1.71301
1.71307
1.71312
1.71316
1.7132
1.71322
1.71324
1.71325
1.71325
1.71325
1.71324
1.71322
1.7132
1.71317
1.71314
1.71311
1.71307
1.71302
1.71298
1.71293
1.71288
1.71282
1.71277
1.71271
1.71266
1.7126
1.71254
1.71249
1.71243
1.71238
1.71232
1.71227
1.71222
1.71217
1.71212
1.71208
1.71204
1.712
1.71196
1.71193
1.7119
1.71188
1.71186
1.71185
1.71183
1.71183
1.71183
1.71183
1.71184
1.71186
1.71188
1.71191
1.71195
1.71199
1.71203
1.71208
1.71214
1.71221
1.71228
1.71235
1.71243
1.71252
1.71261
1.7127
1.7128
1.71291
1.71301
1.71312
1.71323
1.71334
1.71345
1.71356
1.71367
1.71377
1.71388
1.71398
1.71408
1.71417
1.71426
1.71434
1.71441
1.71448
1.71454
1.7146
1.71464
1.71468
1.71471
1.71473
1.71474
1.71475
1.71474
1.71473
1.71472
1.71469
1.71466
1.71463
1.71459
1.71455
1.7145
1.71445
1.7144
1.71434
1.71429
1.71424
1.71418
1.71413
1.71408
1.71404
1.71399
1.71395
1.71392
1.71388
1.71385
1.71383
1.71381
1.71378
1.71377
1.71376
1.71375
1.71375
1.71375
1.71376
1.71377
1.71378
1.71379
1.71381
1.71383
1.71386
1.71388
1.71391
1.71394
1.71397
1.71401
1.71404
1.71408
1.71412
1.71417
1.71421
1.71426
1.71431
1.71436
1.71441
1.71447
1.71453
1.71459
1.71465
1.71471
1.71477
1.71484
1.7149
1.71496
1.71503
1.71508
1.71514
1.7152
1.71525
1.71529
1.71533
1.71536
1.71538
1.71539
1.71539
1.71538
1.71536
1.71532
1.71527
1.71521
1.71512
1.71503
1.71491
1.71478
1.71463
1.71447
1.71429
1.71409
1.71387
1.71364
1.71339
1.71312
1.71285
1.71255
1.71225
1.71194
1.71161
1.71128
1.71094
1.7106
1.71024
1.70989
1.70954
1.70918
1.70882
1.70847
1.70812
1.70778
1.70744
1.70711
1.70679
1.70648
1.70618
1.70589
1.70561
1.70535
1.7051
1.70487
1.70465
1.70444
1.70426
1.70409
1.70394
1.7038
1.70369
1.70359
1.70351
1.70346
1.70342
1.7034
1.7034
1.70342
1.70346
1.70353
1.70361
1.70372
1.70384
1.70399
1.70415
1.70434
1.70455
1.70478
1.70503
1.70529
1.70558
1.70588
1.7062
1.70654
1.70689
1.70726
1.70764
1.70803
1.70843
1.70884
1.70925
1.70967
1.71009
1.71051
1.71093
1.71135
1.71176
1.71216
1.71256
1.71294
1.7133
1.71366
1.71399
1.7143
1.71459
1.71486
1.71509
1.71531
1.71549
1.71564
1.71576
1.71585
1.7159
1.71592
1.71591
1.71587
1.71581
1.71571
1.71559
1.71545
1.71529
1.71512
1.71494
1.71476
1.71457
1.71438
1.7142
1.71402
1.71386
1.71371
1.71357
1.71345
1.71334
1.71325
1.71317
1.71309
1.71303
1.71296
1.7129
1.71284
1.71277
1.71269
1.7126
1.7125
1.71238
1.71224
1.71208
1.71189
1.71169
1.71146
1.71121
1.71095
1.71066
1.71035
1.71003
1.70969
1.70934
1.70899
1.70863
1.70827
1.70791
1.70755
1.70719
1.70685
1.70651
1.70619
1.70588
1.7056
1.70533
1.70508
1.70485
1.70464
1.70446
1.7043
1.70416
1.70405
1.70396
1.7039
1.70386
1.70384
1.70384
1.70385
1.70389
1.70394
1.70401
1.70408
1.70417
1.70427
1.70438
1.70449
1.7046
1.70472
1.70484
1.70496
1.70507
1.70519
1.7053
1.70541
1.70552
1.70563
1.70573
1.70583
1.70593
1.70603
1.70612
1.70622
1.70632
1.70642
1.70652
1.70662
1.70673
1.70684
1.70696
1.70708
1.70721
1.70735
1.70749
1.70765
1.70781
1.70797
1.70814
1.70832
1.70851
1.7087
1.7089
1.7091
1.7093
1.70951
1.70972
1.70992
1.71013
1.71033
1.71054
1.71074
1.71093
1.71112
1.7113
1.71148
1.71165
1.71181
1.71196
1.7121
1.71224
1.71236
1.71248
1.71258
1.71268
1.71276
1.71284
1.7129
1.71296
1.71301
1.71305
1.71308
1.7131
1.71312
1.71312
1.71312
1.71312
1.71311
1.71309
1.71307
1.71304
1.71301
1.71297
1.71293
1.71289
1.71284
1.7128
1.71275
1.71269
1.71264
1.71259
1.71253
1.71248
1.71242
1.71236
1.71231
1.71226
1.7122
1.71215
1.7121
1.71206
1.71201
1.71197
1.71193
1.71189
1.71186
1.71183
1.71181
1.71179
1.71177
1.71176
1.71175
1.71175
1.71175
1.71176
1.71178
1.7118
1.71182
1.71185
1.71189
1.71194
1.71199
1.71204
1.7121
1.71217
1.71225
1.71233
1.71241
1.7125
1.71259
1.71269
1.71279
1.71289
1.713
1.71311
1.71322
1.71333
1.71344
1.71355
1.71366
1.71377
1.71387
1.71397
1.71407
1.71416
1.71425
1.71433
1.7144
1.71447
1.71453
1.71458
1.71463
1.71467
1.71469
1.71472
1.71473
1.71473
1.71473
1.71472
1.71471
1.71468
1.71465
1.71462
1.71458
1.71454
1.71449
1.71445
1.7144
1.71434
1.71429
1.71424
1.71419
1.71414
1.71409
1.71404
1.71399
1.71395
1.71392
1.71388
1.71385
1.71382
1.7138
1.71377
1.71375
1.71374
1.71373
1.71373
1.71373
1.71373
1.71374
1.71375
1.71376
1.71378
1.71379
1.71382
1.71384
1.71387
1.7139
1.71393
1.71397
1.714
1.71404
1.71409
1.71413
1.71418
1.71422
1.71428
1.71433
1.71438
1.71444
1.7145
1.71456
1.71463
1.71469
1.71475
1.71482
1.71489
1.71495
1.71501
1.71507
1.71513
1.71519
1.71524
1.71528
1.71532
1.71535
1.71537
1.71539
1.71539
1.71538
1.71536
1.71532
1.71527
1.71521
1.71513
1.71504
1.71492
1.7148
1.71465
1.71449
1.71431
1.71411
1.7139
1.71367
1.71342
1.71316
1.71289
1.7126
1.7123
1.71199
1.71167
1.71134
1.711
1.71066
1.71031
1.70996
1.70961
1.70925
1.7089
1.70855
1.7082
1.70786
1.70752
1.7072
1.70688
1.70657
1.70626
1.70598
1.7057
1.70544
1.70519
1.70495
1.70473
1.70453
1.70434
1.70417
1.70402
1.70388
1.70376
1.70366
1.70358
1.70352
1.70348
1.70346
1.70346
1.70348
1.70352
1.70358
1.70366
1.70376
1.70388
1.70403
1.70419
1.70438
1.70458
1.70481
1.70505
1.70532
1.7056
1.70591
1.70622
1.70656
1.70691
1.70727
1.70765
1.70804
1.70844
1.70884
1.70925
1.70967
1.71009
1.71051
1.71093
1.71135
1.71175
1.71216
1.71255
1.71293
1.7133
1.71366
1.71399
1.71431
1.7146
1.71487
1.71511
1.71532
1.71551
1.71567
1.71579
1.71588
1.71594
1.71597
1.71597
1.71593
1.71587
1.71578
1.71567
1.71553
1.71538
1.71521
1.71503
1.71485
1.71467
1.71448
1.71431
1.71414
1.71398
1.71383
1.7137
1.71358
1.71347
1.71338
1.7133
1.71323
1.71316
1.7131
1.71304
1.71298
1.71292
1.71284
1.71275
1.71265
1.71253
1.7124
1.71224
1.71206
1.71186
1.71164
1.71139
1.71112
1.71084
1.71054
1.71022
1.70989
1.70954
1.70919
1.70884
1.70848
1.70812
1.70777
1.70742
1.70708
1.70675
1.70643
1.70613
1.70585
1.70558
1.70534
1.70511
1.70491
1.70473
1.70457
1.70444
1.70433
1.70424
1.70418
1.70414
1.70412
1.70411
1.70413
1.70416
1.70421
1.70428
1.70435
1.70444
1.70453
1.70463
1.70474
1.70485
1.70496
1.70508
1.70519
1.70531
1.70542
1.70553
1.70564
1.70574
1.70584
1.70594
1.70604
1.70613
1.70623
1.70632
1.70641
1.7065
1.7066
1.70669
1.70679
1.70689
1.707
1.70711
1.70723
1.70736
1.70749
1.70762
1.70777
1.70792
1.70808
1.70825
1.70842
1.7086
1.70878
1.70897
1.70916
1.70936
1.70955
1.70975
1.70995
1.71015
1.71034
1.71054
1.71073
1.71091
1.71109
1.71127
1.71144
1.7116
1.71175
1.7119
1.71203
1.71216
1.71228
1.71238
1.71248
1.71257
1.71265
1.71272
1.71278
1.71284
1.71288
1.71292
1.71295
1.71297
1.71298
1.71298
1.71298
1.71298
1.71296
1.71295
1.71292
1.7129
1.71286
1.71283
1.71279
1.71275
1.7127
1.71265
1.7126
1.71255
1.7125
1.71245
1.71239
1.71234
1.71229
1.71223
1.71218
1.71213
1.71208
1.71203
1.71198
1.71194
1.71189
1.71185
1.71182
1.71178
1.71175
1.71173
1.71171
1.71169
1.71167
1.71167
1.71166
1.71167
1.71167
1.71169
1.7117
1.71173
1.71176
1.7118
1.71184
1.71189
1.71194
1.712
1.71207
1.71214
1.71222
1.7123
1.71239
1.71248
1.71258
1.71268
1.71278
1.71289
1.71299
1.7131
1.71321
1.71333
1.71344
1.71355
1.71366
1.71376
1.71387
1.71397
1.71406
1.71416
1.71424
1.71432
1.71439
1.71446
1.71452
1.71457
1.71461
1.71465
1.71468
1.7147
1.71471
1.71472
1.71472
1.71471
1.71469
1.71467
1.71464
1.71461
1.71457
1.71453
1.71449
1.71444
1.71439
1.71434
1.71429
1.71424
1.71418
1.71414
1.71408
1.71404
1.71399
1.71395
1.71391
1.71388
1.71384
1.71381
1.71379
1.71375
1.71373
1.71371
1.7137
1.7137
1.71369
1.71369
1.7137
1.7137
1.71372
1.71373
1.71375
1.71377
1.71379
1.71382
1.71385
1.71388
1.71392
1.71396
1.71399
1.71404
1.71408
1.71413
1.71418
1.71423
1.71429
1.71435
1.71441
1.71447
1.71453
1.7146
1.71466
1.71473
1.7148
1.71487
1.71493
1.715
1.71506
1.71512
1.71518
1.71523
1.71527
1.71531
1.71535
1.71537
1.71538
1.71539
1.71538
1.71536
1.71533
1.71528
1.71522
1.71514
1.71505
1.71494
1.71481
1.71467
1.71451
1.71433
1.71414
1.71393
1.7137
1.71346
1.7132
1.71293
1.71265
1.71235
1.71205
1.71173
1.7114
1.71107
1.71073
1.71038
1.71004
1.70969
1.70934
1.70899
1.70864
1.70829
1.70795
1.70762
1.70729
1.70697
1.70667
1.70637
1.70608
1.7058
1.70554
1.70529
1.70505
1.70483
1.70463
1.70444
1.70427
1.70411
1.70398
1.70386
1.70376
1.70368
1.70362
1.70357
1.70355
1.70355
1.70357
1.7036
1.70366
1.70374
1.70384
1.70396
1.7041
1.70426
1.70445
1.70465
1.70488
1.70512
1.70538
1.70566
1.70596
1.70628
1.70661
1.70696
1.70732
1.70769
1.70808
1.70847
1.70887
1.70928
1.7097
1.71011
1.71053
1.71095
1.71137
1.71177
1.71218
1.71257
1.71295
1.71332
1.71368
1.71401
1.71433
1.71463
1.7149
1.71514
1.71536
1.71555
1.71571
1.71584
1.71594
1.71601
1.71604
1.71604
1.71601
1.71595
1.71587
1.71576
1.71563
1.71548
1.71532
1.71515
1.71497
1.71479
1.71461
1.71444
1.71427
1.71411
1.71397
1.71384
1.71372
1.71362
1.71353
1.71345
1.71339
1.71332
1.71327
1.71321
1.71316
1.71309
1.71302
1.71293
1.71284
1.71272
1.71259
1.71243
1.71226
1.71206
1.71184
1.71159
1.71133
1.71105
1.71075
1.71044
1.71011
1.70977
1.70943
1.70908
1.70873
1.70837
1.70803
1.70768
1.70735
1.70702
1.70671
1.70642
1.70614
1.70588
1.70564
1.70542
1.70522
1.70504
1.70489
1.70476
1.70465
1.70456
1.7045
1.70446
1.70444
1.70443
1.70445
1.70448
1.70453
1.70459
1.70466
1.70474
1.70484
1.70493
1.70504
1.70514
1.70525
1.70536
1.70547
1.70558
1.70569
1.70579
1.7059
1.706
1.70609
1.70619
1.70628
1.70637
1.70646
1.70654
1.70663
1.70672
1.7068
1.70689
1.70699
1.70708
1.70718
1.70729
1.7074
1.70752
1.70764
1.70777
1.70791
1.70806
1.70821
1.70836
1.70853
1.7087
1.70887
1.70905
1.70923
1.70942
1.7096
1.70979
1.70998
1.71017
1.71036
1.71054
1.71072
1.7109
1.71107
1.71123
1.71139
1.71154
1.71169
1.71182
1.71195
1.71207
1.71218
1.71228
1.71237
1.71245
1.71253
1.71259
1.71265
1.7127
1.71274
1.71277
1.71279
1.71281
1.71282
1.71282
1.71282
1.71281
1.71279
1.71278
1.71275
1.71272
1.71269
1.71265
1.71261
1.71257
1.71253
1.71248
1.71243
1.71238
1.71233
1.71228
1.71223
1.71218
1.71212
1.71207
1.71202
1.71197
1.71192
1.71188
1.71183
1.71179
1.71175
1.71171
1.71168
1.71165
1.71162
1.7116
1.71158
1.71156
1.71155
1.71155
1.71155
1.71156
1.71157
1.71158
1.71161
1.71164
1.71167
1.71171
1.71176
1.71181
1.71187
1.71194
1.71201
1.71209
1.71217
1.71225
1.71235
1.71244
1.71254
1.71265
1.71275
1.71286
1.71297
1.71308
1.71319
1.71331
1.71342
1.71353
1.71364
1.71375
1.71385
1.71395
1.71404
1.71413
1.71422
1.7143
1.71437
1.71444
1.71449
1.71455
1.71459
1.71463
1.71465
1.71468
1.71469
1.7147
1.71469
1.71469
1.71467
1.71465
1.71462
1.71459
1.71456
1.71452
1.71447
1.71443
1.71438
1.71433
1.71428
1.71423
1.71418
1.71413
1.71408
1.71403
1.71398
1.71394
1.7139
1.71386
1.71383
1.7138
1.71377
1.71371
1.71369
1.71368
1.71366
1.71365
1.71365
1.71364
1.71365
1.71365
1.71366
1.71367
1.71369
1.71371
1.71373
1.71376
1.71379
1.71382
1.71385
1.71389
1.71393
1.71398
1.71402
1.71407
1.71413
1.71418
1.71424
1.7143
1.71436
1.71442
1.71449
1.71456
1.71463
1.71469
1.71476
1.71483
1.7149
1.71497
1.71503
1.7151
1.71515
1.71521
1.71526
1.7153
1.71533
1.71535
1.71537
1.71538
1.71537
1.71535
1.71532
1.71528
1.71522
1.71514
1.71505
1.71494
1.71482
1.71468
1.71453
1.71435
1.71416
1.71396
1.71373
1.7135
1.71324
1.71298
1.7127
1.7124
1.7121
1.71179
1.71147
1.71114
1.7108
1.71046
1.71012
1.70977
1.70942
1.70907
1.70873
1.70839
1.70805
1.70772
1.70739
1.70707
1.70677
1.70647
1.70618
1.7059
1.70564
1.70539
1.70515
1.70493
1.70473
1.70454
1.70436
1.70421
1.70407
1.70395
1.70384
1.70376
1.70369
1.70365
1.70362
1.70361
1.70363
1.70366
1.70372
1.70379
1.70389
1.70401
1.70415
1.70431
1.70449
1.70469
1.70491
1.70515
1.70541
1.70569
1.70599
1.7063
1.70663
1.70698
1.70734
1.70771
1.70809
1.70848
1.70889
1.70929
1.70971
1.71012
1.71054
1.71096
1.71137
1.71178
1.71218
1.71258
1.71296
1.71333
1.71369
1.71403
1.71435
1.71465
1.71492
1.71517
1.7154
1.71559
1.71576
1.71589
1.716
1.71607
1.71611
1.71612
1.71609
1.71604
1.71596
1.71586
1.71573
1.71559
1.71544
1.71527
1.71509
1.71492
1.71474
1.71457
1.71441
1.71426
1.71412
1.71399
1.71388
1.71378
1.71369
1.71362
1.71356
1.7135
1.71344
1.71339
1.71334