# vtk DataFile Version 2.0
LBE two cylinders
ASCII
DATASET STRUCTURED_POINTS
DIMENSIONS 400 100 1
ASPECT_RATIO 1 1 1
ORIGIN 0 0 0
POINT_DATA 40000
SCALARS rho double 1
LOOKUP_TABLE default
1.09092
1.09094
1.09096
1.09097
1.09098
1.09098
1.09096
1.09092
1.09087
1.0908
1.09072
1.09062
1.0905
1.09037
1.09022
1.09006
1.08989
1.08971
1.08952
1.08933
1.08913
1.08893
1.08872
1.08852
1.08833
1.08813
1.08795
1.08777
1.08761
1.08745
1.0873
1.08716
1.08704
1.08692
1.0868
1.0867
1.0866
1.0865
1.08641
1.08633
1.08625
1.08618
1.08612
1.08608
1.08605
1.08604
1.08605
1.08608
1.08613
1.08621
1.08632
1.08645
1.08662
1.08681
1.08702
1.08726
1.08753
1.08781
1.08812
1.08844
1.08878
1.08913
1.0895
1.08988
1.09026
1.09066
1.09106
1.09147
1.09189
1.09231
1.09274
1.09318
1.09362
1.09407
1.09452
1.09497
1.09544
1.0959
1.09637
1.09685
1.09732
1.0978
1.09828
1.09876
1.09924
1.09971
1.10018
1.10064
1.10109
1.10152
1.10194
1.10234
1.10273
1.10308
1.10342
1.10372
1.104
1.10425
1.10447
1.10466
1.10481
1.10494
1.10503
1.1051
1.10513
1.10514
1.10512
1.10508
1.10501
1.10491
1.1048
1.10466
1.1045
1.10432
1.10412
1.10391
1.10368
1.10343
1.10317
1.10291
1.10263
1.10235
1.10207
1.10179
1.10151
1.10125
1.101
1.10076
1.10055
1.10036
1.10019
1.10005
1.09994
1.09985
1.09979
1.09975
1.09973
1.09973
1.09974
1.09976
1.09979
1.09982
1.09986
1.09989
1.09992
1.09994
1.09996
1.09998
1.09999
1.09999
1.1
1.1
1.10001
1.10002
1.10003
1.10005
1.10008
1.10011
1.10016
1.10021
1.10028
1.10035
1.10043
1.10051
1.1006
1.10069
1.1008
1.1009
1.10102
1.10116
1.1013
1.10147
1.10167
1.1019
1.10217
1.10248
1.10284
1.10325
1.10371
1.10422
1.10477
1.10537
1.10601
1.10668
1.10736
1.10806
1.10875
1.10943
1.11009
1.11071
1.11129
1.11182
1.1123
1.11272
1.11308
1.11338
1.11362
1.1138
1.11394
1.11403
1.11408
1.1141
1.11409
1.11407
1.11403
1.11399
1.11395
1.11391
1.11388
1.11387
1.11387
1.11389
1.11393
1.11399
1.11408
1.11419
1.11432
1.11447
1.11465
1.11485
1.11507
1.11531
1.11558
1.11586
1.11616
1.11649
1.11682
1.11718
1.11755
1.11793
1.11833
1.11873
1.11916
1.11959
1.12003
1.12048
1.12094
1.1214
1.12187
1.12234
1.12282
1.12329
1.12376
1.12423
1.12468
1.12511
1.12553
1.12592
1.12628
1.12659
1.12686
1.12706
1.1272
1.12727
1.12724
1.12711
1.12686
1.12649
1.12598
1.12532
1.1245
1.12351
1.12234
1.121
1.11949
1.1178
1.11595
1.11396
1.11185
1.10963
1.10734
1.10501
1.10267
1.10035
1.09808
1.0959
1.09382
1.09187
1.09006
1.08842
1.08695
1.08564
1.08451
1.08355
1.08276
1.08212
1.08163
1.08127
1.08104
1.08092
1.0809
1.08097
1.08113
1.08136
1.08165
1.08199
1.08238
1.08282
1.08329
1.08378
1.08431
1.08485
1.08542
1.086
1.08659
1.0872
1.08781
1.08844
1.08907
1.08972
1.09037
1.09103
1.09169
1.09236
1.09303
1.0937
1.09437
1.09504
1.09571
1.09636
1.09701
1.09765
1.09827
1.09888
1.09947
1.10004
1.1006
1.10114
1.10167
1.10218
1.10269
1.10318
1.10366
1.10414
1.10461
1.10507
1.10553
1.106
1.10646
1.10692
1.10737
1.10783
1.10829
1.10875
1.1092
1.10965
1.1101
1.11054
1.11097
1.11139
1.11179
1.11217
1.11253
1.11286
1.11314
1.11336
1.11351
1.11357
1.11349
1.11327
1.11285
1.11219
1.11126
1.11001
1.10842
1.10647
1.10415
1.1015
1.09857
1.09544
1.0922
1.08896
1.08582
1.08288
1.08023
1.07791
1.07597
1.07439
1.07319
1.07232
1.07174
1.07141
1.07123
1.07114
1.071
1.07068
1.07001
1.06878
1.06679
1.06386
1.05987
1.05485
1.04893
1.04239
1.03562
1.02901
1.02288
1.01745
1.0128
1.00905
1.09091
1.09093
1.09095
1.09096
1.09096
1.09095
1.09093
1.09089
1.09084
1.09077
1.09068
1.09058
1.09046
1.09033
1.09019
1.09003
1.08986
1.08969
1.0895
1.08931
1.08911
1.08891
1.08871
1.08851
1.08832
1.08813
1.08794
1.08777
1.0876
1.08744
1.08729
1.08716
1.08702
1.0869
1.08679
1.08668
1.08657
1.08648
1.08639
1.08631
1.08623
1.08617
1.08611
1.08607
1.08605
1.08604
1.08606
1.08609
1.08615
1.08624
1.08635
1.08649
1.08665
1.08684
1.08706
1.0873
1.08756
1.08784
1.08815
1.08847
1.0888
1.08915
1.08952
1.08989
1.09027
1.09066
1.09106
1.09147
1.09189
1.09231
1.09274
1.09317
1.09361
1.09406
1.09451
1.09496
1.09542
1.09588
1.09635
1.09682
1.09729
1.09777
1.09824
1.09872
1.09919
1.09966
1.10012
1.10058
1.10102
1.10145
1.10186
1.10226
1.10264
1.10299
1.10332
1.10362
1.1039
1.10414
1.10436
1.10454
1.1047
1.10483
1.10492
1.10499
1.10502
1.10503
1.10502
1.10498
1.10491
1.10482
1.1047
1.10457
1.10441
1.10424
1.10405
1.10384
1.10361
1.10337
1.10312
1.10285
1.10258
1.10231
1.10203
1.10176
1.10149
1.10123
1.10098
1.10075
1.10054
1.10036
1.10019
1.10005
1.09994
1.09985
1.09979
1.09974
1.09972
1.09972
1.09973
1.09974
1.09977
1.0998
1.09984
1.09987
1.0999
1.09992
1.09994
1.09996
1.09997
1.09998
1.09999
1.09999
1.1
1.10001
1.10003
1.10005
1.10008
1.10012
1.10016
1.10022
1.10028
1.10035
1.10043
1.10051
1.1006
1.1007
1.1008
1.10091
1.10104
1.10117
1.10132
1.1015
1.1017
1.10193
1.1022
1.10251
1.10286
1.10327
1.10372
1.10423
1.10477
1.10537
1.10599
1.10665
1.10732
1.108
1.10869
1.10936
1.11001
1.11062
1.1112
1.11173
1.11221
1.11263
1.11299
1.1133
1.11355
1.11374
1.11389
1.11399
1.11405
1.11408
1.11408
1.11407
1.11404
1.114
1.11397
1.11394
1.11392
1.11391
1.11391
1.11393
1.11398
1.11404
1.11413
1.11423
1.11436
1.11452
1.1147
1.11489
1.11511
1.11536
1.11562
1.1159
1.1162
1.11652
1.11686
1.11721
1.11758
1.11796
1.11835
1.11876
1.11918
1.1196
1.12004
1.12049
1.12094
1.12139
1.12186
1.12232
1.12278
1.12324
1.1237
1.12414
1.12458
1.12499
1.12538
1.12574
1.12607
1.12635
1.12658
1.12675
1.12684
1.12686
1.12679
1.12661
1.12632
1.12591
1.12536
1.12467
1.12382
1.12282
1.12166
1.12034
1.11886
1.11722
1.11544
1.11354
1.11152
1.10941
1.10723
1.10502
1.10279
1.10058
1.09841
1.09631
1.0943
1.0924
1.09063
1.08901
1.08754
1.08622
1.08507
1.08409
1.08326
1.08258
1.08204
1.08164
1.08137
1.08121
1.08115
1.08119
1.08132
1.08151
1.08178
1.0821
1.08247
1.08288
1.08334
1.08382
1.08433
1.08487
1.08543
1.086
1.08659
1.08719
1.0878
1.08843
1.08906
1.0897
1.09035
1.091
1.09166
1.09233
1.093
1.09367
1.09434
1.095
1.09567
1.09632
1.09697
1.0976
1.09822
1.09883
1.09942
1.09999
1.10055
1.1011
1.10162
1.10214
1.10264
1.10313
1.10362
1.10409
1.10456
1.10503
1.10549
1.10595
1.10641
1.10687
1.10732
1.10778
1.10824
1.10869
1.10914
1.10958
1.11003
1.11046
1.11088
1.11129
1.11169
1.11206
1.11241
1.11272
1.11298
1.11318
1.1133
1.11333
1.11322
1.11296
1.1125
1.11182
1.11087
1.10961
1.10804
1.10612
1.10387
1.10132
1.0985
1.09549
1.09237
1.08923
1.08618
1.0833
1.08066
1.07834
1.07636
1.07474
1.07346
1.07252
1.07186
1.07143
1.07116
1.07095
1.0707
1.07027
1.06949
1.06818
1.06617
1.0633
1.05948
1.0547
1.04908
1.04283
1.03629
1.0298
1.0237
1.01823
1.0135
1.00953
1.0909
1.09092
1.09093
1.09093
1.09093
1.09091
1.09088
1.09084
1.09079
1.09072
1.09063
1.09053
1.09041
1.09028
1.09014
1.08999
1.08982
1.08965
1.08947
1.08928
1.08909
1.08889
1.08869
1.0885
1.08831
1.08812
1.08793
1.08776
1.08759
1.08743
1.08728
1.08713
1.087
1.08687
1.08675
1.08663
1.08653
1.08643
1.08634
1.08625
1.08618
1.08612
1.08607
1.08604
1.08602
1.08602
1.08604
1.08609
1.08616
1.08625
1.08637
1.08651
1.08668
1.08687
1.08709
1.08733
1.08759
1.08787
1.08817
1.08849
1.08882
1.08917
1.08952
1.08989
1.09027
1.09066
1.09106
1.09146
1.09187
1.09229
1.09272
1.09315
1.09359
1.09403
1.09448
1.09493
1.09539
1.09585
1.09631
1.09678
1.09725
1.09772
1.09819
1.09866
1.09913
1.0996
1.10006
1.10051
1.10095
1.10138
1.10179
1.10218
1.10255
1.10291
1.10323
1.10353
1.10381
1.10405
1.10426
1.10445
1.1046
1.10473
1.10482
1.10489
1.10493
1.10494
1.10492
1.10488
1.10481
1.10472
1.10461
1.10448
1.10432
1.10415
1.10396
1.10375
1.10353
1.10329
1.10304
1.10279
1.10252
1.10225
1.10198
1.10171
1.10145
1.1012
1.10096
1.10073
1.10053
1.10034
1.10018
1.10004
1.09993
1.09984
1.09978
1.09973
1.09971
1.0997
1.0997
1.09972
1.09974
1.09977
1.0998
1.09983
1.09986
1.09989
1.09991
1.09993
1.09994
1.09995
1.09996
1.09997
1.09998
1.1
1.10002
1.10004
1.10007
1.10011
1.10016
1.10021
1.10027
1.10035
1.10042
1.10051
1.1006
1.1007
1.10081
1.10092
1.10104
1.10118
1.10134
1.10152
1.10172
1.10195
1.10222
1.10253
1.10289
1.10329
1.10374
1.10423
1.10477
1.10535
1.10597
1.10661
1.10727
1.10794
1.10861
1.10927
1.10991
1.11052
1.11109
1.11162
1.1121
1.11253
1.11289
1.11321
1.11346
1.11367
1.11382
1.11394
1.11401
1.11405
1.11407
1.11407
1.11405
1.11403
1.11401
1.11399
1.11397
1.11397
1.11398
1.11401
1.11405
1.11412
1.11421
1.11432
1.11445
1.1146
1.11478
1.11498
1.1152
1.11544
1.1157
1.11598
1.11628
1.11659
1.11693
1.11728
1.11764
1.11802
1.11841
1.11881
1.11923
1.11965
1.12008
1.12052
1.12096
1.1214
1.12185
1.12229
1.12274
1.12317
1.1236
1.12402
1.12441
1.12479
1.12513
1.12544
1.12571
1.12594
1.1261
1.1262
1.12622
1.12616
1.12601
1.12575
1.12539
1.1249
1.12429
1.12354
1.12266
1.12164
1.12048
1.11919
1.11776
1.1162
1.11453
1.11276
1.1109
1.10896
1.10697
1.10495
1.10291
1.10088
1.09887
1.09691
1.09502
1.09322
1.09152
1.08994
1.08849
1.08717
1.086
1.08498
1.08409
1.08336
1.08276
1.08229
1.08195
1.08172
1.0816
1.08158
1.08165
1.0818
1.08202
1.0823
1.08263
1.08302
1.08344
1.0839
1.0844
1.08492
1.08546
1.08602
1.0866
1.0872
1.0878
1.08842
1.08905
1.08968
1.09033
1.09098
1.09164
1.0923
1.09297
1.09363
1.0943
1.09496
1.09562
1.09628
1.09692
1.09755
1.09817
1.09878
1.09937
1.09994
1.1005
1.10105
1.10158
1.10209
1.1026
1.10309
1.10357
1.10405
1.10452
1.10498
1.10545
1.1059
1.10636
1.10682
1.10727
1.10772
1.10817
1.10862
1.10907
1.10951
1.10994
1.11037
1.11078
1.11119
1.11157
1.11193
1.11226
1.11255
1.11279
1.11296
1.11305
1.11303
1.11289
1.11258
1.11209
1.11137
1.11039
1.10913
1.10757
1.1057
1.10353
1.10107
1.09838
1.09551
1.09252
1.08951
1.08656
1.08374
1.08114
1.07882
1.0768
1.07512
1.07378
1.07274
1.07199
1.07146
1.07108
1.07078
1.07043
1.06991
1.06906
1.06772
1.06574
1.06296
1.05931
1.05474
1.04934
1.04331
1.03692
1.03051
1.02441
1.01887
1.01404
1.0099
1.0909
1.0909
1.0909
1.09089
1.09088
1.09086
1.09082
1.09078
1.09072
1.09065
1.09056
1.09046
1.09035
1.09022
1.09008
1.08993
1.08977
1.0896
1.08942
1.08924
1.08905
1.08886
1.08867
1.08848
1.08829
1.0881
1.08792
1.08774
1.08757
1.0874
1.08725
1.08709
1.08695
1.08681
1.08669
1.08656
1.08645
1.08634
1.08625
1.08617
1.08609
1.08603
1.08599
1.08597
1.08596
1.08597
1.086
1.08606
1.08614
1.08624
1.08637
1.08652
1.08669
1.08689
1.08711
1.08735
1.08761
1.08789
1.08819
1.0885
1.08883
1.08917
1.08952
1.08989
1.09026
1.09065
1.09104
1.09144
1.09185
1.09226
1.09268
1.09311
1.09355
1.09399
1.09443
1.09488
1.09533
1.09579
1.09625
1.09672
1.09719
1.09766
1.09813
1.0986
1.09906
1.09952
1.09998
1.10043
1.10087
1.10129
1.1017
1.1021
1.10247
1.10282
1.10314
1.10344
1.10372
1.10396
1.10417
1.10436
1.10451
1.10464
1.10473
1.10479
1.10483
1.10484
1.10482
1.10478
1.10471
1.10462
1.10451
1.10438
1.10422
1.10405
1.10386
1.10365
1.10343
1.1032
1.10295
1.1027
1.10244
1.10218
1.10191
1.10165
1.1014
1.10115
1.10092
1.1007
1.1005
1.10032
1.10017
1.10003
1.09992
1.09983
1.09976
1.09971
1.09969
1.09967
1.09967
1.09969
1.09971
1.09973
1.09976
1.09979
1.09982
1.09984
1.09986
1.09988
1.0999
1.09991
1.09993
1.09994
1.09995
1.09997
1.09999
1.10002
1.10005
1.10009
1.10014
1.1002
1.10026
1.10033
1.10041
1.1005
1.10059
1.10069
1.1008
1.10092
1.10105
1.10119
1.10135
1.10153
1.10174
1.10197
1.10224
1.10255
1.10291
1.10331
1.10375
1.10424
1.10477
1.10534
1.10594
1.10657
1.10722
1.10787
1.10853
1.10918
1.10981
1.11041
1.11098
1.1115
1.11198
1.11241
1.11278
1.1131
1.11336
1.11358
1.11375
1.11388
1.11397
1.11403
1.11406
1.11407
1.11407
1.11407
1.11406
1.11405
1.11405
1.11405
1.11407
1.11411
1.11416
1.11423
1.11432
1.11443
1.11457
1.11472
1.1149
1.1151
1.11532
1.11556
1.11582
1.11609
1.11639
1.11671
1.11704
1.11738
1.11775
1.11812
1.11851
1.1189
1.11931
1.11972
1.12014
1.12056
1.12099
1.12142
1.12184
1.12226
1.12268
1.12308
1.12347
1.12383
1.12418
1.12449
1.12478
1.12501
1.12521
1.12534
1.12541
1.12541
1.12533
1.12517
1.12491
1.12454
1.12408
1.1235
1.1228
1.12199
1.12106
1.12002
1.11887
1.11762
1.11626
1.11481
1.11329
1.11169
1.11003
1.10831
1.10656
1.10478
1.10299
1.10119
1.09941
1.09765
1.09593
1.09426
1.09267
1.09116
1.08975
1.08844
1.08726
1.08619
1.08525
1.08444
1.08376
1.08321
1.08278
1.08246
1.08226
1.08215
1.08214
1.08222
1.08237
1.0826
1.08288
1.08322
1.08361
1.08404
1.0845
1.085
1.08552
1.08607
1.08663
1.08722
1.08781
1.08843
1.08905
1.08968
1.09032
1.09097
1.09162
1.09228
1.09294
1.09361
1.09427
1.09493
1.09559
1.09624
1.09688
1.09751
1.09813
1.09873
1.09932
1.0999
1.10046
1.101
1.10153
1.10205
1.10255
1.10305
1.10353
1.10401
1.10448
1.10494
1.1054
1.10586
1.10631
1.10677
1.10722
1.10767
1.10811
1.10856
1.109
1.10943
1.10986
1.11028
1.11068
1.11107
1.11145
1.11179
1.1121
1.11237
1.11258
1.11272
1.11277
1.11271
1.11252
1.11216
1.11161
1.11084
1.10983
1.10855
1.10699
1.10516
1.10306
1.10072
1.09816
1.09544
1.09262
1.08976
1.08693
1.08422
1.08167
1.07936
1.07733
1.0756
1.07418
1.07306
1.0722
1.07157
1.0711
1.07069
1.07025
1.06965
1.06874
1.06738
1.06541
1.06269
1.05915
1.05474
1.04953
1.04367
1.03743
1.03111
1.02503
1.01944
1.0145
1.01024
1.09089
1.09088
1.09086
1.09085
1.09083
1.0908
1.09075
1.0907
1.09064
1.09057
1.09048
1.09038
1.09027
1.09014
1.09001
1.08986
1.08971
1.08954
1.08937
1.08919
1.08901
1.08883
1.08864
1.08845
1.08826
1.08807
1.08789
1.08771
1.08753
1.08736
1.0872
1.08704
1.08689
1.08674
1.0866
1.08647
1.08635
1.08623
1.08613
1.08605
1.08598
1.08592
1.08589
1.08587
1.08587
1.0859
1.08594
1.08601
1.0861
1.08622
1.08636
1.08651
1.0867
1.0869
1.08712
1.08737
1.08763
1.08791
1.0882
1.08851
1.08883
1.08917
1.08952
1.08988
1.09024
1.09062
1.09101
1.0914
1.09181
1.09222
1.09263
1.09306
1.09349
1.09392
1.09436
1.09481
1.09526
1.09572
1.09618
1.09664
1.0971
1.09757
1.09804
1.0985
1.09897
1.09943
1.09989
1.10033
1.10077
1.1012
1.10161
1.102
1.10238
1.10273
1.10305
1.10336
1.10363
1.10387
1.10409
1.10427
1.10442
1.10455
1.10464
1.1047
1.10473
1.10474
1.10472
1.10467
1.1046
1.10451
1.1044
1.10426
1.10411
1.10393
1.10374
1.10354
1.10332
1.10309
1.10284
1.10259
1.10234
1.10208
1.10183
1.10157
1.10133
1.10109
1.10087
1.10066
1.10046
1.10029
1.10014
1.10001
1.0999
1.09981
1.09974
1.09969
1.09966
1.09964
1.09964
1.09964
1.09966
1.09968
1.0997
1.09973
1.09975
1.09978
1.0998
1.09982
1.09984
1.09986
1.09987
1.09989
1.09991
1.09993
1.09995
1.09998
1.10002
1.10006
1.10011
1.10017
1.10024
1.10031
1.10039
1.10048
1.10057
1.10068
1.10079
1.10091
1.10104
1.10119
1.10135
1.10154
1.10175
1.10199
1.10226
1.10257
1.10293
1.10332
1.10376
1.10424
1.10476
1.10532
1.10591
1.10653
1.10716
1.1078
1.10845
1.10908
1.1097
1.11029
1.11085
1.11137
1.11184
1.11227
1.11265
1.11298
1.11325
1.11348
1.11367
1.11381
1.11392
1.114
1.11405
1.11408
1.1141
1.11411
1.11412
1.11413
1.11414
1.11416
1.11419
1.11423
1.11429
1.11437
1.11447
1.11459
1.11472
1.11488
1.11506
1.11525
1.11547
1.11571
1.11597
1.11625
1.11654
1.11685
1.11718
1.11753
1.11788
1.11825
1.11863
1.11902
1.11941
1.11981
1.12022
1.12062
1.12103
1.12143
1.12182
1.12221
1.12258
1.12293
1.12326
1.12357
1.12385
1.12408
1.12428
1.12442
1.12451
1.12454
1.12449
1.12437
1.12416
1.12387
1.12348
1.12299
1.12241
1.12173
1.12095
1.12008
1.11911
1.11806
1.11694
1.11574
1.11448
1.11317
1.11181
1.11041
1.10898
1.10752
1.10604
1.10454
1.10302
1.10149
1.09996
1.09844
1.09693
1.09544
1.09399
1.09258
1.09124
1.08996
1.08877
1.08768
1.08668
1.0858
1.08503
1.08438
1.08385
1.08343
1.08312
1.08291
1.08281
1.08279
1.08287
1.08302
1.08323
1.08351
1.08385
1.08424
1.08466
1.08513
1.08562
1.08614
1.08669
1.08726
1.08785
1.08845
1.08906
1.08968
1.09032
1.09096
1.09161
1.09227
1.09292
1.09358
1.09424
1.0949
1.09555
1.0962
1.09684
1.09747
1.09808
1.09869
1.09927
1.09985
1.10041
1.10096
1.10149
1.102
1.10251
1.103
1.10349
1.10397
1.10444
1.1049
1.10536
1.10582
1.10627
1.10672
1.10717
1.10761
1.10806
1.10849
1.10893
1.10936
1.10978
1.11019
1.11058
1.11096
1.11132
1.11165
1.11194
1.11218
1.11236
1.11246
1.11246
1.11235
1.11209
1.11167
1.11105
1.11022
1.10916
1.10785
1.1063
1.10451
1.10249
1.10027
1.09786
1.09532
1.09268
1.09
1.08733
1.08474
1.08227
1.08
1.07795
1.07618
1.07469
1.07347
1.07252
1.07178
1.07119
1.07067
1.07013
1.06943
1.06845
1.06704
1.06507
1.0624
1.05896
1.05471
1.04967
1.04399
1.03789
1.03167
1.02561
1.01999
1.01496
1.01058
1.09088
1.09085
1.09083
1.0908
1.09077
1.09073
1.09068
1.09062
1.09055
1.09048
1.09039
1.09029
1.09018
1.09005
1.08992
1.08978
1.08963
1.08947
1.08931
1.08914
1.08896
1.08878
1.08859
1.08841
1.08822
1.08803
1.08785
1.08766
1.08748
1.0873
1.08713
1.08696
1.0868
1.08664
1.08649
1.08635
1.08622
1.0861
1.08599
1.08591
1.08584
1.08579
1.08576
1.08575
1.08576
1.0858
1.08586
1.08595
1.08605
1.08618
1.08633
1.0865
1.08669
1.0869
1.08713
1.08737
1.08763
1.08791
1.0882
1.08851
1.08883
1.08916
1.0895
1.08985
1.09021
1.09058
1.09096
1.09135
1.09175
1.09215
1.09256
1.09298
1.09341
1.09384
1.09428
1.09472
1.09517
1.09562
1.09607
1.09653
1.097
1.09746
1.09793
1.09839
1.09885
1.09931
1.09977
1.10022
1.10066
1.10108
1.10149
1.10189
1.10227
1.10262
1.10295
1.10325
1.10353
1.10377
1.10399
1.10417
1.10432
1.10444
1.10453
1.10459
1.10462
1.10463
1.1046
1.10455
1.10448
1.10438
1.10426
1.10413
1.10397
1.10379
1.1036
1.1034
1.10318
1.10295
1.10271
1.10247
1.10222
1.10197
1.10172
1.10148
1.10124
1.10101
1.1008
1.1006
1.10042
1.10025
1.1001
1.09998
1.09987
1.09978
1.09971
1.09966
1.09962
1.0996
1.09959
1.09959
1.0996
1.09962
1.09963
1.09966
1.09968
1.0997
1.09973
1.09975
1.09977
1.09979
1.09981
1.09983
1.09985
1.09988
1.09991
1.09994
1.09998
1.10002
1.10008
1.10014
1.10021
1.10028
1.10036
1.10045
1.10055
1.10065
1.10077
1.10089
1.10103
1.10118
1.10135
1.10154
1.10176
1.102
1.10228
1.10259
1.10294
1.10334
1.10377
1.10424
1.10476
1.1053
1.10588
1.10648
1.1071
1.10773
1.10835
1.10897
1.10958
1.11016
1.11071
1.11123
1.1117
1.11213
1.11251
1.11285
1.11314
1.11338
1.11358
1.11374
1.11387
1.11397
1.11404
1.1141
1.11414
1.11417
1.1142
1.11422
1.11425
1.11429
1.11433
1.11439
1.11446
1.11454
1.11465
1.11477
1.11491
1.11507
1.11525
1.11545
1.11567
1.1159
1.11616
1.11644
1.11673
1.11704
1.11736
1.1177
1.11804
1.1184
1.11877
1.11915
1.11953
1.11991
1.12029
1.12067
1.12104
1.12141
1.12176
1.1221
1.12241
1.1227
1.12297
1.12319
1.12338
1.12352
1.12361
1.12363
1.1236
1.12349
1.12331
1.12305
1.1227
1.12227
1.12174
1.12114
1.12044
1.11967
1.11881
1.11789
1.11691
1.11588
1.1148
1.11369
1.11255
1.11139
1.11022
1.10904
1.10785
1.10665
1.10545
1.10423
1.103
1.10176
1.1005
1.09923
1.09795
1.09666
1.09538
1.09411
1.09285
1.09164
1.09047
1.08937
1.08834
1.08739
1.08654
1.08579
1.08514
1.08461
1.08418
1.08386
1.08365
1.08353
1.0835
1.08356
1.0837
1.0839
1.08418
1.0845
1.08488
1.0853
1.08576
1.08626
1.08678
1.08733
1.0879
1.08848
1.08909
1.0897
1.09033
1.09097
1.09161
1.09226
1.09291
1.09357
1.09422
1.09487
1.09552
1.09617
1.0968
1.09743
1.09804
1.09864
1.09923
1.09981
1.10037
1.10091
1.10144
1.10196
1.10247
1.10297
1.10345
1.10393
1.1044
1.10486
1.10532
1.10578
1.10623
1.10668
1.10712
1.10756
1.108
1.10844
1.10886
1.10929
1.1097
1.1101
1.11048
1.11085
1.11119
1.11149
1.11176
1.11197
1.11211
1.11216
1.11211
1.11193
1.1116
1.1111
1.11041
1.10951
1.1084
1.10707
1.10552
1.10378
1.10184
1.09974
1.09751
1.09516
1.09272
1.09024
1.08774
1.08529
1.08292
1.0807
1.07866
1.07685
1.07528
1.07397
1.07291
1.07205
1.07134
1.0707
1.07004
1.06925
1.06819
1.06674
1.06476
1.06213
1.05878
1.05466
1.04978
1.04427
1.03831
1.03217
1.02615
1.02051
1.01541
1.01094
1.09088
1.09084
1.09079
1.09075
1.0907
1.09065
1.0906
1.09053
1.09046
1.09038
1.09029
1.09019
1.09008
1.08996
1.08983
1.08969
1.08954
1.08939
1.08923
1.08906
1.08889
1.08871
1.08853
1.08835
1.08816
1.08797
1.08778
1.08759
1.08741
1.08722
1.08704
1.08686
1.08668
1.08651
1.08635
1.0862
1.08606
1.08594
1.08583
1.08575
1.08568
1.08563
1.08561
1.08562
1.08564
1.08569
1.08577
1.08587
1.08599
1.08613
1.08629
1.08647
1.08667
1.08689
1.08712
1.08737
1.08763
1.0879
1.08819
1.08849
1.08881
1.08913
1.08947
1.08981
1.09017
1.09053
1.0909
1.09128
1.09167
1.09207
1.09248
1.09289
1.09331
1.09373
1.09417
1.0946
1.09505
1.0955
1.09595
1.09641
1.09686
1.09733
1.09779
1.09825
1.09871
1.09917
1.09963
1.10008
1.10052
1.10095
1.10136
1.10176
1.10214
1.10249
1.10283
1.10313
1.10341
1.10366
1.10387
1.10406
1.10421
1.10433
1.10441
1.10447
1.1045
1.10449
1.10446
1.10441
1.10433
1.10423
1.10411
1.10397
1.10381
1.10363
1.10344
1.10323
1.10302
1.10279
1.10256
1.10232
1.10208
1.10183
1.1016
1.10136
1.10114
1.10092
1.10072
1.10053
1.10035
1.1002
1.10005
1.09993
1.09983
1.09974
1.09967
1.09961
1.09957
1.09955
1.09953
1.09953
1.09953
1.09954
1.09955
1.09957
1.09959
1.09961
1.09964
1.09966
1.09968
1.09971
1.09973
1.09976
1.09978
1.09981
1.09985
1.09988
1.09993
1.09998
1.10003
1.10009
1.10016
1.10024
1.10033
1.10042
1.10052
1.10062
1.10074
1.10087
1.10101
1.10117
1.10134
1.10154
1.10176
1.10201
1.10229
1.1026
1.10296
1.10335
1.10378
1.10424
1.10475
1.10528
1.10585
1.10643
1.10703
1.10765
1.10826
1.10886
1.10946
1.11003
1.11057
1.11108
1.11155
1.11198
1.11237
1.11272
1.11302
1.11328
1.11349
1.11368
1.11383
1.11395
1.11404
1.11412
1.11419
1.11424
1.11429
1.11433
1.11438
1.11443
1.11449
1.11456
1.11465
1.11474
1.11485
1.11498
1.11513
1.11529
1.11547
1.11567
1.11589
1.11613
1.11638
1.11666
1.11694
1.11724
1.11756
1.11789
1.11822
1.11857
1.11892
1.11928
1.11963
1.11999
1.12034
1.12068
1.12101
1.12133
1.12163
1.1219
1.12215
1.12236
1.12253
1.12266
1.12274
1.12276
1.12272
1.12262
1.12244
1.12219
1.12186
1.12145
1.12096
1.12039
1.11974
1.11902
1.11823
1.11738
1.11648
1.11554
1.11457
1.11358
1.11258
1.11157
1.11058
1.10959
1.10861
1.10765
1.1067
1.10576
1.10482
1.10388
1.10293
1.10196
1.10098
1.09997
1.09892
1.09785
1.09676
1.09564
1.09452
1.09339
1.09228
1.09119
1.09015
1.08916
1.08824
1.0874
1.08665
1.086
1.08545
1.08501
1.08467
1.08443
1.08429
1.08425
1.08429
1.08441
1.0846
1.08486
1.08518
1.08554
1.08596
1.08642
1.08691
1.08743
1.08798
1.08854
1.08913
1.08974
1.09035
1.09098
1.09162
1.09226
1.09291
1.09356
1.09421
1.09486
1.0955
1.09614
1.09677
1.09739
1.098
1.0986
1.09919
1.09977
1.10033
1.10087
1.10141
1.10193
1.10243
1.10293
1.10342
1.1039
1.10437
1.10483
1.10529
1.10574
1.10619
1.10664
1.10708
1.10752
1.10795
1.10838
1.1088
1.10921
1.10962
1.11
1.11038
1.11073
1.11105
1.11133
1.11156
1.11173
1.11182
1.11182
1.1117
1.11145
1.11104
1.11046
1.10969
1.10872
1.10756
1.1062
1.10466
1.10297
1.10113
1.09917
1.0971
1.09495
1.09273
1.09046
1.08816
1.08586
1.08361
1.08145
1.07943
1.07759
1.07595
1.07455
1.07337
1.07238
1.07154
1.07078
1.07
1.06911
1.06797
1.06646
1.06447
1.06188
1.05861
1.0546
1.04987
1.0445
1.03868
1.03264
1.02666
1.021
1.01585
1.01129
1.09088
1.09082
1.09077
1.09071
1.09064
1.09058
1.09051
1.09044
1.09036
1.09027
1.09018
1.09008
1.08997
1.08985
1.08972
1.08959
1.08945
1.0893
1.08914
1.08898
1.08881
1.08863
1.08845
1.08827
1.08808
1.08789
1.08769
1.0875
1.0873
1.08711
1.08691
1.08672
1.08654
1.08636
1.08619
1.08603
1.08589
1.08577
1.08566
1.08557
1.08551
1.08547
1.08546
1.08547
1.08551
1.08558
1.08567
1.08578
1.08591
1.08606
1.08624
1.08643
1.08664
1.08686
1.08709
1.08734
1.08761
1.08788
1.08817
1.08847
1.08877
1.08909
1.08942
1.08976
1.0901
1.09046
1.09082
1.0912
1.09158
1.09197
1.09237
1.09277
1.09319
1.09361
1.09403
1.09447
1.09491
1.09535
1.0958
1.09625
1.0967
1.09716
1.09762
1.09808
1.09854
1.099
1.09946
1.09991
1.10035
1.10078
1.1012
1.1016
1.10198
1.10234
1.10268
1.10299
1.10327
1.10352
1.10374
1.10392
1.10407
1.10419
1.10427
1.10432
1.10434
1.10433
1.1043
1.10424
1.10416
1.10405
1.10392
1.10378
1.10361
1.10344
1.10324
1.10304
1.10283
1.1026
1.10238
1.10214
1.10191
1.10168
1.10145
1.10123
1.10102
1.10081
1.10062
1.10044
1.10028
1.10013
1.09999
1.09988
1.09978
1.09969
1.09962
1.09956
1.09952
1.09949
1.09946
1.09945
1.09945
1.09945
1.09946
1.09948
1.0995
1.09952
1.09954
1.09956
1.09959
1.09961
1.09964
1.09967
1.0997
1.09974
1.09978
1.09982
1.09987
1.09992
1.09998
1.10004
1.10011
1.10019
1.10028
1.10037
1.10048
1.10059
1.10071
1.10084
1.10099
1.10115
1.10133
1.10153
1.10176
1.10201
1.10229
1.10261
1.10296
1.10335
1.10378
1.10424
1.10473
1.10526
1.10581
1.10638
1.10697
1.10756
1.10816
1.10875
1.10933
1.10989
1.11043
1.11093
1.11141
1.11184
1.11223
1.11259
1.1129
1.11318
1.11341
1.11362
1.11379
1.11393
1.11406
1.11416
1.11425
1.11433
1.1144
1.11446
1.11453
1.1146
1.11468
1.11477
1.11486
1.11497
1.11509
1.11523
1.11538
1.11555
1.11573
1.11593
1.11615
1.11638
1.11663
1.1169
1.11718
1.11747
1.11777
1.11808
1.1184
1.11873
1.11906
1.11939
1.11971
1.12003
1.12034
1.12063
1.12091
1.12117
1.12139
1.12159
1.12174
1.12186
1.12192
1.12194
1.12189
1.12178
1.1216
1.12135
1.12102
1.12062
1.12014
1.11959
1.11896
1.11827
1.11751
1.1167
1.11584
1.11495
1.11404
1.11312
1.11219
1.11127
1.11037
1.10949
1.10865
1.10783
1.10705
1.1063
1.10558
1.10487
1.10418
1.1035
1.10281
1.1021
1.10137
1.10061
1.0998
1.09895
1.09806
1.09712
1.09614
1.09514
1.09411
1.09307
1.09205
1.09104
1.09008
1.08918
1.08834
1.08759
1.08692
1.08635
1.08589
1.08552
1.08526
1.08509
1.08502
1.08504
1.08514
1.08531
1.08556
1.08586
1.08622
1.08663
1.08708
1.08757
1.08809
1.08863
1.0892
1.08979
1.0904
1.09101
1.09164
1.09227
1.09291
1.09356
1.0942
1.09484
1.09548
1.09611
1.09674
1.09736
1.09797
1.09857
1.09916
1.09973
1.10029
1.10084
1.10137
1.10189
1.1024
1.1029
1.10339
1.10386
1.10433
1.1048
1.10526
1.10571
1.10615
1.1066
1.10703
1.10747
1.1079
1.10832
1.10873
1.10914
1.10953
1.10991
1.11026
1.11059
1.11089
1.11114
1.11134
1.11146
1.1115
1.11144
1.11125
1.11091
1.11042
1.10975
1.10889
1.10785
1.10664
1.10526
1.10374
1.1021
1.10036
1.09854
1.09666
1.09471
1.09271
1.09066
1.08856
1.08644
1.08432
1.08224
1.08025
1.07839
1.0767
1.0752
1.0739
1.07278
1.07181
1.07092
1.07002
1.06901
1.06778
1.06622
1.06421
1.06164
1.05843
1.05453
1.04993
1.04471
1.039
1.03306
1.02713
1.02147
1.01627
1.01164
1.0909
1.09082
1.09074
1.09067
1.09059
1.09051
1.09043
1.09035
1.09026
1.09017
1.09007
1.08997
1.08985
1.08974
1.08961
1.08948
1.08934
1.08919
1.08903
1.08887
1.0887
1.08853
1.08835
1.08816
1.08797
1.08777
1.08757
1.08737
1.08717
1.08696
1.08676
1.08656
1.08637
1.08619
1.08601
1.08585
1.08571
1.08558
1.08548
1.0854
1.08534
1.08531
1.08531
1.08533
1.08538
1.08546
1.08556
1.08568
1.08583
1.08599
1.08617
1.08637
1.08658
1.08681
1.08705
1.0873
1.08757
1.08784
1.08812
1.08842
1.08872
1.08903
1.08935
1.08968
1.09002
1.09037
1.09073
1.09109
1.09147
1.09185
1.09224
1.09264
1.09304
1.09346
1.09388
1.0943
1.09474
1.09518
1.09562
1.09607
1.09652
1.09697
1.09743
1.09789
1.09835
1.0988
1.09926
1.09971
1.10015
1.10058
1.10101
1.10141
1.1018
1.10216
1.1025
1.10282
1.1031
1.10335
1.10357
1.10375
1.1039
1.10402
1.1041
1.10414
1.10416
1.10415
1.1041
1.10404
1.10395
1.10384
1.10371
1.10356
1.10339
1.10321
1.10302
1.10282
1.10261
1.10239
1.10217
1.10195
1.10173
1.1015
1.10129
1.10108
1.10088
1.10069
1.10051
1.10034
1.10019
1.10005
1.09992
1.09981
1.09971
1.09963
1.09955
1.09949
1.09945
1.09941
1.09938
1.09937
1.09936
1.09936
1.09936
1.09937
1.09939
1.09941
1.09943
1.09945
1.09948
1.09951
1.09954
1.09958
1.09961
1.09965
1.0997
1.09974
1.09979
1.09985
1.09991
1.09998
1.10005
1.10014
1.10022
1.10032
1.10043
1.10054
1.10066
1.1008
1.10095
1.10112
1.1013
1.10151
1.10174
1.102
1.10229
1.10261
1.10296
1.10335
1.10377
1.10422
1.10471
1.10522
1.10576
1.10632
1.10689
1.10748
1.10806
1.10864
1.10921
1.10976
1.11029
1.11079
1.11126
1.1117
1.1121
1.11246
1.11279
1.11308
1.11334
1.11357
1.11376
1.11393
1.11408
1.11421
1.11432
1.11443
1.11452
1.11461
1.1147
1.11479
1.11489
1.11499
1.1151
1.11522
1.11535
1.11549
1.11565
1.11582
1.11601
1.11621
1.11643
1.11666
1.1169
1.11716
1.11742
1.1177
1.11799
1.11828
1.11857
1.11887
1.11916
1.11946
1.11974
1.12001
1.12026
1.12049
1.1207
1.12088
1.12101
1.12111
1.12116
1.12116
1.12111
1.12099
1.1208
1.12054
1.12022
1.11981
1.11934
1.11879
1.11817
1.11749
1.11675
1.11596
1.11513
1.11426
1.11338
1.11248
1.11159
1.11071
1.10986
1.10904
1.10826
1.10752
1.10683
1.10619
1.10559
1.10504
1.10452
1.10403
1.10356
1.1031
1.10264
1.10217
1.10167
1.10113
1.10055
1.09992
1.09923
1.09848
1.09767
1.0968
1.09589
1.09494
1.09397
1.09299
1.09202
1.09107
1.09017
1.08933
1.08856
1.08788
1.08729
1.08679
1.0864
1.08611
1.08591
1.08582
1.08581
1.08589
1.08604
1.08627
1.08656
1.08691
1.08732
1.08776
1.08824
1.08876
1.0893
1.08987
1.09046
1.09106
1.09167
1.0923
1.09293
1.09356
1.0942
1.09483
1.09547
1.0961
1.09672
1.09733
1.09794
1.09854
1.09912
1.09969
1.10026
1.1008
1.10134
1.10186
1.10237
1.10287
1.10336
1.10384
1.10431
1.10477
1.10522
1.10567
1.10612
1.10656
1.10699
1.10742
1.10784
1.10826
1.10866
1.10906
1.10944
1.1098
1.11014
1.11045
1.11072
1.11093
1.11109
1.11116
1.11114
1.111
1.11073
1.11031
1.10972
1.10896
1.10802
1.10691
1.10565
1.10426
1.10276
1.10119
1.09956
1.09789
1.09619
1.09445
1.09267
1.09084
1.08895
1.08701
1.08504
1.08305
1.08111
1.07924
1.0775
1.07592
1.0745
1.07326
1.07214
1.07111
1.07008
1.06896
1.06764
1.06602
1.06398
1.06142
1.05826
1.05445
1.04997
1.04487
1.03929
1.03344
1.02756
1.02191
1.01668
1.01198
1.09093
1.09083
1.09073
1.09064
1.09054
1.09045
1.09036
1.09026
1.09017
1.09007
1.08996
1.08985
1.08974
1.08962
1.08949
1.08936
1.08922
1.08907
1.08891
1.08875
1.08858
1.0884
1.08822
1.08802
1.08783
1.08763
1.08742
1.08721
1.087
1.08679
1.08658
1.08638
1.08618
1.08599
1.08582
1.08566
1.08552
1.08539
1.0853
1.08522
1.08517
1.08515
1.08516
1.08519
1.08525
1.08534
1.08545
1.08558
1.08573
1.08591
1.0861
1.0863
1.08652
1.08675
1.08699
1.08725
1.08751
1.08778
1.08806
1.08835
1.08865
1.08895
1.08927
1.08959
1.08992
1.09026
1.09061
1.09097
1.09133
1.09171
1.09209
1.09248
1.09288
1.09328
1.0937
1.09412
1.09454
1.09497
1.09541
1.09585
1.0963
1.09675
1.0972
1.09766
1.09811
1.09857
1.09902
1.09947
1.09992
1.10035
1.10078
1.10119
1.10158
1.10195
1.10229
1.10261
1.1029
1.10315
1.10337
1.10355
1.1037
1.10381
1.10389
1.10393
1.10394
1.10392
1.10387
1.1038
1.1037
1.10359
1.10345
1.1033
1.10314
1.10296
1.10277
1.10257
1.10237
1.10216
1.10194
1.10173
1.10152
1.10131
1.10111
1.10091
1.10073
1.10055
1.10038
1.10023
1.10008
1.09995
1.09983
1.09973
1.09963
1.09955
1.09948
1.09942
1.09936
1.09932
1.09929
1.09927
1.09926
1.09925
1.09925
1.09926
1.09927
1.09929
1.09931
1.09934
1.09937
1.0994
1.09944
1.09947
1.09952
1.09956
1.09961
1.09966
1.09971
1.09977
1.09984
1.09991
1.09999
1.10007
1.10016
1.10026
1.10037
1.10048
1.10061
1.10075
1.10091
1.10108
1.10127
1.10148
1.10172
1.10198
1.10228
1.1026
1.10295
1.10334
1.10376
1.10421