# vtk DataFile Version 2.0
LBE two cylinders
ASCII
DATASET STRUCTURED_POINTS
DIMENSIONS 400 100 1
ASPECT_RATIO 1 1 1
ORIGIN 0 0 0
POINT_DATA 40000
SCALARS rho double 1
LOOKUP_TABLE default
1.08977
1.08981
1.08985
1.0899
1.08995
1.09
1.09005
1.0901
1.09015
1.0902
1.09025
1.09029
1.09034
1.09039
1.09044
1.09048
1.09053
1.09057
1.09062
1.09066
1.0907
1.09075
1.09079
1.09083
1.09088
1.09092
1.09096
1.09101
1.09106
1.0911
1.09115
1.0912
1.09125
1.09131
1.09137
1.09142
1.09149
1.09155
1.09162
1.09169
1.09177
1.09185
1.09193
1.09202
1.09211
1.09221
1.09231
1.09241
1.09252
1.09264
1.09276
1.09289
1.09303
1.09317
1.09331
1.09347
1.09363
1.09379
1.09397
1.09415
1.09434
1.09454
1.09474
1.09496
1.09518
1.09541
1.09565
1.0959
1.09615
1.09641
1.09669
1.09697
1.09726
1.09755
1.09786
1.09817
1.09849
1.09882
1.09915
1.09949
1.09983
1.10017
1.10052
1.10087
1.10121
1.10156
1.10189
1.10222
1.10254
1.10284
1.10313
1.10339
1.10364
1.10386
1.10406
1.10423
1.10437
1.10448
1.10456
1.1046
1.10462
1.10461
1.10457
1.10451
1.10442
1.1043
1.10417
1.10401
1.10383
1.10364
1.10343
1.1032
1.10295
1.10269
1.10241
1.1021
1.10177
1.10142
1.10104
1.10064
1.1002
1.09974
1.09924
1.09871
1.09814
1.09754
1.09691
1.09625
1.09557
1.09486
1.09413
1.09338
1.09263
1.09187
1.09111
1.09036
1.08962
1.08891
1.08822
1.08756
1.08693
1.08634
1.0858
1.08529
1.08483
1.08441
1.08404
1.0837
1.08339
1.08312
1.08288
1.08265
1.08244
1.08224
1.08206
1.08187
1.08169
1.0815
1.08131
1.08111
1.08091
1.0807
1.08048
1.08026
1.08003
1.0798
1.07956
1.07932
1.07908
1.07883
1.07858
1.07833
1.07808
1.07783
1.07758
1.07733
1.07708
1.07682
1.07657
1.07631
1.07606
1.0758
1.07555
1.07529
1.07504
1.07479
1.07455
1.07432
1.07409
1.07387
1.07366
1.07347
1.07329
1.07312
1.07297
1.07284
1.07272
1.07262
1.07254
1.07248
1.07243
1.0724
1.07238
1.07238
1.07239
1.07241
1.07245
1.07249
1.07254
1.0726
1.07266
1.07272
1.07279
1.07286
1.07293
1.07299
1.07306
1.07311
1.07317
1.07321
1.07325
1.07329
1.07331
1.07332
1.07333
1.07332
1.07331
1.07329
1.07326
1.07322
1.07318
1.07314
1.07309
1.07304
1.07299
1.07293
1.07289
1.07284
1.0728
1.07277
1.07274
1.07271
1.0727
1.07269
1.07268
1.07269
1.0727
1.07272
1.07274
1.07277
1.07281
1.07285
1.07289
1.07295
1.073
1.07306
1.07313
1.07319
1.07326
1.07334
1.07341
1.07349
1.07357
1.07365
1.07373
1.07382
1.0739
1.07399
1.07408
1.07417
1.07426
1.07435
1.07444
1.07453
1.07462
1.07471
1.0748
1.0749
1.07499
1.07508
1.07518
1.07527
1.07537
1.07547
1.07557
1.07567
1.07577
1.07588
1.07599
1.07609
1.07621
1.07632
1.07644
1.07656
1.07668
1.07681
1.07693
1.07707
1.0772
1.07733
1.07747
1.07761
1.07774
1.07788
1.07802
1.07815
1.07828
1.07841
1.07854
1.07866
1.07878
1.07889
1.079
1.0791
1.0792
1.07928
1.07937
1.07944
1.07951
1.07957
1.07962
1.07967
1.07971
1.07974
1.07977
1.07979
1.0798
1.0798
1.07979
1.07978
1.07976
1.07973
1.07969
1.07964
1.07958
1.07951
1.07943
1.07934
1.07924
1.07912
1.07899
1.07885
1.0787
1.07853
1.07835
1.07816
1.07795
1.07773
1.07749
1.07724
1.07697
1.07669
1.07639
1.07608
1.07575
1.07541
1.07506
1.07469
1.07431
1.07392
1.07351
1.07309
1.07267
1.07223
1.07179
1.07133
1.07088
1.07041
1.06994
1.06947
1.069
1.06853
1.06805
1.06758
1.06711
1.06665
1.0662
1.06575
1.06531
1.06488
1.06446
1.06406
1.06367
1.06329
1.06293
1.06259
1.06227
1.06196
1.06168
1.06141
1.06117
1.06095
1.06074
1.06056
1.0604
1.06026
1.06015
1.06005
1.05998
1.05993
1.08976
1.0898
1.08985
1.0899
1.08995
1.09
1.09004
1.09009
1.09014
1.09019
1.09024
1.09029
1.09034
1.09039
1.09043
1.09048
1.09053
1.09057
1.09062
1.09066
1.0907
1.09075
1.09079
1.09083
1.09088
1.09092
1.09097
1.09101
1.09106
1.09111
1.09115
1.09121
1.09126
1.09131
1.09137
1.09143
1.09149
1.09156
1.09163
1.0917
1.09178
1.09186
1.09194
1.09203
1.09212
1.09222
1.09232
1.09243
1.09254
1.09265
1.09278
1.09291
1.09304
1.09318
1.09333
1.09348
1.09364
1.09381
1.09398
1.09416
1.09435
1.09455
1.09475
1.09496
1.09518
1.09541
1.09565
1.09589
1.09615
1.09641
1.09668
1.09695
1.09724
1.09753
1.09783
1.09814
1.09846
1.09878
1.09911
1.09944
1.09978
1.10012
1.10046
1.1008
1.10114
1.10148
1.10181
1.10213
1.10244
1.10274
1.10302
1.10328
1.10352
1.10374
1.10394
1.1041
1.10424
1.10435
1.10443
1.10448
1.1045
1.1045
1.10446
1.1044
1.10431
1.1042
1.10407
1.10392
1.10375
1.10356
1.10336
1.10313
1.10289
1.10263
1.10234
1.10204
1.10171
1.10136
1.10099
1.10058
1.10014
1.09967
1.09917
1.09864
1.09808
1.09748
1.09685
1.09619
1.09551
1.0948
1.09407
1.09333
1.09258
1.09182
1.09107
1.09033
1.0896
1.08889
1.0882
1.08755
1.08693
1.08634
1.0858
1.0853
1.08485
1.08443
1.08406
1.08372
1.08342
1.08314
1.0829
1.08267
1.08246
1.08226
1.08207
1.08188
1.08169
1.0815
1.08131
1.08111
1.08091
1.0807
1.08048
1.08026
1.08003
1.0798
1.07956
1.07932
1.07908
1.07883
1.07858
1.07833
1.07808
1.07783
1.07758
1.07733
1.07708
1.07682
1.07657
1.07631
1.07606
1.0758
1.07555
1.07529
1.07504
1.0748
1.07455
1.07432
1.07409
1.07388
1.07367
1.07348
1.0733
1.07313
1.07299
1.07285
1.07274
1.07264
1.07256
1.0725
1.07245
1.07242
1.0724
1.0724
1.07241
1.07243
1.07246
1.07251
1.07255
1.07261
1.07267
1.07273
1.0728
1.07287
1.07293
1.073
1.07306
1.07312
1.07317
1.07322
1.07325
1.07328
1.07331
1.07332
1.07332
1.07332
1.0733
1.07328
1.07325
1.07322
1.07318
1.07313
1.07308
1.07303
1.07298
1.07293
1.07289
1.07284
1.0728
1.07277
1.07274
1.07272
1.0727
1.07269
1.07269
1.07269
1.0727
1.07272
1.07275
1.07278
1.07281
1.07285
1.0729
1.07295
1.07301
1.07307
1.07313
1.0732
1.07327
1.07334
1.07342
1.07349
1.07357
1.07365
1.07374
1.07382
1.07391
1.07399
1.07408
1.07417
1.07426
1.07435
1.07444
1.07453
1.07462
1.07471
1.0748
1.0749
1.07499
1.07508
1.07518
1.07527
1.07537
1.07547
1.07557
1.07567
1.07577
1.07587
1.07598
1.07609
1.0762
1.07631
1.07643
1.07655
1.07667
1.0768
1.07692
1.07705
1.07719
1.07732
1.07745
1.07759
1.07773
1.07786
1.078
1.07813
1.07826
1.07839
1.07851
1.07863
1.07875
1.07886
1.07896
1.07906
1.07915
1.07924
1.07932
1.07939
1.07946
1.07951
1.07956
1.07961
1.07964
1.07967
1.07969
1.07971
1.07972
1.07971
1.07971
1.07969
1.07966
1.07963
1.07959
1.07953
1.07947
1.0794
1.07931
1.07922
1.07911
1.07899
1.07886
1.07872
1.07857
1.0784
1.07821
1.07802
1.07781
1.07759
1.07735
1.0771
1.07683
1.07655
1.07626
1.07595
1.07563
1.07529
1.07495
1.07458
1.07421
1.07382
1.07343
1.07302
1.0726
1.07217
1.07174
1.0713
1.07085
1.07039
1.06994
1.06948
1.06901
1.06855
1.06809
1.06763
1.06717
1.06672
1.06627
1.06583
1.0654
1.06498
1.06457
1.06417
1.06379
1.06342
1.06306
1.06272
1.0624
1.0621
1.06182
1.06155
1.06131
1.06108
1.06088
1.0607
1.06054
1.0604
1.06028
1.06018
1.0601
1.06004
1.08975
1.0898
1.08984
1.08989
1.08994
1.08999
1.09004
1.09009
1.09014
1.09019
1.09023
1.09028
1.09033
1.09038
1.09043
1.09047
1.09052
1.09056
1.09061
1.09065
1.09069
1.09074
1.09078
1.09082
1.09087
1.09091
1.09096
1.091
1.09105
1.0911
1.09115
1.0912
1.09125
1.09131
1.09137
1.09143
1.09149
1.09156
1.09162
1.0917
1.09177
1.09185
1.09194
1.09203
1.09212
1.09222
1.09232
1.09242
1.09254
1.09265
1.09277
1.0929
1.09304
1.09318
1.09332
1.09347
1.09363
1.0938
1.09397
1.09415
1.09434
1.09453
1.09474
1.09495
1.09516
1.09539
1.09562
1.09586
1.09611
1.09637
1.09664
1.09691
1.0972
1.09749
1.09778
1.09809
1.0984
1.09872
1.09904
1.09937
1.0997
1.10004
1.10037
1.10071
1.10105
1.10138
1.1017
1.10202
1.10233
1.10262
1.1029
1.10316
1.1034
1.10362
1.10382
1.10398
1.10412
1.10423
1.10432
1.10437
1.10439
1.10439
1.10436
1.1043
1.10422
1.10412
1.10399
1.10384
1.10368
1.10349
1.10329
1.10307
1.10283
1.10257
1.10229
1.10198
1.10166
1.10131
1.10093
1.10052
1.10008
1.09962
1.09912
1.09858
1.09801
1.09742
1.09679
1.09613
1.09544
1.09474
1.09401
1.09327
1.09253
1.09177
1.09103
1.09029
1.08956
1.08886
1.08818
1.08753
1.08691
1.08633
1.0858
1.0853
1.08485
1.08444
1.08407
1.08373
1.08343
1.08316
1.08291
1.08268
1.08247
1.08227
1.08208
1.08189
1.0817
1.08151
1.08131
1.08111
1.08091
1.0807
1.08048
1.08026
1.08003
1.07979
1.07956
1.07931
1.07907
1.07882
1.07858
1.07833
1.07808
1.07783
1.07758
1.07732
1.07707
1.07682
1.07656
1.07631
1.07605
1.07579
1.07554
1.07529
1.07504
1.07479
1.07455
1.07432
1.07409
1.07388
1.07367
1.07348
1.0733
1.07314
1.073
1.07287
1.07275
1.07266
1.07258
1.07252
1.07247
1.07244
1.07242
1.07242
1.07243
1.07245
1.07248
1.07252
1.07257
1.07263
1.07269
1.07275
1.07281
1.07288
1.07294
1.07301
1.07307
1.07312
1.07317
1.07322
1.07325
1.07328
1.0733
1.07332
1.07332
1.07331
1.0733
1.07328
1.07325
1.07321
1.07317
1.07313
1.07308
1.07303
1.07298
1.07293
1.07289
1.07285
1.07281
1.07277
1.07275
1.07272
1.07271
1.0727
1.0727
1.0727
1.07271
1.07273
1.07276
1.07279
1.07282
1.07286
1.07291
1.07296
1.07302
1.07308
1.07314
1.07321
1.07328
1.07335
1.07342
1.0735
1.07358
1.07366
1.07374
1.07383
1.07391
1.074
1.07409
1.07417
1.07426
1.07435
1.07444
1.07453
1.07462
1.07471
1.0748
1.0749
1.07499
1.07508
1.07518
1.07527
1.07537
1.07546
1.07556
1.07566
1.07576
1.07586
1.07597
1.07608
1.07619
1.0763
1.07641
1.07653
1.07665
1.07678
1.0769
1.07703
1.07716
1.07729
1.07742
1.07756
1.07769
1.07782
1.07795
1.07808
1.07821
1.07834
1.07846
1.07857
1.07869
1.07879
1.07889
1.07899
1.07907
1.07915
1.07923
1.07929
1.07935
1.07941
1.07945
1.07949
1.07952
1.07954
1.07955
1.07956
1.07956
1.07955
1.07954
1.07951
1.07948
1.07944
1.07939
1.07933
1.07926
1.07918
1.07909
1.07899
1.07888
1.07875
1.07862
1.07847
1.07831
1.07814
1.07796
1.07776
1.07755
1.07733
1.07709
1.07684
1.07658
1.07631
1.07602
1.07572
1.0754
1.07507
1.07473
1.07438
1.07402
1.07365
1.07326
1.07287
1.07247
1.07206
1.07164
1.07122
1.07079
1.07035
1.06991
1.06947
1.06903
1.06859
1.06815
1.0677
1.06727
1.06683
1.0664
1.06598
1.06556
1.06516
1.06476
1.06437
1.064
1.06364
1.06329
1.06296
1.06265
1.06235
1.06207
1.06181
1.06156
1.06134
1.06113
1.06095
1.06078
1.06064
1.06051
1.06041
1.06032
1.06026
1.08973
1.08978
1.08983
1.08988
1.08993
1.08998
1.09003
1.09007
1.09012
1.09017
1.09022
1.09027
1.09032
1.09037
1.09041
1.09046
1.0905
1.09055
1.09059
1.09064
1.09068
1.09072
1.09077
1.09081
1.09085
1.0909
1.09094
1.09099
1.09103
1.09108
1.09113
1.09118
1.09124
1.09129
1.09135
1.09141
1.09147
1.09154
1.09161
1.09168
1.09176
1.09184
1.09192
1.09201
1.0921
1.0922
1.0923
1.09241
1.09252
1.09263
1.09276
1.09288
1.09302
1.09315
1.0933
1.09345
1.09361
1.09377
1.09394
1.09412
1.0943
1.0945
1.0947
1.0949
1.09512
1.09534
1.09557
1.09581
1.09606
1.09631
1.09657
1.09684
1.09712
1.09741
1.0977
1.098
1.09831
1.09862
1.09894
1.09927
1.09959
1.09993
1.10026
1.10059
1.10092
1.10125
1.10158
1.10189
1.1022
1.10249
1.10277
1.10303
1.10328
1.1035
1.10369
1.10386
1.104
1.10412
1.1042
1.10426
1.10429
1.10429
1.10426
1.10421
1.10413
1.10403
1.10391
1.10376
1.1036
1.10342
1.10322
1.103
1.10276
1.1025
1.10222
1.10192
1.1016
1.10125
1.10087
1.10046
1.10002
1.09956
1.09905
1.09852
1.09795
1.09735
1.09673
1.09607
1.09538
1.09468
1.09396
1.09322
1.09247
1.09172
1.09098
1.09024
1.08952
1.08882
1.08814
1.0875
1.08689
1.08632
1.08578
1.08529
1.08484
1.08443
1.08407
1.08373
1.08343
1.08316
1.08291
1.08269
1.08247
1.08227
1.08208
1.08189
1.0817
1.08151
1.08131
1.08111
1.0809
1.08069
1.08047
1.08025
1.08002
1.07978
1.07954
1.0793
1.07906
1.07881
1.07857
1.07832
1.07807
1.07782
1.07756
1.07731
1.07706
1.0768
1.07655
1.07629
1.07604
1.07578
1.07553
1.07527
1.07503
1.07478
1.07454
1.07431
1.07409
1.07387
1.07367
1.07348
1.07331
1.07315
1.073
1.07288
1.07276
1.07267
1.07259
1.07253
1.07249
1.07246
1.07244
1.07244
1.07245
1.07247
1.0725
1.07254
1.07259
1.07264
1.0727
1.07276
1.07283
1.07289
1.07295
1.07302
1.07307
1.07313
1.07318
1.07322
1.07325
1.07328
1.0733
1.07331
1.07331
1.07331
1.07329
1.07327
1.07324
1.0732
1.07316
1.07312
1.07307
1.07303
1.07298
1.07293
1.07289
1.07285
1.07281
1.07278
1.07275
1.07273
1.07272
1.07271
1.07271
1.07271
1.07273
1.07274
1.07277
1.0728
1.07283
1.07288
1.07292
1.07297
1.07303
1.07309
1.07315
1.07322
1.07328
1.07336
1.07343
1.07351
1.07359
1.07367
1.07375
1.07384
1.07392
1.07401
1.07409
1.07418
1.07427
1.07436
1.07445
1.07454
1.07462
1.07471
1.07481
1.0749
1.07499
1.07508
1.07517
1.07527
1.07536
1.07545
1.07555
1.07565
1.07575
1.07585
1.07595
1.07606
1.07617
1.07628
1.07639
1.0765
1.07662
1.07674
1.07686
1.07699
1.07711
1.07724
1.07737
1.0775
1.07763
1.07776
1.07789
1.07801
1.07814
1.07826
1.07837
1.07848
1.07859
1.07869
1.07879
1.07887
1.07895
1.07903
1.07909
1.07915
1.0792
1.07925
1.07928
1.07931
1.07933
1.07935
1.07935
1.07935
1.07934
1.07932
1.07929
1.07926
1.07922
1.07917
1.07911
1.07904
1.07896
1.07887
1.07877
1.07866
1.07854
1.07841
1.07827
1.07812
1.07795
1.07778
1.07759
1.07739
1.07718
1.07696
1.07672
1.07648
1.07622
1.07595
1.07567
1.07538
1.07507
1.07476
1.07443
1.0741
1.07375
1.0734
1.07303
1.07266
1.07228
1.07189
1.0715
1.0711
1.0707
1.07029
1.06988
1.06947
1.06905
1.06863
1.06822
1.06781
1.06739
1.06698
1.06658
1.06618
1.06579
1.0654
1.06502
1.06465
1.0643
1.06395
1.06362
1.0633
1.06299
1.0627
1.06242
1.06216
1.06192
1.0617
1.06149
1.0613
1.06114
1.06099
1.06085
1.06074
1.06065
1.06057
1.08971
1.08976
1.08981
1.08986
1.08991
1.08996
1.09001
1.09006
1.09011
1.09016
1.0902
1.09025
1.0903
1.09035
1.09039
1.09044
1.09048
1.09053
1.09057
1.09061
1.09066
1.0907
1.09074
1.09079
1.09083
1.09087
1.09092
1.09096
1.09101
1.09106
1.09111
1.09116
1.09121
1.09127
1.09132
1.09138
1.09145
1.09151
1.09158
1.09166
1.09173
1.09181
1.09189
1.09198
1.09207
1.09217
1.09227
1.09238
1.09249
1.0926
1.09272
1.09285
1.09298
1.09311
1.09326
1.0934
1.09356
1.09372
1.09389
1.09406
1.09425
1.09444
1.09463
1.09484
1.09505
1.09527
1.09549
1.09573
1.09597
1.09622
1.09648
1.09674
1.09702
1.0973
1.09759
1.09788
1.09819
1.09849
1.09881
1.09913
1.09945
1.09978
1.10011
1.10044
1.10077
1.1011
1.10142
1.10174
1.10204
1.10234
1.10262
1.10288
1.10313
1.10335
1.10355
1.10373
1.10387
1.10399
1.10408
1.10414
1.10418
1.10418
1.10416
1.10411
1.10403
1.10394
1.10382
1.10368
1.10352
1.10334
1.10314
1.10292
1.10269
1.10243
1.10215
1.10185
1.10153
1.10118
1.1008
1.1004
1.09996
1.09949
1.09899
1.09846
1.09789
1.09729
1.09666
1.09601
1.09532
1.09462
1.0939
1.09316
1.09242
1.09167
1.09093
1.0902
1.08948
1.08878
1.08811
1.08747
1.08686
1.08629
1.08576
1.08527
1.08483
1.08442
1.08406
1.08373
1.08343
1.08316
1.08291
1.08268
1.08247
1.08227
1.08207
1.08188
1.08169
1.0815
1.0813
1.0811
1.08089
1.08068
1.08046
1.08023
1.08
1.07977
1.07953
1.07929
1.07904
1.0788
1.07855
1.0783
1.07805
1.0778
1.07755
1.07729
1.07704
1.07679
1.07653
1.07627
1.07602
1.07576
1.07551
1.07526
1.07501
1.07477
1.07453
1.0743
1.07408
1.07387
1.07367
1.07348
1.07331
1.07315
1.07301
1.07288
1.07277
1.07268
1.07261
1.07255
1.0725
1.07247
1.07246
1.07246
1.07247
1.07249
1.07252
1.07256
1.07261
1.07266
1.07272
1.07278
1.07284
1.0729
1.07296
1.07302
1.07308
1.07313
1.07318
1.07322
1.07325
1.07328
1.07329
1.0733
1.0733
1.0733
1.07328
1.07326
1.07323
1.07319
1.07316
1.07311
1.07307
1.07302
1.07298
1.07293
1.07289
1.07285
1.07282
1.07279
1.07276
1.07274
1.07273
1.07272
1.07272
1.07273
1.07274
1.07276
1.07278
1.07281
1.07285
1.07289
1.07293
1.07298
1.07304
1.0731
1.07316
1.07323
1.07329
1.07337
1.07344
1.07352
1.0736
1.07368
1.07376
1.07384
1.07393
1.07401
1.0741
1.07419
1.07427
1.07436
1.07445
1.07454
1.07463
1.07472
1.0748
1.07489
1.07498
1.07507
1.07517
1.07526
1.07535
1.07544
1.07554
1.07563
1.07573
1.07583
1.07593
1.07603
1.07613
1.07624
1.07635
1.07646
1.07657
1.07669
1.07681
1.07693
1.07705
1.07717
1.0773
1.07742
1.07755
1.07767
1.07779
1.07792
1.07803
1.07815
1.07826
1.07836
1.07846
1.07855
1.07864
1.07872
1.07879
1.07886
1.07891
1.07896
1.079
1.07904
1.07906
1.07908
1.07909
1.07909
1.07908
1.07907
1.07904
1.07901
1.07897
1.07893
1.07887
1.07881
1.07874
1.07865
1.07856
1.07846
1.07835
1.07824
1.07811
1.07797
1.07782
1.07766
1.07749
1.07731
1.07712
1.07692
1.07671
1.07649
1.07626
1.07602
1.07577
1.07551
1.07523
1.07495
1.07466
1.07436
1.07405
1.07374
1.07341
1.07308
1.07274
1.07239
1.07204
1.07168
1.07132
1.07095
1.07058
1.07021
1.06983
1.06945
1.06907
1.06869
1.0683
1.06792
1.06754
1.06717
1.06679
1.06642
1.06606
1.0657
1.06534
1.065
1.06466
1.06433
1.06402
1.06371
1.06342
1.06314
1.06287
1.06261
1.06238
1.06215
1.06195
1.06176
1.06159
1.06143
1.06129
1.06117
1.06107
1.06098
1.08969
1.08974
1.08979
1.08984
1.08989
1.08994
1.08999
1.09004
1.09009
1.09014
1.09018
1.09023
1.09028
1.09032
1.09037
1.09041
1.09046
1.0905
1.09054
1.09059
1.09063
1.09067
1.09071
1.09076
1.0908
1.09084
1.09089
1.09093
1.09098
1.09102
1.09107
1.09112
1.09118
1.09123
1.09129
1.09135
1.09141
1.09148
1.09154
1.09162
1.09169
1.09177
1.09185
1.09194
1.09203
1.09213
1.09222
1.09233
1.09244
1.09255
1.09267
1.09279
1.09292
1.09305
1.09319
1.09334
1.09349
1.09365
1.09381
1.09399
1.09416
1.09435
1.09454
1.09474
1.09495
1.09516
1.09538
1.09561
1.09585
1.09609
1.09635
1.09661
1.09688
1.09715
1.09744
1.09773
1.09802
1.09833
1.09864
1.09895
1.09927
1.0996
1.09992
1.10025
1.10058
1.10091
1.10123
1.10155
1.10185
1.10215
1.10244
1.10271
1.10296
1.10318
1.10339
1.10357
1.10372
1.10385
1.10395
1.10401
1.10405
1.10406
1.10404
1.104
1.10393
1.10383
1.10372
1.10358
1.10342
1.10325
1.10305
1.10284
1.1026
1.10235
1.10207
1.10178
1.10145
1.10111
1.10073
1.10033
1.09989
1.09942
1.09892
1.09839
1.09782
1.09722
1.09659
1.09594
1.09526
1.09455
1.09383
1.0931
1.09236
1.09161
1.09087
1.09014
1.08943
1.08873
1.08807
1.08743
1.08683
1.08626
1.08573
1.08525
1.08481
1.0844
1.08404
1.08371
1.08341
1.08314
1.0829
1.08267
1.08246
1.08225
1.08206
1.08187
1.08167
1.08148
1.08128
1.08108
1.08087
1.08065
1.08043
1.08021
1.07998
1.07974
1.07951
1.07926
1.07902
1.07877
1.07853
1.07828
1.07803
1.07778
1.07752
1.07727
1.07702
1.07676
1.07651
1.07625
1.076
1.07574
1.07549
1.07524
1.07499
1.07475
1.07451
1.07429
1.07407
1.07386
1.07366
1.07348
1.07331
1.07315
1.07301
1.07289
1.07278
1.07269
1.07262
1.07256
1.07252
1.07249
1.07248
1.07248
1.07249
1.07251
1.07254
1.07258
1.07263
1.07268
1.07273
1.07279
1.07285
1.07291
1.07297
1.07303
1.07309
1.07314
1.07318
1.07322
1.07325
1.07327
1.07329
1.0733
1.07329
1.07329
1.07327
1.07325
1.07322
1.07318
1.07315
1.07311
1.07306
1.07302
1.07298
1.07293
1.07289
1.07286
1.07282
1.0728
1.07277
1.07276
1.07274
1.07274
1.07274
1.07274
1.07276
1.07278
1.0728
1.07283
1.07286
1.0729
1.07295
1.073
1.07305
1.07311
1.07317
1.07324
1.07331
1.07338
1.07345
1.07353
1.07361
1.07369
1.07377
1.07385
1.07393
1.07402
1.0741
1.07419
1.07428
1.07436
1.07445
1.07454
1.07463
1.07471
1.0748
1.07489
1.07498
1.07507
1.07515
1.07524
1.07533
1.07542
1.07551
1.07561
1.0757
1.07579
1.07589
1.07599
1.07609
1.07619
1.07629
1.0764
1.07651
1.07662
1.07673
1.07685
1.07696
1.07708
1.0772
1.07732
1.07744
1.07755
1.07767
1.07778
1.07789
1.078
1.0781
1.0782
1.07829
1.07838
1.07845
1.07852
1.07858
1.07864
1.07868
1.07872
1.07875
1.07877
1.07878
1.07879
1.07878
1.07877
1.07875
1.07872
1.07868
1.07864
1.07858
1.07852
1.07845
1.07837
1.07829
1.07819
1.07809
1.07798
1.07786
1.07773
1.07759
1.07744
1.07728
1.07712
1.07695
1.07676
1.07657
1.07637
1.07616
1.07594
1.07572
1.07548
1.07524
1.07499
1.07473
1.07446
1.07419
1.07391
1.07362
1.07332
1.07302
1.07272
1.0724
1.07209
1.07176
1.07144
1.07111
1.07078
1.07044
1.0701
1.06976
1.06942
1.06908
1.06874
1.06839
1.06805
1.06771
1.06737
1.06703
1.06669
1.06636
1.06603
1.06571
1.06539
1.06508
1.06478
1.06448
1.06419
1.06391
1.06365
1.06339
1.06314
1.06291
1.0627
1.06249
1.0623
1.06213
1.06197
1.06182
1.06169
1.06158
1.06148
1.08966
1.08971
1.08976
1.08982
1.08987
1.08992
1.08996
1.09001
1.09006
1.09011
1.09016
1.0902
1.09025
1.0903
1.09034
1.09038
1.09043
1.09047
1.09051
1.09055
1.0906
1.09064
1.09068
1.09072
1.09076
1.09081
1.09085
1.09089
1.09094
1.09098
1.09103
1.09108
1.09113
1.09119
1.09124
1.0913
1.09136
1.09143
1.0915
1.09157
1.09164
1.09172
1.0918
1.09188
1.09197
1.09207
1.09216
1.09226
1.09237
1.09248
1.0926
1.09272
1.09284
1.09297
1.09311
1.09325
1.0934
1.09355
1.09371
1.09388
1.09406
1.09424
1.09442
1.09462
1.09482
1.09503
1.09525
1.09547
1.0957
1.09594
1.09619
1.09644
1.09671
1.09698
1.09725
1.09754
1.09783
1.09813
1.09843
1.09874
1.09906
1.09938
1.0997
1.10003
1.10035
1.10068
1.101
1.10132
1.10163
1.10193
1.10222
1.1025
1.10275
1.10299
1.1032
1.10339
1.10355
1.10369
1.10379
1.10386
1.10391
1.10392
1.10391
1.10387
1.1038
1.10371
1.1036
1.10347
1.10331
1.10314
1.10295
1.10274
1.10251
1.10226
1.10198
1.10169
1.10137
1.10102
1.10065
1.10025
1.09981
1.09935
1.09885
1.09831
1.09775
1.09715
1.09652
1.09587
1.09519
1.09448
1.09376
1.09303
1.09229
1.09155
1.09081
1.09008
1.08937
1.08868
1.08802
1.08738
1.08678
1.08622
1.0857
1.08522
1.08478
1.08438
1.08402
1.08369
1.08339
1.08312
1.08288
1.08265
1.08244
1.08223
1.08204
1.08184
1.08165
1.08145
1.08125
1.08105
1.08084
1.08063
1.08041
1.08018
1.07995
1.07972
1.07948
1.07924
1.07899
1.07875
1.0785
1.07825
1.078
1.07775
1.0775
1.07724
1.07699
1.07673
1.07648
1.07622
1.07597
1.07571
1.07546
1.07521
1.07497
1.07473
1.07449
1.07427
1.07405
1.07385
1.07365
1.07347
1.07331
1.07315
1.07302
1.0729
1.07279
1.07271
1.07263
1.07258
1.07254
1.07251
1.0725
1.0725
1.07251
1.07253
1.07256
1.0726
1.07264
1.0727
1.07275
1.07281
1.07287
1.07293
1.07298
1.07304
1.07309
1.07314
1.07318
1.07322
1.07324
1.07327
1.07328
1.07328
1.07328
1.07327
1.07326
1.07323
1.07321
1.07317
1.07314
1.0731
1.07306
1.07301
1.07297
1.07293
1.0729
1.07286
1.07283
1.07281
1.07279
1.07277
1.07276
1.07275
1.07276
1.07276
1.07277
1.07279
1.07282
1.07285
1.07288
1.07292
1.07296
1.07301
1.07307
1.07312
1.07318
1.07325
1.07332
1.07339
1.07346
1.07353
1.07361
1.07369
1.07377
1.07385
1.07394
1.07402
1.07411
1.07419
1.07428
1.07436
1.07445
1.07453
1.07462
1.07471
1.07479
1.07488
1.07496
1.07505
1.07513
1.07522
1.07531
1.07539
1.07548
1.07557
1.07566
1.07575
1.07584
1.07593
1.07602
1.07612
1.07622
1.07632
1.07642
1.07653
1.07663
1.07674
1.07685
1.07696
1.07707
1.07718
1.07729
1.0774
1.07751
1.07762
1.07772
1.07782
1.07791
1.078
1.07808
1.07815
1.07822
1.07828
1.07833
1.07837
1.0784
1.07842
1.07844
1.07845
1.07844
1.07843
1.07841
1.07838
1.07835
1.0783
1.07825
1.07819
1.07812
1.07804
1.07796
1.07786
1.07776
1.07766
1.07754
1.07742
1.07728
1.07714
1.077
1.07684
1.07668
1.07651
1.07633
1.07615
1.07595
1.07575
1.07555
1.07533
1.07511
1.07489
1.07465
1.07442
1.07417
1.07392
1.07367
1.0734
1.07314
1.07287
1.07259
1.07232
1.07203
1.07175
1.07146
1.07117
1.07088
1.07058
1.07029
1.06999
1.06969
1.06939
1.06909
1.06879
1.06848
1.06818
1.06788
1.06758
1.06728
1.06698
1.06669
1.06639
1.0661
1.06582
1.06553
1.06526
1.06498
1.06472
1.06446
1.06421
1.06397
1.06374
1.06352
1.0633
1.0631
1.06292
1.06274
1.06258
1.06243
1.06229
1.06217
1.06206
1.08963
1.08968
1.08974
1.08979
1.08984
1.08989
1.08994
1.08999
1.09003
1.09008
1.09013
1.09018
1.09022
1.09026
1.09031
1.09035
1.09039
1.09044
1.09048
1.09052
1.09056
1.0906
1.09064
1.09068
1.09072
1.09076
1.0908
1.09085
1.09089
1.09094
1.09098
1.09103
1.09108
1.09113
1.09119
1.09125
1.09131
1.09137
1.09144
1.0915
1.09158
1.09165
1.09173
1.09181
1.0919
1.09199
1.09208
1.09218
1.09229
1.09239
1.0925
1.09262
1.09274
1.09287
1.093
1.09314
1.09328
1.09343
1.09359
1.09375
1.09392
1.0941
1.09428
1.09447
1.09466
1.09487
1.09508
1.09529
1.09552
1.09575
1.09599
1.09624
1.0965
1.09676
1.09703
1.09731
1.0976
1.09789
1.09819
1.09849
1.0988
1.09912
1.09944
1.09976
1.10008
1.10041
1.10073
1.10105
1.10137
1.10167
1.10197
1.10225
1.10251
1.10276
1.10298
1.10318
1.10335
1.10349
1.1036
1.10369
1.10374
1.10376
1.10375
1.10372
1.10366
1.10357
1.10347
1.10334
1.10319
1.10302
1.10283
1.10262
1.10239
1.10215
1.10188
1.10159
1.10127
1.10093
1.10056
1.10015
1.09972
1.09926
1.09876
1.09823
1.09766
1.09707
1.09644
1.09579
1.09511
1.0944
1.09369
1.09296
1.09222
1.09148
1.09074
1.09002
1.08931
1.08862
1.08796
1.08733
1.08673
1.08618
1.08566
1.08518
1.08474
1.08434
1.08398
1.08366
1.08336
1.08309
1.08285
1.08262
1.08241
1.0822
1.08201
1.08181
1.08162
1.08142
1.08122
1.08102
1.08081
1.08059
1.08037
1.08015
1.07992
1.07968
1.07944
1.0792
1.07896
1.07871
1.07847
1.07822
1.07797
1.07772
1.07746
1.07721
1.07695
1.0767
1.07644
1.07619
1.07593
1.07568
1.07543
1.07518
1.07494
1.0747
1.07447
1.07425
1.07403
1.07383
1.07364
1.07346
1.0733
1.07315
1.07302
1.0729
1.0728
1.07272
1.07265
1.0726
1.07256
1.07253
1.07252
1.07252
1.07253
1.07255
1.07258
1.07262
1.07266
1.07271
1.07277
1.07282
1.07288
1.07294
1.07299
1.07305
1.07309
1.07314
1.07318
1.07321
1.07324
1.07326
1.07327
1.07327
1.07327
1.07326
1.07324
1.07322
1.07319
1.07316
1.07312
1.07309
1.07305
1.07301
1.07297
1.07293
1.0729
1.07287
1.07284
1.07282
1.0728
1.07278
1.07278
1.07277
1.07277
1.07278
1.07279
1.07281
1.07284
1.07286
1.0729
1.07294
1.07298
1.07303
1.07308
1.07313
1.07319
1.07326
1.07332
1.07339
1.07346
1.07354
1.07362
1.07369
1.07377
1.07386
1.07394
1.07402
1.0741
1.07419
1.07427
1.07436
1.07444
1.07452
1.07461
1.07469
1.07477
1.07486
1.07494
1.07502
1.0751
1.07518
1.07527
1.07535
1.07543
1.07551
1.0756
1.07568
1.07576
1.07585
1.07594
1.07603
1.07612
1.07621
1.07631
1.0764
1.0765
1.0766
1.0767
1.0768
1.07691
1.07701
1.07711
1.07721
1.07731
1.07741
1.0775
1.07759
1.07767
1.07775
1.07781
1.07788
1.07793
1.07798
1.07801
1.07804
1.07806
1.07807
1.07807
1.07806
1.07804
1.07802
1.07798
1.07793
1.07788
1.07782
1.07775
1.07767
1.07759
1.0775
1.0774
1.07729
1.07718
1.07705
1.07693
1.07679
1.07665
1.0765
1.07635
1.07618
1.07602
1.07584
1.07566
1.07548
1.07529
1.07509
1.07489
1.07468
1.07447
1.07426
1.07404
1.07381
1.07358
1.07335
1.07312
1.07288
1.07264
1.07239
1.07215
1.0719
1.07165
1.0714
1.07114
1.07089
1.07063
1.07038
1.07012
1.06986
1.0696
1.06935
1.06909
1.06883
1.06857
1.06831
1.06805
1.06779
1.06753
1.06727
1.06702
1.06676
1.06651
1.06626
1.06601
1.06576
1.06552
1.06528
1.06504
1.06481
1.06459
1.06438
1.06417
1.06397
1.06377
1.06359
1.06342
1.06326
1.0631
1.06296
1.06283
1.06272
1.0896
1.08965
1.0897
1.08976
1.08981
1.08986
1.08991
1.08996
1.09
1.09005
1.0901
1.09014
1.09019
1.09023
1.09027
1.09031
1.09035
1.0904
1.09044
1.09047
1.09051
1.09055
1.09059
1.09063
1.09067
1.09071
1.09075
1.09079
1.09084
1.09088
1.09093
1.09097
1.09102
1.09107
1.09113
1.09118
1.09124
1.0913
1.09136
1.09143
1.0915
1.09157
1.09165
1.09173
1.09181
1.0919
1.09199
1.09208
1.09218
1.09229
1.0924
1.09251
1.09263
1.09275
1.09288
1.09301
1.09315
1.09329
1.09344
1.0936
1.09376
1.09393
1.09411
1.09429
1.09448
1.09468
1.09488
1.09509
1.09531
1.09554
1.09577
1.09602
1.09626
1.09652
1.09679
1.09706
1.09734
1.09762
1.09791
1.09821
1.09852
1.09883
1.09914
1.09946
1.09978
1.1001
1.10043
1.10075
1.10106
1.10137
1.10168
1.10196
1.10224
1.10249
1.10273
1.10293
1.10312
1.10327
1.10339
1.10348
1.10354
1.10357
1.10357
1.10355
1.10349
1.10341
1.10331
1.10318
1.10304
1.10287
1.10269
1.10249
1.10227
1.10202
1.10176
1.10147
1.10116
1.10082
1.10045
1.10005
1.09962
1.09916
1.09866
1.09813
1.09757
1.09698
1.09635
1.0957
1.09502
1.09432
1.0936
1.09287
1.09214
1.0914
1.09067
1.08994
1.08924
1.08855
1.0879
1.08727
1.08668
1.08612
1.08561
1.08513
1.0847
1.0843
1.08394
1.08362
1.08332
1.08306
1.08281
1.08258
1.08237
1.08217
1.08197
1.08177
1.08158
1.08138
1.08118
1.08098
1.08077
1.08055
1.08033
1.08011
1.07988
1.07964
1.0794
1.07916
1.07892
1.07867
1.07843
1.07818
1.07793
1.07768
1.07742
1.07717
1.07692
1.07666
1.07641
1.07615
1.0759
1.07564
1.07539
1.07515
1.07491
1.07467
1.07444
1.07422
1.07401
1.07381
1.07363
1.07345
1.0733
1.07315
1.07302
1.07291
1.07281
1.07273
1.07266
1.07261
1.07258
1.07255
1.07254
1.07254
1.07255
1.07258
1.07261
1.07264
1.07269
1.07273
1.07279
1.07284
1.07289
1.07295
1.073
1.07305
1.0731
1.07314
1.07318
1.07321
1.07323
1.07324
1.07325
1.07326
1.07325
1.07324
1.07322
1.0732
1.07317
1.07314
1.07311
1.07307
1.07304
1.073
1.07297
1.07293
1.0729
1.07287
1.07285
1.07283
1.07281
1.0728
1.07279
1.07279
1.07279
1.0728
1.07281
1.07283
1.07285
1.07288
1.07291
1.07295
1.07299
1.07304
1.07309
1.07314
1.0732
1.07326
1.07333
1.0734
1.07347
1.07354
1.07361
1.07369
1.07377
1.07385
1.07393
1.07401
1.07409
1.07418
1.07426
1.07434
1.07442
1.0745
1.07458
1.07466
1.07474
1.07482
1.0749
1.07498
1.07505
1.07513
1.07521
1.07528
1.07536
1.07544
1.07551
1.07559
1.07567
1.07575
1.07583
1.07591
1.07599
1.07608
1.07616
1.07625
1.07634
1.07643
1.07652
1.07661
1.0767
1.0768
1.07689
1.07698
1.07707
1.07715
1.07723
1.07731
1.07738
1.07744
1.0775
1.07755
1.07759
1.07762
1.07764
1.07766
1.07766
1.07766
1.07764
1.07762
1.07758
1.07754
1.07749
1.07742
1.07736
1.07728
1.07719
1.0771
1.077
1.07689
1.07678
1.07666
1.07653
1.0764
1.07626
1.07612
1.07597
1.07581
1.07565
1.07549
1.07532
1.07514
1.07496
1.07478
1.07459
1.0744
1.07421
1.07401
1.07381
1.07361
1.0734
1.07319
1.07298
1.07277
1.07256
1.07234
1.07213
1.07191
1.07169
1.07147
1.07125
1.07104
1.07082
1.0706
1.07038
1.07016
1.06994
1.06973
1.06951
1.06929
1.06908
1.06886
1.06864
1.06843
1.06821
1.06799
1.06778
1.06756
1.06734
1.06713
1.06691
1.0667
1.06648
1.06627
1.06606
1.06585
1.06564
1.06544
1.06524
1.06504
1.06485
1.06466
1.06448
1.06431
1.06414
1.06398
1.06383
1.06369
1.06356
1.06343
1.08956
1.08961
1.08967
1.08972
1.08977
1.08982
1.08987
1.08992
1.08997
1.09002
1.09006
1.09011
1.09015
1.09019
1.09023
1.09027
1.09031
1.09035
1.09039
1.09043
1.09047
1.0905
1.09054
1.09058
1.09062
1.09065
1.09069
1.09073
1.09077
1.09082
1.09086
1.09091
1.09095
1.091
1.09105
1.09111
1.09116
1.09122
1.09128
1.09134
1.09141
1.09148
1.09155
1.09163
1.09171
1.09179
1.09188
1.09197
1.09206
1.09216
1.09226
1.09237
1.09248
1.0926
1.09272
1.09285
1.09298
1.09312
1.09327
1.09342
1.09358
1.09374
1.09391
1.09408
1.09427
1.09446
1.09466
1.09486
1.09507
1.09529
1.09552
1.09576
1.096
1.09625
1.0965
1.09677
1.09704
1.09732
1.0976
1.09789
1.09819
1.09849
1.0988
1.09912
1.09944
1.09976
1.10008
1.1004
1.10072
1.10104
1.10134
1.10164
1.10192
1.10219
1.10243
1.10265
1.10285
1.10301
1.10315
1.10325
1.10332
1.10336
1.10337
1.10335
1.1033
1.10323
1.10313
1.10301
1.10287
1.10271
1.10253
1.10233
1.10211
1.10188
1.10162
1.10133
1.10103
1.10069
1.10033
1.09993
1.09951
1.09905
1.09855
1.09803
1.09747
1.09687
1.09625
1.0956
1.09492
1.09422
1.09351
1.09278
1.09205
1.09131
1.09058
1.08986
1.08916
1.08848
1.08782
1.0872
1.08661
1.08606
1.08554
1.08507
1.08464
1.08425
1.08389
1.08357
1.08327
1.08301
1.08276
1.08254
1.08232
1.08212
1.08192
1.08173
1.08153
1.08133
1.08113
1.08093
1.08072
1.0805
1.08028
1.08006
1.07983
1.0796
1.07936
1.07912
1.07888
1.07863
1.07838
1.07814
1.07789
1.07763
1.07738