# vtk DataFile Version 2.0
LBE two cylinders
ASCII
DATASET STRUCTURED_POINTS
DIMENSIONS 400 100 1
ASPECT_RATIO 1 1 1
ORIGIN 0 0 0
POINT_DATA 40000
SCALARS rho double 1
LOOKUP_TABLE default
1.05386
1.0537
1.05353
1.05336
1.05319
1.05303
1.05287
1.05271
1.05255
1.05239
1.05224
1.05209
1.05194
1.05179
1.05165
1.05151
1.05138
1.05125
1.05113
1.05102
1.05092
1.05083
1.05076
1.0507
1.05066
1.05064
1.05066
1.05071
1.05081
1.05098
1.05123
1.05158
1.05207
1.05271
1.05353
1.05459
1.05591
1.05754
1.0595
1.06182
1.06446
1.06737
1.0705
1.07373
1.07697
1.08012
1.08311
1.08588
1.0884
1.09067
1.09272
1.09457
1.09626
1.09781
1.09925
1.1006
1.10187
1.10307
1.10419
1.10524
1.1062
1.10707
1.10784
1.10852
1.1091
1.10957
1.10994
1.11021
1.11038
1.11045
1.11043
1.11031
1.11012
1.10984
1.10949
1.10907
1.1086
1.10806
1.10748
1.10684
1.10618
1.10547
1.10474
1.10399
1.10322
1.10245
1.10167
1.1009
1.10014
1.0994
1.09869
1.09802
1.09739
1.09681
1.09629
1.09584
1.09546
1.09516
1.09494
1.0948
1.09475
1.09479
1.09491
1.09513
1.09542
1.09579
1.09623
1.09674
1.09731
1.09794
1.0986
1.09931
1.10005
1.1008
1.10157
1.10235
1.10313
1.1039
1.10466
1.10539
1.1061
1.10678
1.10742
1.10802
1.10857
1.10906
1.10949
1.10985
1.11014
1.11036
1.11048
1.11052
1.11046
1.11031
1.11005
1.10969
1.10922
1.10864
1.10796
1.10718
1.1063
1.10532
1.10427
1.10314
1.10194
1.10069
1.09938
1.09804
1.09667
1.09527
1.09385
1.09243
1.091
1.08956
1.08814
1.08674
1.08536
1.08402
1.08273
1.0815
1.08035
1.07929
1.07833
1.07748
1.07674
1.07612
1.07561
1.07519
1.07488
1.07465
1.0745
1.07441
1.07437
1.07438
1.07443
1.07451
1.07461
1.07474
1.07489
1.07505
1.07522
1.07541
1.0756
1.07581
1.07602
1.07624
1.07647
1.0767
1.07694
1.07719
1.07744
1.0777
1.07796
1.07823
1.0785
1.07878
1.07907
1.07936
1.07966
1.07996
1.08027
1.08059
1.08091
1.08124
1.08158
1.08192
1.08228
1.08263
1.083
1.08338
1.08376
1.08416
1.08456
1.08498
1.0854
1.08584
1.08629
1.08675
1.08722
1.0877
1.08819
1.08869
1.08919
1.08969
1.09021
1.09073
1.09126
1.09181
1.09237
1.09296
1.09356
1.0942
1.09485
1.09553
1.09623
1.09694
1.09765
1.09833
1.09895
1.09946
1.09972
1.09956
1.09867
1.09667
1.09313
1.08765
1.08006
1.0705
1.05953
1.04804
1.03699
1.0272
1.01916
1.01298
1.00848
1.00537
1.0033
1.00197
1.00115
1.00065
1.00036
1.00019
1.0001
1.00005
1.00003
1.00001
1.00001
1
1
1
1
1
1
1
1
1
1
1
1
1
1
1
1
1
1
1
1
1
1
1
1
1
1
1
1
1
1
1
1
1
1
1
1
1
1
1
1
1
1
1
1
1
1
1
1
1
1
1
1
1
1
1
1
1
1
1
1
1
1
1
1
1
1
1
1
1
1
1
1
1
1
1
1
1
1
1
1
1
1
1
1
1
1
1
1
1
1
1
1
1
1
1
1
1
1
1
1
1
1
1
1
1
1
1
1
1
1
1
1
1
1
1
1
1
1
1
1
1
1
1
1
1
1
1
1
1
1
1
1
1
1.05387
1.0537
1.05353
1.05336
1.0532
1.05303
1.05287
1.05271
1.05256
1.0524
1.05225
1.0521
1.05195
1.05181
1.05167
1.05153
1.05141
1.05128
1.05117
1.05107
1.05098
1.0509
1.05084
1.0508
1.05078
1.05079
1.05083
1.05091
1.05106
1.05127
1.05157
1.05198
1.05253
1.05324
1.05415
1.05529
1.05669
1.05838
1.0604
1.06275
1.06541
1.06834
1.07147
1.07471
1.07798
1.08118
1.08422
1.08705
1.08964
1.09199
1.09409
1.09598
1.09768
1.09922
1.10063
1.10193
1.10314
1.10425
1.10528
1.10622
1.10707
1.10782
1.10849
1.10906
1.10953
1.10991
1.11019
1.11038
1.11048
1.11049
1.11042
1.11027
1.11005
1.10976
1.1094
1.10898
1.1085
1.10798
1.10741
1.1068
1.10615
1.10548
1.10478
1.10406
1.10333
1.10259
1.10185
1.10111
1.10039
1.09969
1.09901
1.09837
1.09777
1.09723
1.09674
1.09631
1.09595
1.09566
1.09545
1.09532
1.09527
1.09531
1.09543
1.09563
1.09591
1.09626
1.09668
1.09716
1.0977
1.09829
1.09892
1.09959
1.10029
1.10101
1.10174
1.10248
1.10322
1.10396
1.10468
1.10538
1.10606
1.10671
1.10733
1.10791
1.10844
1.10893
1.10936
1.10973
1.11004
1.11027
1.11044
1.11052
1.11052
1.11043
1.11025
1.10998
1.10961
1.10914
1.10858
1.10791
1.10715
1.1063
1.10536
1.10434
1.10324
1.10208
1.10085
1.09956
1.09822
1.09685
1.09543
1.094
1.09254
1.09107
1.0896
1.08814
1.08669
1.08528
1.08392
1.08262
1.08139
1.08026
1.07922
1.07828
1.07746
1.07676
1.07616
1.07568
1.07529
1.075
1.07479
1.07465
1.07457
1.07454
1.07456
1.07461
1.0747
1.0748
1.07494
1.07508
1.07525
1.07543
1.07562
1.07582
1.07603
1.07624
1.07647
1.0767
1.07694
1.07718
1.07743
1.07769
1.07795
1.07822
1.07849
1.07877
1.07905
1.07935
1.07964
1.07995
1.08026
1.08057
1.0809
1.08123
1.08156
1.08191
1.08226
1.08261
1.08298
1.08335
1.08374
1.08413
1.08453
1.08495
1.08537
1.08581
1.08625
1.08671
1.08718
1.08765
1.08814
1.08863
1.08913
1.08963
1.09014
1.09066
1.09119
1.09173
1.09229
1.09287
1.09346
1.09408
1.09472
1.09538
1.09605
1.09673
1.09739
1.09802
1.09858
1.09898
1.09908
1.09869
1.09754
1.09532
1.09171
1.08643
1.07933
1.07049
1.0603
1.04943
1.03872
1.02898
1.02076
1.01428
1.00947
1.00607
1.00377
1.00228
1.00134
1.00077
1.00043
1.00023
1.00012
1.00006
1.00003
1.00002
1.00001
1
1
1
1
1
1
1
1
1
1
1
1
1
1
1
1
1
1
1
1
1
1
1
1
1
1
1
1
1
1
1
1
1
1
1
1
1
1
1
1
1
1
1
1
1
1
1
1
1
1
1
1
1
1
1
1
1
1
1
1
1
1
1
1
1
1
1
1
1
1
1
1
1
1
1
1
1
1
1
1
1
1
1
1
1
1
1
1
1
1
1
1
1
1
1
1
1
1
1
1
1
1
1
1
1
1
1
1
1
1
1
1
1
1
1
1
1
1
1
1
1
1
1
1
1
1
1
1
1
1
1
1
1
1.05389
1.05371
1.05354
1.05337
1.05321
1.05305
1.05289
1.05273
1.05257
1.05242
1.05227
1.05213
1.05198
1.05184
1.05171
1.05158
1.05146
1.05135
1.05125
1.05116
1.05109
1.05103
1.051
1.05099
1.051
1.05106
1.05115
1.05129
1.0515
1.05179
1.05218
1.0527
1.05336
1.05419
1.05523
1.0565
1.05803
1.05985
1.06198
1.06443
1.06718
1.07019
1.0734
1.07674
1.0801
1.0834
1.08655
1.08949
1.09217
1.09459
1.09674
1.09864
1.10032
1.10181
1.10314
1.10433
1.10539
1.10634
1.10719
1.10794
1.10859
1.10915
1.10962
1.11001
1.1103
1.11052
1.11065
1.11071
1.1107
1.11061
1.11046
1.11025
1.10998
1.10966
1.10928
1.10886
1.10839
1.10789
1.10735
1.10677
1.10617
1.10554
1.1049
1.10423
1.10356
1.10288
1.10221
1.10154
1.10088
1.10024
1.09963
1.09905
1.09851
1.09801
1.09757
1.09718
1.09686
1.0966
1.09641
1.0963
1.09626
1.09629
1.0964
1.09657
1.09682
1.09714
1.09751
1.09795
1.09844
1.09897
1.09954
1.10014
1.10078
1.10143
1.10209
1.10276
1.10344
1.10411
1.10477
1.10541
1.10604
1.10665
1.10722
1.10777
1.10828
1.10875
1.10918
1.10956
1.1099
1.11018
1.1104
1.11056
1.11065
1.11068
1.11063
1.11051
1.11031
1.11002
1.10965
1.10919
1.10865
1.10801
1.10727
1.10645
1.10553
1.10453
1.10344
1.10227
1.10103
1.09971
1.09833
1.09689
1.0954
1.09388
1.09234
1.09078
1.08923
1.0877
1.08621
1.08477
1.08339
1.0821
1.08091
1.07982
1.07884
1.07798
1.07724
1.07662
1.0761
1.07569
1.07537
1.07513
1.07497
1.07487
1.07483
1.07483
1.07487
1.07494
1.07504
1.07516
1.07531
1.07547
1.07565
1.07584
1.07604
1.07625
1.07647
1.0767
1.07694
1.07718
1.07743
1.07768
1.07794
1.07821
1.07848
1.07876
1.07905
1.07934
1.07963
1.07994
1.08024
1.08056
1.08088
1.08121
1.08155
1.08189
1.08224
1.08259
1.08296
1.08333
1.08371
1.0841
1.08451
1.08492
1.08534
1.08577
1.08621
1.08667
1.08713
1.0876
1.08808
1.08857
1.08906
1.08956
1.09007
1.09059
1.09111
1.09165
1.0922
1.09276
1.09334
1.09395
1.09456
1.09519
1.09583
1.09647
1.09709
1.09766
1.09813
1.09842
1.09839
1.09784
1.09654
1.09422
1.09064
1.08556
1.07887
1.0706
1.06101
1.05064
1.04022
1.03054
1.02219
1.01546
1.01037
1.00672
1.00422
1.00257
1.00153
1.00088
1.0005
1.00027
1.00015
1.00008
1.00004
1.00002
1.00001
1
1
1
1
1
1
1
1
1
1
1
1
1
1
1
1
1
1
1
1
1
1
1
1
1
1
1
1
1
1
1
1
1
1
1
1
1
1
1
1
1
1
1
1
1
1
1
1
1
1
1
1
1
1
1
1
1
1
1
1
1
1
1
1
1
1
1
1
1
1
1
1
1
1
1
1
1
1
1
1
1
1
1
1
1
1
1
1
1
1
1
1
1
1
1
1
1
1
1
1
1
1
1
1
1
1
1
1
1
1
1
1
1
1
1
1
1
1
1
1
1
1
1
1
1
1
1
1
1
1
1
1
1
1.05391
1.05373
1.05356
1.05339
1.05323
1.05307
1.05291
1.05275
1.0526
1.05245
1.05231
1.05217
1.05203
1.0519
1.05177
1.05166
1.05155
1.05146
1.05138
1.05131
1.05127
1.05124
1.05125
1.05128
1.05136
1.05148
1.05165
1.05188
1.0522
1.0526
1.05313
1.05379
1.05461
1.05562
1.05685
1.05831
1.06004
1.06205
1.06435
1.06695
1.06984
1.07298
1.07632
1.07977
1.08324
1.08664
1.08989
1.09291
1.09566
1.0981
1.10025
1.10211
1.10371
1.10508
1.10626
1.10726
1.10811
1.10883
1.10943
1.10993
1.11033
1.11064
1.11087
1.11103
1.11112
1.11114
1.1111
1.11101
1.11086
1.11067
1.11043
1.11016
1.10984
1.10949
1.1091
1.10868
1.10823
1.10775
1.10725
1.10672
1.10618
1.10562
1.10504
1.10446
1.10387
1.10328
1.10269
1.10211
1.10155
1.101
1.10048
1.09999
1.09954
1.09912
1.09875
1.09843
1.09817
1.09795
1.0978
1.0977
1.09767
1.09769
1.09778
1.09793
1.09813
1.09839
1.0987
1.09906
1.09947
1.09991
1.10039
1.1009
1.10144
1.10199
1.10256
1.10314
1.10372
1.10431
1.10488
1.10545
1.10601
1.10655
1.10708
1.10758
1.10805
1.10851
1.10893
1.10932
1.10968
1.11
1.11028
1.11053
1.11073
1.11088
1.11099
1.11104
1.11103
1.11096
1.11082
1.11061
1.11033
1.10995
1.10949
1.10893
1.10827
1.10751
1.10664
1.10566
1.10457
1.10338
1.10209
1.10071
1.09925
1.09771
1.09612
1.09448
1.09283
1.09117
1.08952
1.08791
1.08635
1.08486
1.08346
1.08215
1.08096
1.07989
1.07893
1.07811
1.0774
1.07681
1.07632
1.07594
1.07565
1.07543
1.07529
1.0752
1.07517
1.07518
1.07523
1.07531
1.07542
1.07556
1.07571
1.07589
1.07607
1.07628
1.07649
1.07671
1.07694
1.07718
1.07743
1.07768
1.07794
1.07821
1.07848
1.07875
1.07904
1.07933
1.07962
1.07993
1.08023
1.08055
1.08087
1.0812
1.08153
1.08187
1.08222
1.08258
1.08294
1.08331
1.08369
1.08408
1.08448
1.08489
1.08531
1.08574
1.08618
1.08663
1.08708
1.08755
1.08803
1.08851
1.089
1.08949
1.09
1.09051
1.09103
1.09156
1.0921
1.09266
1.09323
1.09381
1.09441
1.09502
1.09563
1.09623
1.09681
1.09733
1.09773
1.09793
1.09778
1.0971
1.09567
1.09324
1.0896
1.08461
1.07818
1.07035
1.06133
1.05152
1.04152
1.03203
1.02363
1.01672
1.01136
1.00745
1.00473
1.00291
1.00174
1.00102
1.00058
1.00032
1.00017
1.00009
1.00005
1.00002
1.00001
1.00001
1
1
1
1
1
1
1
1
1
1
1
1
1
1
1
1
1
1
1
1
1
1
1
1
1
1
1
1
1
1
1
1
1
1
1
1
1
1
1
1
1
1
1
1
1
1
1
1
1
1
1
1
1
1
1
1
1
1
1
1
1
1
1
1
1
1
1
1
1
1
1
1
1
1
1
1
1
1
1
1
1
1
1
1
1
1
1
1
1
1
1
1
1
1
1
1
1
1
1
1
1
1
1
1
1
1
1
1
1
1
1
1
1
1
1
1
1
1
1
1
1
1
1
1
1
1
1
1
1
1
1
1
1.05393
1.05375
1.05358
1.05342
1.05326
1.0531
1.05294
1.05279
1.05264
1.0525
1.05236
1.05223
1.0521
1.05198
1.05187
1.05177
1.05168
1.05161
1.05156
1.05153
1.05153
1.05156
1.05162
1.05173
1.05189
1.0521
1.05239
1.05275
1.05321
1.05379
1.05449
1.05536
1.0564
1.05765
1.05912
1.06084
1.06281
1.06505
1.06756
1.07035
1.07339
1.07665
1.08008
1.08361
1.08715
1.09061
1.09389
1.09692
1.09965
1.10205
1.10411
1.10584
1.10728
1.10846
1.10941
1.11017
1.11075
1.1112
1.11152
1.11174
1.11187
1.11192
1.11191
1.11184
1.11172
1.11156
1.11136
1.11113
1.11087
1.11058
1.11027
1.10993
1.10958
1.10921
1.10882
1.10841
1.10799
1.10755
1.10709
1.10663
1.10615
1.10566
1.10517
1.10467
1.10418
1.10369
1.1032
1.10273
1.10228
1.10184
1.10143
1.10105
1.10069
1.10038
1.1001
1.09986
1.09966
1.0995
1.09938
1.09931
1.09929
1.0993
1.09937
1.09947
1.09962
1.09981
1.10004
1.10031
1.10062
1.10096
1.10133
1.10173
1.10215
1.1026
1.10306
1.10353
1.10401
1.1045
1.10498
1.10547
1.10594
1.10641
1.10687
1.10732
1.10776
1.10818
1.10858
1.10897
1.10934
1.1097
1.11003
1.11035
1.11064
1.11091
1.11115
1.11136
1.11154
1.11168
1.11177
1.11181
1.11178
1.11169
1.11151
1.11125
1.11088
1.11041
1.10981
1.10909
1.10825
1.10727
1.10616
1.10492
1.10356
1.1021
1.10054
1.0989
1.09721
1.09547
1.09371
1.09195
1.09021
1.08852
1.08689
1.08535
1.0839
1.08256
1.08134
1.08025
1.07929
1.07846
1.07775
1.07717
1.07669
1.0763
1.07601
1.0758
1.07566
1.07558
1.07555
1.07557
1.07562
1.07571
1.07583
1.07598
1.07614
1.07633
1.07652
1.07674
1.07696
1.07719
1.07743
1.07768
1.07794
1.0782
1.07847
1.07875
1.07903
1.07932
1.07962
1.07992
1.08022
1.08054
1.08086
1.08118
1.08152
1.08186
1.0822
1.08256
1.08292
1.08329
1.08367
1.08406
1.08446
1.08487
1.08528
1.08571
1.08615
1.08659
1.08704
1.08751
1.08798
1.08845
1.08894
1.08943
1.08993
1.09044
1.09096
1.09149
1.09202
1.09257
1.09313
1.0937
1.09428
1.09487
1.09545
1.09602
1.09656
1.09703
1.09737
1.09747
1.09718
1.09633
1.09471
1.09211
1.0884
1.08347
1.0773
1.06993
1.06149
1.05228
1.04275
1.0335
1.02512
1.01804
1.01244
1.00826
1.0053
1.0033
1.00199
1.00117
1.00067
1.00037
1.0002
1.00011
1.00006
1.00003
1.00001
1.00001
1
1
1
1
1
1
1
1
1
1
1
1
1
1
1
1
1
1
1
1
1
1
1
1
1
1
1
1
1
1
1
1
1
1
1
1
1
1
1
1
1
1
1
1
1
1
1
1
1
1
1
1
1
1
1
1
1
1
1
1
1
1
1
1
1
1
1
1
1
1
1
1
1
1
1
1
1
1
1
1
1
1
1
1
1
1
1
1
1
1
1
1
1
1
1
1
1
1
1
1
1
1
1
1
1
1
1
1
1
1
1
1
1
1
1
1
1
1
1
1
1
1
1
1
1
1
1
1
1
1
1
1
1.05395
1.05378
1.05361
1.05345
1.05329
1.05314
1.05299
1.05284
1.0527
1.05256
1.05243
1.05231
1.0522
1.05209
1.052
1.05193
1.05187
1.05184
1.05183
1.05185
1.05191
1.05202
1.05217
1.05238
1.05266
1.05301
1.05346
1.054
1.05466
1.05545
1.0564
1.05752
1.05884
1.06038
1.06214
1.06415
1.06639
1.06888
1.07159
1.07453
1.07768
1.08101
1.08447
1.088
1.0915
1.0949
1.0981
1.10103
1.10363
1.10587
1.10775
1.10928
1.11049
1.11141
1.11209
1.11257
1.11288
1.11304
1.11309
1.11305
1.11293
1.11276
1.11253
1.11227
1.11199
1.11168
1.11135
1.11101
1.11067
1.11031
1.10995
1.10959
1.10922
1.10884
1.10846
1.10808
1.10769
1.10729
1.10689
1.10648
1.10608
1.10567
1.10526
1.10486
1.10447
1.10408
1.10371
1.10336
1.10303
1.10272
1.10243
1.10217
1.10194
1.10174
1.10157
1.10142
1.1013
1.10121
1.10115
1.1011
1.10109
1.1011
1.10113
1.10118
1.10127
1.10137
1.10151
1.10167
1.10186
1.10208
1.10233
1.1026
1.1029
1.10322
1.10356
1.10391
1.10428
1.10467
1.10506
1.10545
1.10585
1.10624
1.10664
1.10703
1.10742
1.1078
1.10818
1.10855
1.10892
1.10929
1.10965
1.11001
1.11037
1.11072
1.11106
1.1114
1.11172
1.11202
1.1123
1.11255
1.11276
1.11291
1.113
1.11301
1.11294
1.11276
1.11247
1.11204
1.11149
1.11079
1.10994
1.10894
1.1078
1.10652
1.10512
1.10359
1.10196
1.10025
1.09848
1.09666
1.09481
1.09297
1.09115
1.08938
1.08768
1.08606
1.08455
1.08316
1.0819
1.08078
1.07979
1.07893
1.07821
1.0776
1.07711
1.07672
1.07642
1.07621
1.07606
1.07598
1.07595
1.07597
1.07604
1.07613
1.07626
1.07642
1.07659
1.07678
1.07699
1.07722
1.07745
1.0777
1.07795
1.07821
1.07848
1.07875
1.07903
1.07932
1.07961
1.07991
1.08022
1.08053
1.08085
1.08118
1.08151
1.08185
1.08219
1.08255
1.08291
1.08328
1.08366
1.08405
1.08444
1.08485
1.08526
1.08569
1.08612
1.08656
1.08701
1.08747
1.08794
1.08841
1.08889
1.08938
1.08988
1.09039
1.0909
1.09142
1.09196
1.0925
1.09305
1.0936
1.09416
1.09472
1.09528
1.09581
1.0963
1.09671
1.09697
1.09696
1.09653
1.0955
1.09369
1.09093
1.08712
1.08222
1.07628
1.06933
1.06147
1.05287
1.04386
1.03493
1.02663
1.01943
1.01359
1.00914
1.00594
1.00373
1.00227
1.00135
1.00078
1.00044
1.00024
1.00013
1.00007
1.00003
1.00002
1.00001
1
1
1
1
1
1
1
1
1
1
1
1
1
1
1
1
1
1
1
1
1
1
1
1
1
1
1
1
1
1
1
1
1
1
1
1
1
1
1
1
1
1
1
1
1
1
1
1
1
1
1
1
1
1
1
1
1
1
1
1
1
1
1
1
1
1
1
1
1
1
1
1
1
1
1
1
1
1
1
1
1
1
1
1
1
1
1
1
1
1
1
1
1
1
1
1
1
1
1
1
1
1
1
1
1
1
1
1
1
1
1
1
1
1
1
1
1
1
1
1
1
1
1
1
1
1
1
1
1
1
1
1
1.05398
1.05381
1.05365
1.0535
1.05334
1.05319
1.05305
1.05291
1.05278
1.05265
1.05253
1.05243
1.05233
1.05225
1.05219
1.05216
1.05214
1.05216
1.05222
1.05232
1.05247
1.05268
1.05296
1.05332
1.05376
1.0543
1.05496
1.05573
1.05665
1.05772
1.05895
1.06038
1.06202
1.06387
1.06594
1.06824
1.07074
1.07343
1.07629
1.07931
1.08248
1.08576
1.08913
1.09251
1.09585
1.09905
1.10205
1.10475
1.10712
1.10911
1.11073
1.112
1.11293
1.11358
1.11399
1.1142
1.11425
1.11417
1.11399
1.11374
1.11343
1.11308
1.1127
1.11231
1.11191
1.1115
1.1111
1.11069
1.1103
1.10991
1.10953
1.10915
1.10879
1.10842
1.10806
1.10771
1.10735
1.107
1.10666
1.10631
1.10597
1.10564
1.10532
1.10501
1.10471
1.10443
1.10417
1.10393
1.10372
1.10353
1.10336
1.10323
1.10311
1.10302
1.10295
1.1029
1.10286
1.10283
1.10282
1.1028
1.1028
1.10279
1.1028
1.1028
1.10282
1.10285
1.10289
1.10295
1.10303
1.10313
1.10326
1.10341
1.10358
1.10378
1.10401
1.10425
1.10452
1.10481
1.1051
1.10541
1.10573
1.10606
1.10639
1.10673
1.10707
1.10741
1.10776
1.10811
1.10847
1.10883
1.1092
1.10958
1.10996
1.11036
1.11076
1.11117
1.11158
1.112
1.1124
1.1128
1.11317
1.11352
1.11381
1.11406
1.11423
1.11431
1.1143
1.11417
1.11391
1.11352
1.11298
1.1123
1.11146
1.11046
1.10932
1.10804
1.10661
1.10507
1.10341
1.10166
1.09983
1.09795
1.09604
1.09412
1.09221
1.09036
1.08857
1.08688
1.0853
1.08385
1.08254
1.08137
1.08034
1.07945
1.0787
1.07807
1.07756
1.07716
1.07685
1.07662
1.07648
1.0764
1.07637
1.0764
1.07647
1.07657
1.07671
1.07688
1.07706
1.07727
1.07749
1.07772
1.07797
1.07822
1.07849
1.07876
1.07904
1.07932
1.07961
1.07991
1.08022
1.08053
1.08085
1.08117
1.0815
1.08184
1.08219
1.08254
1.0829
1.08327
1.08365
1.08404
1.08443
1.08484
1.08525
1.08567
1.0861
1.08654
1.08698
1.08744
1.0879
1.08837
1.08885
1.08934
1.08983
1.09034
1.09085
1.09137
1.09189
1.09243
1.09296
1.0935
1.09404
1.09458
1.0951
1.0956
1.09604
1.09638
1.09655
1.09642
1.09584
1.09463
1.09262
1.08968
1.08575
1.08088
1.07514
1.06859
1.0613
1.05332
1.04488
1.03632
1.02816
1.02088
1.01482
1.0101
1.00663
1.00421
1.00259
1.00155
1.0009
1.00051
1.00028
1.00015
1.00008
1.00004
1.00002
1.00001
1
1
1
1
1
1
1
1
1
1
1
1
1
1
1
1
1
1
1
1
1
1
1
1
1
1
1
1
1
1
1
1
1
1
1
1
1
1
1
1
1
1
1
1
1
1
1
1
1
1
1
1
1
1
1
1
1
1
1
1
1
1
1
1
1
1
1
1
1
1
1
1
1
1
1
1
1
1
1
1
1
1
1
1
1
1
1
1
1
1
1
1
1
1
1
1
1
1
1
1
1
1
1
1
1
1
1
1
1
1
1
1
1
1
1
1
1
1
1
1
1
1
1
1
1
1
1
1
1
1
1
1
1.05402
1.05386
1.05371
1.05355
1.05341
1.05326
1.05313
1.053
1.05288
1.05277
1.05267
1.05259
1.05252
1.05248
1.05247
1.05248
1.05254
1.05264
1.05279
1.053
1.05328
1.05364
1.05409
1.05464
1.0553
1.05609
1.057
1.05807
1.05929
1.06067
1.06224
1.06399
1.06595
1.06811
1.07046
1.07299
1.07567
1.07848
1.08138
1.08436
1.0874
1.09049
1.09361
1.09671
1.09974
1.10263
1.1053
1.10769
1.10974
1.11144
1.11277
1.11376
1.11443
1.11483
1.115
1.11499
1.11484
1.11458
1.11424
1.11385
1.11342
1.11296
1.1125
1.11203
1.11157
1.11112
1.11068
1.11026
1.10985
1.10945
1.10907
1.10871
1.10835
1.10801
1.10768
1.10736
1.10704
1.10674
1.10644
1.10615
1.10588
1.10562
1.10537
1.10514
1.10494
1.10476
1.1046
1.10448
1.10438
1.10431
1.10427
1.10426
1.10426
1.10428
1.10432
1.10435
1.10439
1.10443
1.10446
1.10447
1.10448
1.10446
1.10444
1.1044
1.10435
1.1043
1.10425
1.10421
1.10417
1.10416
1.10416
1.10419
1.10425
1.10433
1.10444
1.10458
1.10475
1.10494
1.10516
1.10539
1.10564
1.1059
1.10618
1.10646
1.10676
1.10706
1.10737
1.1077
1.10803
1.10838
1.10874
1.10911
1.1095
1.1099
1.11033
1.11077
1.11122
1.11169
1.11216
1.11264
1.11311
1.11357
1.114
1.1144
1.11475
1.11503
1.11524
1.11536
1.11537
1.11527
1.11505
1.11469
1.11419
1.11354
1.11274
1.11179
1.11069
1.10944
1.10804
1.10651
1.10484
1.10307
1.1012
1.09926
1.09728
1.09527
1.09329
1.09135
1.08948
1.08772
1.08607
1.08456
1.08319
1.08197
1.08091
1.07998
1.0792
1.07855
1.07802
1.0776
1.07728
1.07705
1.0769
1.07682
1.0768
1.07684
1.07692
1.07703
1.07718
1.07736
1.07755
1.07777
1.078
1.07825
1.07851
1.07877
1.07905
1.07933
1.07962
1.07992
1.08022
1.08053
1.08085
1.08117
1.0815
1.08184
1.08218
1.08254
1.0829
1.08327
1.08364
1.08403
1.08442
1.08483
1.08524
1.08566
1.08608
1.08652
1.08696
1.08741
1.08787
1.08833
1.08881
1.08929
1.08979
1.09029
1.0908
1.09131
1.09183
1.09236
1.09288
1.0934
1.09392
1.09443
1.09492
1.09538
1.09577
1.09604
1.09611
1.09586
1.09511
1.0937
1.09148
1.08835
1.08431
1.07945
1.0739
1.06774
1.06099
1.05365
1.04579
1.03765
1.02968
1.02237
1.01612
1.01113
1.00739
1.00474
1.00294
1.00177
1.00104
1.00059
1.00033
1.00018
1.00009
1.00005
1.00002
1.00001
1.00001
1
1
1
1
1
1
1
1
1
1
1
1
1
1
1
1
1
1
1
1
1
1
1
1
1
1
1
1
1
1
1
1
1
1
1
1
1
1
1
1
1
1
1
1
1
1
1
1
1
1
1
1
1
1
1
1
1
1
1
1
1
1
1
1
1
1
1
1
1
1
1
1
1
1
1
1
1
1
1
1
1
1
1
1
1
1
1
1
1
1
1
1
1
1
1
1
1
1
1
1
1
1
1
1
1
1
1
1
1
1
1
1
1
1
1
1
1
1
1
1
1
1
1
1
1
1
1
1
1
1
1
1.05407
1.05392
1.05377
1.05363
1.05349
1.05335
1.05323
1.05312
1.05301
1.05293
1.05286
1.05281
1.05279
1.0528
1.05285
1.05295
1.0531
1.05331
1.05359
1.05396
1.05441
1.05497
1.05565
1.05645
1.05739
1.05847
1.0597
1.06109
1.06264
1.06436
1.06625
1.06831
1.07055
1.07295
1.0755
1.07816
1.0809
1.08367
1.08646
1.08925
1.09202
1.09478
1.09752
1.10022
1.10284
1.10532
1.1076
1.10963
1.11136
1.11276
1.11382
1.11456
1.11501
1.11522
1.11522
1.11506
1.11478
1.11442
1.11399
1.11353
1.11304
1.11254
1.11205
1.11156
1.11109
1.11064
1.1102
1.10978
1.10938
1.109
1.10864
1.10829
1.10796
1.10765
1.10734
1.10705
1.10678
1.10651
1.10626
1.10602
1.1058
1.1056
1.10543
1.10528
1.10515
1.10506
1.105
1.10497
1.10497
1.105
1.10506
1.10514
1.10524
1.10535
1.10547
1.10558
1.10568
1.10576
1.10583
1.10586
1.10587
1.10585
1.1058
1.10573
1.10563
1.10552
1.1054
1.10527
1.10515
1.10504
1.10495
1.10488
1.10484
1.10482
1.10484
1.10489
1.10497
1.10509
1.10523
1.10539
1.10558
1.10579
1.10601
1.10625
1.10651
1.10677
1.10705
1.10735
1.10766
1.10798
1.10832
1.10867
1.10905
1.10944
1.10985
1.11029
1.11074
1.11122
1.11171
1.11221
1.11271
1.11322
1.11372
1.11419
1.11464
1.11506
1.11541
1.11571
1.11593
1.11607
1.11612
1.11605
1.11588
1.11558
1.11515
1.11458
1.11386
1.11298
1.11195
1.11075
1.10939
1.10788
1.10621
1.10441
1.1025
1.1005
1.09845
1.09638
1.09432
1.0923
1.09037
1.08853
1.08682
1.08526
1.08384
1.08257
1.08146
1.0805
1.07969
1.07901
1.07846
1.07803
1.07771
1.07748
1.07733
1.07726
1.07725
1.07729
1.07738
1.07751
1.07767
1.07786
1.07807
1.0783
1.07854
1.0788
1.07907
1.07934
1.07963
1.07993
1.08023
1.08054
1.08085
1.08117
1.0815
1.08184
1.08218
1.08254
1.0829
1.08327
1.08364
1.08403
1.08442
1.08482
1.08523
1.08564
1.08607
1.0865
1.08694
1.08738
1.08784
1.0883
1.08877
1.08926
1.08974
1.09024
1.09075
1.09126
1.09177
1.09229
1.0928
1.0933
1.0938
1.09428
1.09474
1.09515
1.09549
1.09569
1.09565
1.09526
1.09433
1.09272
1.09027
1.08694
1.08279
1.07794
1.07257
1.06679
1.06058
1.05386
1.0466
1.03892
1.03119
1.02388
1.01747
1.01223
1.00822
1.00532
1.00333
1.00202
1.00119
1.00069
1.00038
1.00021
1.00011
1.00006
1.00003
1.00001
1.00001
1
1
1
1
1
1
1
1
1
1
1
1
1
1
1
1
1
1
1
1
1
1
1
1
1
1
1
1
1
1
1
1
1
1
1
1
1
1
1
1
1
1
1
1
1
1
1
1
1
1
1
1
1
1
1
1
1
1
1
1
1
1
1
1
1
1
1
1
1
1
1
1
1
1
1
1
1
1
1
1
1
1
1
1
1
1
1
1
1
1
1
1
1
1
1
1
1
1
1
1
1
1
1
1
1
1
1
1
1
1
1
1
1
1
1
1
1
1
1
1
1
1
1
1
1
1
1
1
1
1
1
1.05414
1.05399
1.05385
1.05372
1.05359
1.05347
1.05337
1.05327
1.0532
1.05315
1.05312
1.05312
1.05317
1.05326
1.05341
1.05361
1.0539
1.05426
1.05472
1.05529
1.05598
1.0568
1.05775
1.05886
1.06012
1.06154
1.06311
1.06484
1.06672
1.06874
1.0709
1.07319
1.07561
1.07814
1.08074
1.08338
1.08601
1.08861
1.09113
1.09358
1.09596
1.09828
1.10055
1.10279
1.10495
1.107
1.1089
1.11058
1.11201
1.11315
1.11399
1.11454
1.11484
1.11492
1.11482
1.11459
1.11425
1.11385
1.1134
1.11293
1.11245
1.11196
1.11149
1.11102
1.11057
1.11014
1.10973
1.10934
1.10897
1.10861
1.10828
1.10796
1.10766
1.10737
1.10709
1.10683
1.10659
1.10636
1.10615
1.10595
1.10578
1.10564
1.10552
1.10544
1.10539
1.10537
1.1054
1.10545
1.10555
1.10567
1.10582
1.10599
1.10618
1.10636
1.10655
1.10672
1.10687
1.10699
1.10708
1.10714
1.10715
1.10712
1.10706
1.10696
1.10682
1.10666
1.10648
1.10628
1.10609
1.10589
1.10571
1.10555
1.10542
1.10532
1.10525
1.10522
1.10522
1.10526
1.10534
1.10544
1.10558
1.10574
1.10592
1.10612
1.10634
1.10658
1.10683
1.10709
1.10737
1.10767
1.10798
1.10831
1.10866
1.10903
1.10941
1.10982
1.11025
1.11069
1.11116
1.11164
1.11213
1.11263
1.11313
1.11362
1.11411
1.11457
1.11501
1.11542
1.11578
1.11609
1.11634
1.11652
1.11662
1.11663
1.11653
1.11633
1.11599
1.11551
1.11488
1.11409
1.11312
1.11197
1.11064
1.10913
1.10745
1.10562
1.10367
1.10162
1.09952
1.09738
1.09526
1.09319
1.09119
1.0893
1.08753
1.08591
1.08444
1.08313
1.08198
1.08099
1.08015
1.07945
1.07889
1.07845
1.07813
1.0779
1.07776
1.0777
1.0777
1.07776
1.07786
1.078
1.07818
1.07838
1.0786
1.07884
1.0791
1.07937
1.07965
1.07994
1.08024
1.08054
1.08086
1.08118
1.08151
1.08184
1.08219
1.08254
1.0829
1.08327
1.08364
1.08403
1.08442
1.08482
1.08522
1.08564
1.08606
1.08648
1.08692
1.08736
1.08781
1.08827
1.08874
1.08922
1.08971
1.0902
1.0907
1.09121
1.09171
1.09222
1.09272
1.0932
1.09368
1.09413
1.09455
1.09492
1.0952
1.09531
1.09517
1.09462
1.0935
1.09166
1.08898
1.08546
1.08118
1.07636
1.07118
1.06576
1.06007
1.05397
1.04732
1.04012
1.03267
1.02541
1.01887
1.01338
1.0091
1.00595
1.00376
1.0023
1.00137
1.00079
1.00045
1.00024
1.00013
1.00007
1.00003
1.00002
1.00001
1
1
1
1
1
1
1
1
1
1
1
1
1
1
1
1
1
1
1
1
1
1
1
1
1
1
1
1
1
1
1
1
1
1
1
1
1
1
1
1
1
1
1
1
1
1
1
1
1
1
1
1
1
1
1
1
1
1
1
1
1
1
1
1
1
1
1
1
1
1
1
1
1
1
1
1
1
1
1
1
1
1
1
1
1
1
1
1
1
1
1
1
1
1
1
1
1
1
1
1
1
1
1
1
1
1
1
1
1
1
1
1
1
1
1
1
1
1
1
1
1
1
1
1
1
1
1
1
1
1
1
1.05423
1.05409
1.05396
1.05384
1.05372
1.05363
1.05355
1.05349
1.05345
1.05345
1.05348
1.05357
1.0537
1.05391
1.05418
1.05455
1.05501
1.05558
1.05628
1.05711
1.05809
1.05922
1.0605
1.06195
1.06356
1.06532
1.06722
1.06925
1.07139
1.07362
1.07595
1.07834
1.08079
1.08328
1.08578
1.08824
1.09063
1.09291
1.09505
1.09708
1.09899
1.10082
1.10261
1.10437
1.10609
1.10775
1.1093
1.11068
1.11186
1.1128
1.11349
1.11392
1.11414
1.11416
1.11402
1.11377
1.11344
1.11305
1.11264
1.1122
1.11176
1.11133
1.1109
1.11048
1.11008
1.10969
1.10932
1.10896
1.10863
1.1083
1.108
1.1077
1.10743
1.10716
1.10691
1.10668
1.10646
1.10626
1.10609
1.10593
1.10581
1.10571
1.10565
1.10562
1.10563
1.10568
1.10577
1.1059
1.10606
1.10626
1.10647
1.1067
1.10694
1.10717
1.1074
1.1076
1.10778
1.10793
1.10803
1.10809
1.10811
1.10808
1.10801
1.10789
1.10773
1.10754
1.10733
1.10709
1.10685
1.1066
1.10636
1.10614
1.10594
1.10577
1.10564
1.10554
1.10548
1.10546
1.10547
1.10553
1.10562
1.10573
1.10588
1.10605
1.10624
1.10645
1.10667
1.10691
1.10717
1.10744
1.10773
1.10803
1.10835
1.10868
1.10903
1.1094
1.10978
1.11018
1.1106
1.11103
1.11147
1.11192
1.11238
1.11285
1.11332
1.11378
1.11425
1.1147
1.11514
1.11555
1.11594
1.1163
1.11661
1.11686
1.11704
1.11715
1.11715
1.11704
1.11679
1.1164
1.11584
1.11511
1.11418
1.11306
1.11173
1.11022
1.10853
1.10667
1.10469
1.10261
1.10046
1.09828
1.09611
1.09399
1.09194
1.09
1.08818
1.0865
1.08499
1.08363
1.08245
1.08143
1.08057
1.07986
1.0793
1.07886
1.07854
1.07832
1.0782
1.07815
1.07816
1.07824
1.07836
1.07851
1.0787
1.07892
1.07916
1.07941
1.07968
1.07996
1.08026
1.08056
1.08087
1.08119
1.08152
1.08185
1.08219
1.08254
1.0829
1.08327
1.08365
1.08403
1.08442
1.08482
1.08522
1.08563
1.08605
1.08647
1.0869
1.08734
1.08779
1.08825
1.08871
1.08919
1.08967
1.09016
1.09066
1.09116
1.09166
1.09215
1.09264
1.0931
1.09356
1.09398
1.09436
1.09469
1.0949
1.09492
1.09465
1.09393
1.0926
1.09052
1.08761
1.08388
1.07951
1.07472
1.06974
1.06469
1.05951
1.054
1.04794
1.04125
1.03411
1.02695
1.0203
1.01459
1.01003
1.00663
1.00423
1.00261
1.00156
1.00091
1.00051
1.00028
1.00015
1.00008
1.00004
1.00002
1.00001
1
1
1
1
1
1
1
1
1
1
1
1
1
1
1
1
1
1
1
1
1
1
1
1
1
1
1
1
1
1
1
1
1
1
1
1
1
1
1
1
1
1
1
1
1
1
1
1
1
1
1
1
1
1
1
1
1
1
1
1
1
1
1
1
1
1
1
1
1
1
1
1
1
1
1
1
1
1
1
1
1
1
1
1
1
1
1
1
1
1
1
1
1
1
1
1
1
1
1
1
1
1
1
1
1
1
1
1
1
1
1
1
1
1
1
1
1
1
1
1
1
1
1
1
1
1
1
1
1
1
1
1.05434
1.05421
1.05409
1.05399
1.0539
1.05383
1.05379
1.05378
1.0538
1.05387
1.054
1.05419
1.05445
1.05481
1.05527
1.05584
1.05654
1.05738
1.05836
1.05951
1.06083
1.0623
1.06394
1.06574
1.06767
1.06973
1.07189
1.07412
1.0764
1.07872
1.08105
1.08339
1.08571
1.08801
1.09025
1.09241
1.09444
1.09632
1.09804
1.09961
1.10105
1.10242
1.10376
1.10509
1.10642
1.10773
1.10899
1.11015
1.11114
1.11195
1.11254
1.11293
1.11311
1.11312
1.113
1.11278
1.1125
1.11216
1.1118
1.11144
1.11106
1.1107
1.11033
1.10998
1.10964
1.1093
1.10898
1.10867
1.10837
1.10808
1.1078
1.10753
1.10728
1.10704
1.10681
1.1066
1.10641
1.10624
1.10609
1.10597
1.10588
1.10583
1.10581
1.10584
1.1059
1.10602
1.10617
1.10636
1.10658
1.10683
1.10709
1.10737
1.10765
1.10792
1.10818
1.10841
1.10861
1.10877
1.10888
1.10895
1.10897
1.10894
1.10886
1.10873
1.10856
1.10835
1.10811
1.10784
1.10756
1.10728
1.10699
1.10672
1.10646
1.10623
1.10604
1.10588
1.10576
1.10569
1.10565
1.10566
1.10571
1.10579
1.1059
1.10604
1.10621
1.10639
1.10659
1.10681
1.10705
1.1073
1.10756
1.10783
1.10812
1.10841
1.10872
1.10904
1.10937
1.10971
1.11007
1.11043
1.1108
1.11119
1.11158
1.11199
1.11241
1.11284
1.11329
1.11375
1.11421
1.11468
1.11516
1.11562
1.11608
1.11651
1.1169
1.11725
1.11752
1.11771
1.11779
1.11775
1.11757
1.11723
1.11671
1.116
1.11509
1.11397
1.11265
1.11113
1.10943
1.10756
1.10556
1.10345
1.10128
1.09907
1.09686
1.0947
1.0926
1.0906
1.08874
1.08701
1.08545
1.08407
1.08286
1.08182
1.08095
1.08024
1.07968
1.07925
1.07895
1.07874
1.07863
1.0786
1.07864
1.07873
1.07887
1.07904
1.07925
1.07948
1.07973
1.08
1.08029
1.08058
1.08089
1.0812
1.08153
1.08186
1.0822
1.08255
1.08291
1.08328
1.08365
1.08403
1.08442
1.08482
1.08522
1.08563
1.08604
1.08646
1.08689
1.08733
1.08777
1.08823
1.08869
1.08916
1.08964
1.09013
1.09062
1.09111
1.0916
1.09208
1.09255
1.093
1.09343
1.09383
1.09417
1.09444
1.09458
1.0945
1.09408
1.09318
1.09163
1.08929
1.08614
1.08223
1.07777
1.07304
1.06827
1.06359
1.05889
1.05395
1.04848
1.0423
1.0355
1.02848
1.02176
1.01584
1.01102
1.00736
1.00473
1.00294
1.00177
1.00104
1.00059
1.00033
1.00018
1.00009
1.00005
1.00002
1.00001
1.00001
1
1
1
1
1
1
1
1
1
1
1
1
1
1
1
1
1
1
1
1
1
1
1
1
1
1
1
1
1
1
1
1
1
1
1
1
1
1
1
1
1
1
1
1
1
1
1
1
1
1
1
1
1
1
1
1
1
1
1
1
1
1
1
1
1
1
1
1
1
1
1
1
1
1
1
1
1
1
1
1
1
1
1
1
1
1
1
1
1
1
1
1
1
1
1
1
1
1
1
1
1
1
1
1
1
1
1
1
1
1
1
1
1
1
1
1
1
1
1
1
1
1
1
1
1
1
1
1
1
1
1.05448
1.05436
1.05427
1.05419
1.05413
1.05411
1.05412
1.05418
1.05429
1.05446
1.05471
1.05505
1.05549
1.05605
1.05675
1.05758
1.05858
1.05974
1.06107
1.06257
1.06424
1.06608
1.06805
1.07014
1.07233
1.07459
1.07687
1.07916
1.08143
1.08366
1.08583
1.08796
1.09002
1.09201
1.09391
1.09569
1.09733
1.0988
1.10009
1.10123
1.10225
1.10321
1.10415
1.10512
1.10613
1.10718
1.10822
1.1092
1.11008
1.11081
1.11136
1.11173
1.11193
1.11198
1.1119
1.11174
1.11152
1.11126
1.11097
1.11068
1.11039
1.1101
1.10981
1.10952
1.10924
1.10896
1.10869
1.10842
1.10816
1.1079
1.10765
1.10741
1.10718
1.10696
1.10675
1.10657
1.1064
1.10625
1.10613
1.10604
1.10599
1.10597
1.106
1.10607
1.10618
1.10634
1.10653
1.10677
1.10703
1.10731
1.10761
1.10791
1.10821
1.10849
1.10876
1.109
1.1092
1.10936
1.10948
1.10955
1.10957
1.10954
1.10946
1.10933
1.10916
1.10894
1.10869
1.10842
1.10812
1.10782
1.10751
1.10721
1.10692
1.10665
1.10641
1.10621
1.10605
1.10593
1.10585
1.10582
1.10583
1.10587
1.10595
1.10607
1.10621
1.10637
1.10655
1.10675
1.10697
1.10719
1.10743
1.10768
1.10793
1.10819
1.10846
1.10873
1.109
1.10928
1.10957
1.10986
1.11016
1.11047
1.11079
1.11113
1.11148
1.11186
1.11227
1.1127
1.11316
1.11365
1.11417
1.1147
1.11525
1.1158
1.11634
1.11685
1.11733
1.11774
1.11808
1.11833