# vtk DataFile Version 2.0
LBE mesh
ASCII
DATASET STRUCTURED_POINTS
DIMENSIONS 400 100 1
ASPECT_RATIO 1 1 1
ORIGIN 0 0 0
POINT_DATA 40000
SCALARS rho double 1
LOOKUP_TABLE default
1.02651
1.07865
1.09434
1.09846
1.10067
1.10235
1.10352
1.10429
1.10481
1.1052
1.10548
1.1057
1.10586
1.10598
1.10607
1.10614
1.10619
1.10622
1.10623
1.10623
1.10623
1.10621
1.10619
1.10616
1.10612
1.10608
1.10603
1.10599
1.10594
1.10588
1.10583
1.10577
1.10571
1.10565
1.10559
1.10553
1.10547
1.10541
1.10536
1.1053
1.10524
1.10519
1.10514
1.10509
1.10504
1.105
1.10496
1.10492
1.10489
1.10486
1.10484
1.10482
1.10481
1.1048
1.1048
1.10481
1.10482
1.10484
1.10487
1.10491
1.10496
1.10501
1.10507
1.10515
1.10523
1.10532
1.10542
1.10553
1.10565
1.10578
1.10592
1.10607
1.10623
1.1064
1.10658
1.10677
1.10697
1.10717
1.10739
1.10761
1.10784
1.10808
1.10832
1.10857
1.10883
1.10909
1.10935
1.10962
1.1099
1.11017
1.11045
1.11073
1.11101
1.11129
1.11156
1.11184
1.11211
1.11238
1.11264
1.1129
1.11316
1.1134
1.11364
1.11388
1.1141
1.11432
1.11453
1.11473
1.11492
1.1151
1.11527
1.11543
1.11557
1.11571
1.11584
1.11595
1.11606
1.11615
1.11624
1.11631
1.11638
1.11643
1.11648
1.11651
1.11654
1.11657
1.11658
1.11659
1.1166
1.1166
1.1166
1.11659
1.11658
1.11657
1.11656
1.11655
1.11654
1.11653
1.11652
1.11651
1.1165
1.1165
1.1165
1.1165
1.1165
1.11651
1.11652
1.11653
1.11655
1.11657
1.11659
1.11662
1.11665
1.11668
1.11672
1.11676
1.1168
1.11684
1.11689
1.11694
1.11699
1.11704
1.11709
1.11715
1.11721
1.11727
1.11733
1.11739
1.11745
1.11752
1.11758
1.11764
1.11771
1.11777
1.11784
1.1179
1.11797
1.11804
1.1181
1.11817
1.11823
1.1183
1.11836
1.11843
1.11849
1.11855
1.11861
1.11868
1.11874
1.1188
1.11886
1.11892
1.11898
1.11903
1.11909
1.11914
1.1192
1.11925
1.11931
1.11936
1.11941
1.11946
1.11951
1.11956
1.1196
1.11965
1.1197
1.11974
1.11979
1.11983
1.11987
1.11992
1.11996
1.12001
1.12005
1.12009
1.12014
1.12018
1.12022
1.12027
1.12031
1.12036
1.1204
1.12045
1.1205
1.12054
1.12059
1.12064
1.12069
1.12074
1.12079
1.12084
1.12089
1.12094
1.12099
1.12104
1.12109
1.12114
1.1212
1.12125
1.1213
1.12136
1.12141
1.12147
1.12153
1.12159
1.12165
1.12171
1.12177
1.12184
1.1219
1.12197
1.12205
1.12213
1.12221
1.12229
1.12238
1.12247
1.12257
1.12268
1.12279
1.1229
1.12303
1.12315
1.12329
1.12343
1.12358
1.12374
1.1239
1.12407
1.12424
1.12443
1.12462
1.12481
1.12501
1.12522
1.12543
1.12564
1.12586
1.12608
1.12631
1.12654
1.12677
1.127
1.12723
1.12746
1.1277
1.12793
1.12816
1.12839
1.12862
1.12884
1.12907
1.12929
1.12951
1.12972
1.12993
1.13014
1.13034
1.13054
1.13074
1.13093
1.13112
1.1313
1.13148
1.13166
1.13182
1.13199
1.13214
1.1323
1.13244
1.13258
1.13271
1.13284
1.13296
1.13307
1.13318
1.13328
1.13337
1.13345
1.13353
1.1336
1.13366
1.13371
1.13376
1.1338
1.13383
1.13385
1.13387
1.13389
1.13389
1.13389
1.13389
1.13388
1.13387
1.13385
1.13384
1.13382
1.13379
1.13377
1.13375
1.13373
1.13371
1.13369
1.13368
1.13367
1.13367
1.13367
1.13368
1.1337
1.13373
1.13377
1.13383
1.13389
1.13398
1.13408
1.13419
1.13433
1.13448
1.13466
1.13486
1.13508
1.13533
1.13561
1.13592
1.13625
1.13662
1.13702
1.13746
1.13793
1.13843
1.13898
1.13957
1.1402
1.14087
1.14159
1.14236
1.14318
1.14405
1.14498
1.14597
1.14702
1.14815
1.14935
1.15064
1.15202
1.15351
1.15514
1.15691
1.15887
1.16106
1.16354
1.16639
1.16975
1.17382
1.17907
1.18639
1.1967
1.21155
1.2411
1.06422
1.07605
1.08669
1.09438
1.09846
1.10069
1.10212
1.10313
1.10387
1.10442
1.10482
1.10513
1.10537
1.10555
1.10569
1.1058
1.10588
1.10594
1.10598
1.106
1.10601
1.10601
1.106
1.10599
1.10596
1.10593
1.1059
1.10586
1.10581
1.10577
1.10572
1.10567
1.10562
1.10556
1.10551
1.10545
1.1054
1.10534
1.10529
1.10523
1.10518
1.10513
1.10508
1.10503
1.10499
1.10495
1.10491
1.10488
1.10485
1.10482
1.1048
1.10479
1.10478
1.10477
1.10477
1.10478
1.1048
1.10482
1.10485
1.10489
1.10494
1.105
1.10506
1.10514
1.10522
1.10531
1.10542
1.10553
1.10565
1.10578
1.10593
1.10608
1.10624
1.10641
1.10659
1.10678
1.10698
1.10718
1.1074
1.10762
1.10785
1.10809
1.10833
1.10858
1.10884
1.1091
1.10937
1.10964
1.10991
1.11018
1.11046
1.11074
1.11102
1.11129
1.11157
1.11185
1.11212
1.11238
1.11265
1.11291
1.11316
1.1134
1.11364
1.11388
1.1141
1.11432
1.11452
1.11472
1.11491
1.11509
1.11526
1.11541
1.11556
1.1157
1.11582
1.11594
1.11604
1.11614
1.11622
1.11629
1.11635
1.11641
1.11645
1.11649
1.11652
1.11654
1.11656
1.11657
1.11657
1.11658
1.11657
1.11657
1.11656
1.11655
1.11654
1.11653
1.11652
1.11651
1.1165
1.1165
1.11649
1.11649
1.11649
1.11649
1.11649
1.1165
1.11651
1.11653
1.11654
1.11657
1.11659
1.11662
1.11665
1.11668
1.11672
1.11675
1.1168
1.11684
1.11689
1.11694
1.11699
1.11704
1.11709
1.11715
1.11721
1.11727
1.11733
1.11739
1.11745
1.11752
1.11758
1.11764
1.11771
1.11777
1.11784
1.11791
1.11797
1.11804
1.1181
1.11817
1.11823
1.1183
1.11836
1.11843
1.11849
1.11855
1.11861
1.11868
1.11874
1.1188
1.11886
1.11892
1.11897
1.11903
1.11909
1.11914
1.1192
1.11925
1.1193
1.11935
1.11941
1.11946
1.1195
1.11955
1.1196
1.11965
1.11969
1.11974
1.11978
1.11983
1.11987
1.11991
1.11996
1.12
1.12004
1.12009
1.12013
1.12018
1.12022
1.12026
1.12031
1.12035
1.1204
1.12045
1.12049
1.12054
1.12059
1.12064
1.12069
1.12073
1.12078
1.12083
1.12089
1.12094
1.12099
1.12104
1.12109
1.12114
1.1212
1.12125
1.12131
1.12136
1.12142
1.12147
1.12153
1.12159
1.12165
1.12171
1.12178
1.12185
1.12191
1.12199
1.12206
1.12214
1.12222
1.12231
1.1224
1.12249
1.12259
1.1227
1.12281
1.12293
1.12305
1.12318
1.12332
1.12346
1.12361
1.12376
1.12393
1.1241
1.12427
1.12446
1.12465
1.12484
1.12504
1.12525
1.12546
1.12567
1.12589
1.12611
1.12634
1.12656
1.12679
1.12702
1.12725
1.12748
1.12772
1.12795
1.12818
1.1284
1.12863
1.12885
1.12908
1.1293
1.12951
1.12973
1.12994
1.13014
1.13035
1.13055
1.13074
1.13093
1.13112
1.1313
1.13148
1.13165
1.13182
1.13198
1.13214
1.13229
1.13243
1.13257
1.1327
1.13283
1.13295
1.13306
1.13316
1.13326
1.13335
1.13344
1.13351
1.13358
1.13364
1.13369
1.13374
1.13378
1.13381
1.13383
1.13385
1.13387
1.13387
1.13387
1.13387
1.13386
1.13385
1.13383
1.13382
1.1338
1.13378
1.13375
1.13373
1.13371
1.13369
1.13368
1.13367
1.13366
1.13366
1.13366
1.13368
1.1337
1.13373
1.13378
1.13383
1.1339
1.13399
1.13409
1.13421
1.13435
1.13451
1.13469
1.13489
1.13512
1.13538
1.13566
1.13597
1.13631
1.13668
1.13709
1.13753
1.13801
1.13852
1.13907
1.13967
1.1403
1.14099
1.14171
1.14249
1.14332
1.1442
1.14514
1.14614
1.1472
1.14834
1.14956
1.15087
1.15228
1.1538
1.15546
1.15729
1.15931
1.16158
1.16416
1.16716
1.17074
1.17514
1.18069
1.18788
1.19837
1.21678
1.24603
1.08208
1.08259
1.08875
1.09378
1.09705
1.09939
1.10105
1.10224
1.10309
1.10374
1.10423
1.10461
1.10491
1.10514
1.10533
1.10547
1.10558
1.10567
1.10573
1.10577
1.1058
1.10582
1.10582
1.10582
1.1058
1.10578
1.10576
1.10573
1.10569
1.10565
1.10561
1.10556
1.10552
1.10547
1.10542
1.10537
1.10532
1.10526
1.10521
1.10516
1.10511
1.10507
1.10502
1.10498
1.10493
1.1049
1.10486
1.10483
1.1048
1.10478
1.10476
1.10475
1.10474
1.10474
1.10474
1.10475
1.10477
1.10479
1.10483
1.10487
1.10492
1.10498
1.10504
1.10512
1.1052
1.1053
1.1054
1.10552
1.10564
1.10577
1.10592
1.10607
1.10623
1.1064
1.10658
1.10678
1.10697
1.10718
1.1074
1.10762
1.10785
1.10809
1.10834
1.10859
1.10884
1.10911
1.10937
1.10964
1.10992
1.11019
1.11047
1.11075
1.11102
1.1113
1.11158
1.11185
1.11212
1.11239
1.11265
1.11291
1.11316
1.11341
1.11365
1.11388
1.1141
1.11432
1.11453
1.11472
1.11491
1.11509
1.11525
1.11541
1.11556
1.11569
1.11582
1.11593
1.11603
1.11613
1.11621
1.11628
1.11634
1.1164
1.11644
1.11648
1.11651
1.11653
1.11655
1.11656
1.11656
1.11656
1.11656
1.11656
1.11655
1.11654
1.11653
1.11652
1.11651
1.1165
1.11649
1.11649
1.11648
1.11648
1.11648
1.11648
1.11649
1.1165
1.11651
1.11652
1.11654
1.11656
1.11658
1.11661
1.11664
1.11668
1.11671
1.11675
1.11679
1.11684
1.11688
1.11693
1.11699
1.11704
1.11709
1.11715
1.11721
1.11727
1.11733
1.11739
1.11745
1.11751
1.11758
1.11764
1.11771
1.11777
1.11784
1.1179
1.11797
1.11803
1.1181
1.11817
1.11823
1.11829
1.11836
1.11842
1.11849
1.11855
1.11861
1.11867
1.11873
1.11879
1.11885
1.11891
1.11897
1.11903
1.11908
1.11914
1.11919
1.11924
1.1193
1.11935
1.1194
1.11945
1.1195
1.11954
1.11959
1.11964
1.11968
1.11973
1.11977
1.11982
1.11986
1.11991
1.11995
1.11999
1.12004
1.12008
1.12012
1.12017
1.12021
1.12026
1.1203
1.12035
1.12039
1.12044
1.12049
1.12053
1.12058
1.12063
1.12068
1.12073
1.12078
1.12083
1.12088
1.12093
1.12098
1.12104
1.12109
1.12114
1.12119
1.12125
1.1213
1.12136
1.12141
1.12147
1.12153
1.12159
1.12165
1.12171
1.12178
1.12185
1.12192
1.12199
1.12207
1.12214
1.12223
1.12231
1.12241
1.1225
1.1226
1.12271
1.12282
1.12294
1.12307
1.1232
1.12333
1.12348
1.12363
1.12379
1.12395
1.12412
1.1243
1.12448
1.12467
1.12487
1.12507
1.12528
1.12549
1.1257
1.12592
1.12614
1.12637
1.12659
1.12682
1.12705
1.12728
1.12751
1.12774
1.12797
1.1282
1.12843
1.12865
1.12887
1.12909
1.12931
1.12953
1.12974
1.12995
1.13015
1.13036
1.13055
1.13075
1.13094
1.13112
1.1313
1.13148
1.13165
1.13182
1.13198
1.13214
1.13228
1.13243
1.13257
1.1327
1.13282
1.13294
1.13305
1.13316
1.13325
1.13334
1.13342
1.1335
1.13357
1.13363
1.13368
1.13372
1.13376
1.13379
1.13382
1.13384
1.13385
1.13386
1.13386
1.13385
1.13384
1.13383
1.13382
1.1338
1.13378
1.13376
1.13374
1.13371
1.13369
1.13368
1.13366
1.13365
1.13364
1.13364
1.13365
1.13366
1.13369
1.13372
1.13377
1.13383
1.1339
1.13399
1.13409
1.13421
1.13435
1.13451
1.1347
1.1349
1.13513
1.13539
1.13568
1.13599
1.13633
1.13671
1.13712
1.13757
1.13805
1.13856
1.13912
1.13972
1.14036
1.14105
1.14178
1.14256
1.1434
1.14428
1.14523
1.14623
1.14731
1.14845
1.14968
1.151
1.15242
1.15395
1.15562
1.15746
1.1595
1.16178
1.16438
1.16738
1.17091
1.17516
1.18049
1.18738
1.19601
1.20539
1.21437
1.0904
1.08972
1.09183
1.09439
1.09695
1.09898
1.10049
1.10164
1.10252
1.10321
1.10375
1.10418
1.10451
1.10478
1.105
1.10517
1.1053
1.10541
1.10549
1.10555
1.1056
1.10563
1.10564
1.10565
1.10565
1.10564
1.10562
1.1056
1.10557
1.10553
1.1055
1.10546
1.10542
1.10537
1.10533
1.10528
1.10523
1.10518
1.10514
1.10509
1.10504
1.105
1.10495
1.10491
1.10487
1.10484
1.10481
1.10478
1.10475
1.10473
1.10471
1.1047
1.10469
1.10469
1.1047
1.10471
1.10473
1.10476
1.10479
1.10484
1.10489
1.10495
1.10501
1.10509
1.10518
1.10528
1.10538
1.1055
1.10562
1.10576
1.1059
1.10605
1.10622
1.10639
1.10657
1.10676
1.10696
1.10717
1.10739
1.10762
1.10785
1.10809
1.10833
1.10859
1.10884
1.10911
1.10937
1.10964
1.10992
1.11019
1.11047
1.11075
1.11103
1.11131
1.11158
1.11186
1.11213
1.1124
1.11266
1.11292
1.11317
1.11342
1.11366
1.11389
1.11411
1.11433
1.11453
1.11473
1.11492
1.1151
1.11526
1.11542
1.11556
1.1157
1.11582
1.11594
1.11604
1.11613
1.11621
1.11628
1.11634
1.1164
1.11644
1.11648
1.1165
1.11652
1.11654
1.11655
1.11655
1.11656
1.11655
1.11655
1.11654
1.11653
1.11652
1.11651
1.1165
1.11649
1.11649
1.11648
1.11647
1.11647
1.11647
1.11648
1.11648
1.11649
1.1165
1.11652
1.11653
1.11656
1.11658
1.11661
1.11664
1.11667
1.11671
1.11675
1.11679
1.11684
1.11688
1.11693
1.11698
1.11704
1.11709
1.11715
1.11721
1.11726
1.11732
1.11739
1.11745
1.11751
1.11758
1.11764
1.1177
1.11777
1.11783
1.1179
1.11797
1.11803
1.1181
1.11816
1.11823
1.11829
1.11835
1.11842
1.11848
1.11854
1.11861
1.11867
1.11873
1.11879
1.11885
1.1189
1.11896
1.11902
1.11907
1.11913
1.11918
1.11924
1.11929
1.11934
1.11939
1.11944
1.11949
1.11953
1.11958
1.11963
1.11967
1.11972
1.11976
1.11981
1.11985
1.1199
1.11994
1.11998
1.12003
1.12007
1.12011
1.12016
1.1202
1.12025
1.12029
1.12034
1.12038
1.12043
1.12048
1.12052
1.12057
1.12062
1.12067
1.12072
1.12077
1.12082
1.12087
1.12092
1.12097
1.12103
1.12108
1.12113
1.12118
1.12124
1.12129
1.12135
1.12141
1.12146
1.12152
1.12158
1.12164
1.12171
1.12177
1.12184
1.12191
1.12199
1.12206
1.12214
1.12223
1.12231
1.12241
1.1225
1.12261
1.12272
1.12283
1.12295
1.12308
1.12321
1.12335
1.12349
1.12365
1.12381
1.12397
1.12414
1.12432
1.12451
1.1247
1.1249
1.1251
1.12531
1.12552
1.12574
1.12595
1.12618
1.1264
1.12663
1.12686
1.12709
1.12732
1.12755
1.12777
1.128
1.12823
1.12846
1.12868
1.1289
1.12912
1.12934
1.12955
1.12976
1.12997
1.13017
1.13037
1.13057
1.13076
1.13095
1.13113
1.13131
1.13149
1.13166
1.13182
1.13198
1.13214
1.13229
1.13243
1.13257
1.1327
1.13282
1.13294
1.13305
1.13315
1.13325
1.13334
1.13342
1.13349
1.13356
1.13362
1.13367
1.13371
1.13375
1.13378
1.13381
1.13382
1.13383
1.13384
1.13384
1.13384
1.13383
1.13381
1.1338
1.13378
1.13376
1.13374
1.13371
1.13369
1.13367
1.13365
1.13364
1.13363
1.13362
1.13362
1.13363
1.13364
1.13367
1.1337
1.13374
1.1338
1.13388
1.13396
1.13407
1.13419
1.13433
1.13449
1.13468
1.13489
1.13512
1.13538
1.13566
1.13598
1.13633
1.1367
1.13712
1.13756
1.13805
1.13857
1.13913
1.13973
1.14038
1.14106
1.1418
1.14258
1.14342
1.14431
1.14526
1.14626
1.14734
1.14848
1.14971
1.15102
1.15243
1.15396
1.15562
1.15744
1.15944
1.16168
1.1642
1.16707
1.1704
1.17429
1.17885
1.18412
1.18999
1.19475
1.1949
1.09445
1.09394
1.0946
1.09598
1.09761
1.09907
1.10033
1.10136
1.10219
1.10285
1.10339
1.10383
1.10419
1.10447
1.10471
1.1049
1.10505
1.10517
1.10527
1.10535
1.1054
1.10544
1.10547
1.10549
1.10549
1.10549
1.10548
1.10547
1.10544
1.10542
1.10539
1.10535
1.10531
1.10527
1.10523
1.10519
1.10515
1.1051
1.10506
1.10501
1.10497
1.10493
1.10489
1.10485
1.10481
1.10478
1.10475
1.10472
1.10469
1.10468
1.10466
1.10465
1.10465
1.10465
1.10465
1.10467
1.10469
1.10472
1.10475
1.1048
1.10485
1.10491
1.10498
1.10506
1.10514
1.10524
1.10535
1.10547
1.10559
1.10573
1.10587
1.10603
1.10619
1.10637
1.10655
1.10674
1.10695
1.10716
1.10737
1.1076
1.10783
1.10807
1.10832
1.10857
1.10883
1.1091
1.10937
1.10964
1.10991
1.11019
1.11047
1.11075
1.11103
1.11131
1.11159
1.11186
1.11214
1.11241
1.11267
1.11293
1.11318
1.11343
1.11367
1.1139
1.11413
1.11434
1.11455
1.11475
1.11493
1.11511
1.11528
1.11543
1.11558
1.11571
1.11584
1.11595
1.11605
1.11614
1.11622
1.11629
1.11635
1.1164
1.11645
1.11648
1.11651
1.11653
1.11654
1.11655
1.11655
1.11655
1.11655
1.11655
1.11654
1.11653
1.11652
1.11651
1.1165
1.11649
1.11648
1.11647
1.11647
1.11647
1.11647
1.11647
1.11648
1.11649
1.1165
1.11651
1.11653
1.11655
1.11658
1.1166
1.11663
1.11667
1.11671
1.11674
1.11679
1.11683
1.11688
1.11693
1.11698
1.11703
1.11709
1.11714
1.1172
1.11726
1.11732
1.11738
1.11744
1.11751
1.11757
1.11763
1.1177
1.11776
1.11783
1.11789
1.11796
1.11802
1.11809
1.11815
1.11822
1.11828
1.11835
1.11841
1.11847
1.11853
1.1186
1.11866
1.11872
1.11878
1.11884
1.11889
1.11895
1.11901
1.11906
1.11912
1.11917
1.11922
1.11927
1.11932
1.11937
1.11942
1.11947
1.11952
1.11957
1.11961
1.11966
1.1197
1.11975
1.11979
1.11984
1.11988
1.11992
1.11997
1.12001
1.12006
1.1201
1.12014
1.12019
1.12023
1.12028
1.12032
1.12037
1.12042
1.12046
1.12051
1.12056
1.12061
1.12066
1.12071
1.12075
1.12081
1.12086
1.12091
1.12096
1.12101
1.12106
1.12112
1.12117
1.12122
1.12128
1.12133
1.12139
1.12145
1.12151
1.12157
1.12163
1.12169
1.12176
1.12183
1.1219
1.12197
1.12205
1.12213
1.12222
1.12231
1.1224
1.1225
1.1226
1.12271
1.12283
1.12295
1.12308
1.12321
1.12335
1.1235
1.12366
1.12382
1.12399
1.12416
1.12434
1.12453
1.12472
1.12492
1.12513
1.12534
1.12555
1.12577
1.12599
1.12621
1.12644
1.12667
1.1269
1.12713
1.12736
1.12759
1.12781
1.12804
1.12827
1.12849
1.12872
1.12894
1.12915
1.12937
1.12958
1.12979
1.12999
1.1302
1.13039
1.13059
1.13078
1.13097
1.13115
1.13133
1.1315
1.13167
1.13183
1.13199
1.13214
1.13229
1.13243
1.13257
1.1327
1.13282
1.13294
1.13305
1.13315
1.13325
1.13334
1.13342
1.13349
1.13356
1.13361
1.13366
1.13371
1.13374
1.13377
1.1338
1.13381
1.13382
1.13383
1.13383
1.13382
1.13381
1.1338
1.13378
1.13376
1.13374
1.13371
1.13369
1.13367
1.13365
1.13363
1.13361
1.1336
1.13359
1.13359
1.13359
1.13361
1.13363
1.13366
1.13371
1.13377
1.13384
1.13392
1.13403
1.13415
1.13429
1.13445
1.13464
1.13484
1.13508
1.13533
1.13562
1.13594
1.13628
1.13666
1.13708
1.13752
1.13801
1.13853
1.13909
1.13969
1.14034
1.14103
1.14176
1.14255
1.14338
1.14427
1.14521
1.14622
1.14728
1.14842
1.14964
1.15093
1.15233
1.15383
1.15545
1.15722
1.15915
1.16129
1.16366
1.16631
1.16929
1.17263
1.17631
1.18008
1.18346
1.1858
1.18518
1.09706
1.0966
1.09678
1.0975
1.09847
1.0995
1.10046
1.10131
1.10204
1.10265
1.10315
1.10358
1.10393
1.10422
1.10446
1.10466
1.10483
1.10496
1.10507
1.10515
1.10522
1.10527
1.10531
1.10533
1.10534
1.10535
1.10535
1.10534
1.10532
1.1053
1.10527
1.10524
1.10521
1.10517
1.10514
1.1051
1.10506
1.10502
1.10498
1.10493
1.10489
1.10485
1.10482
1.10478
1.10474
1.10471
1.10468
1.10466
1.10464
1.10462
1.1046
1.1046
1.10459
1.10459
1.1046
1.10462
1.10464
1.10467
1.10471
1.10475
1.1048
1.10487
1.10494
1.10502
1.1051
1.1052
1.10531
1.10543
1.10556
1.10569
1.10584
1.106
1.10616
1.10634
1.10652
1.10672
1.10692
1.10713
1.10735
1.10758
1.10781
1.10806
1.1083
1.10856
1.10882
1.10909
1.10936
1.10963
1.10991
1.11019
1.11047
1.11075
1.11103
1.11131
1.11159
1.11187
1.11215
1.11242
1.11268
1.11294
1.1132
1.11344
1.11369
1.11392
1.11414
1.11436
1.11457
1.11477
1.11495
1.11513
1.1153
1.11546
1.1156
1.11574
1.11586
1.11597
1.11607
1.11616
1.11624
1.11631
1.11637
1.11642
1.11646
1.1165
1.11652
1.11654
1.11655
1.11656
1.11656
1.11656
1.11656
1.11655
1.11654
1.11653
1.11652
1.11651
1.1165
1.11649
1.11648
1.11647
1.11647
1.11647
1.11646
1.11647
1.11647
1.11648
1.11649
1.11651
1.11653
1.11655
1.11657
1.1166
1.11663
1.11666
1.1167
1.11674
1.11678
1.11683
1.11687
1.11692
1.11697
1.11703
1.11708
1.11714
1.11719
1.11725
1.11731
1.11737
1.11744
1.1175
1.11756
1.11763
1.11769
1.11775
1.11782
1.11788
1.11795
1.11801
1.11808
1.11814
1.11821
1.11827
1.11833
1.1184
1.11846
1.11852
1.11858
1.11864
1.1187
1.11876
1.11882
1.11888
1.11894
1.11899
1.11905
1.1191
1.11915
1.11921
1.11926
1.11931
1.11936
1.11941
1.11945
1.1195
1.11955
1.11959
1.11964
1.11969
1.11973
1.11977
1.11982
1.11986
1.11991
1.11995
1.11999
1.12004
1.12008
1.12013
1.12017
1.12021
1.12026
1.12031
1.12035
1.1204
1.12044
1.12049
1.12054
1.12059
1.12064
1.12069
1.12074
1.12079
1.12084
1.12089
1.12094
1.12099
1.12104
1.1211
1.12115
1.1212
1.12126
1.12131
1.12137
1.12143
1.12149
1.12155
1.12161
1.12167
1.12174
1.12181
1.12188
1.12195
1.12203
1.12211
1.1222
1.12229
1.12238
1.12248
1.12259
1.1227
1.12282
1.12294
1.12307
1.12321
1.12335
1.1235
1.12366
1.12383
1.124
1.12417
1.12436
1.12455
1.12475
1.12495
1.12516
1.12537
1.12558
1.1258
1.12603
1.12625
1.12648
1.12671
1.12694
1.12717
1.1274
1.12763
1.12786
1.12809
1.12831
1.12854
1.12876
1.12898
1.12919
1.12941
1.12962
1.12982
1.13003
1.13023
1.13042
1.13061
1.1308
1.13099
1.13117
1.13135
1.13152
1.13168
1.13185
1.132
1.13216
1.1323
1.13244
1.13258
1.13271
1.13283
1.13294
1.13305
1.13316
1.13325
1.13334
1.13342
1.13349
1.13355
1.13361
1.13366
1.1337
1.13374
1.13377
1.13379
1.1338
1.13381
1.13382
1.13381
1.13381
1.1338
1.13378
1.13376
1.13374
1.13372
1.13369
1.13367
1.13364
1.13362
1.1336
1.13358
1.13356
1.13355
1.13355
1.13355
1.13357
1.13359
1.13362
1.13366
1.13372
1.13378
1.13387
1.13397
1.13409
1.13423
1.13439
1.13457
1.13478
1.13501
1.13527
1.13555
1.13587
1.13621
1.13659
1.137
1.13745
1.13793
1.13845
1.13901
1.13961
1.14026
1.14094
1.14168
1.14246
1.14329
1.14417
1.1451
1.1461
1.14716
1.14828
1.14947
1.15074
1.1521
1.15356
1.15513
1.15682
1.15865
1.16065
1.16282
1.1652
1.16778
1.17052
1.17332
1.17597
1.178
1.17905
1.17882
1.09887
1.09841
1.0984
1.09877
1.09935
1.10005
1.10076
1.10143
1.10203
1.10256
1.10302
1.10341
1.10375
1.10403
1.10427
1.10447
1.10464
1.10477
1.10489
1.10498
1.10505
1.10511
1.10515
1.10518
1.1052
1.10521
1.10521
1.10521
1.1052
1.10518
1.10516
1.10514
1.10511
1.10508
1.10504
1.10501
1.10497
1.10493
1.10489
1.10485
1.10482
1.10478
1.10474
1.10471
1.10468
1.10465
1.10462
1.10459
1.10457
1.10456
1.10454
1.10454
1.10453
1.10454
1.10455
1.10456
1.10459
1.10462
1.10465
1.1047
1.10475
1.10482
1.10489
1.10497
1.10506
1.10516
1.10527
1.10538
1.10551
1.10565
1.1058
1.10596
1.10612
1.1063
1.10649
1.10668
1.10689
1.1071
1.10732
1.10755
1.10778
1.10803
1.10828
1.10854
1.1088
1.10907
1.10934
1.10962
1.10989
1.11018
1.11046
1.11075
1.11103
1.11131
1.1116
1.11188
1.11215
1.11242
1.11269
1.11295
1.11321
1.11346
1.1137
1.11394
1.11417
1.11438
1.11459
1.11479
1.11498
1.11516
1.11533
1.11549
1.11563
1.11577
1.11589
1.116
1.1161
1.11619
1.11627
1.11634
1.1164
1.11645
1.11649
1.11652
1.11654
1.11656
1.11657
1.11657
1.11657
1.11657
1.11656
1.11656
1.11655
1.11653
1.11652
1.11651
1.1165
1.11649
1.11648
1.11647
1.11647
1.11646
1.11646
1.11647
1.11647
1.11648
1.11649
1.1165
1.11652
1.11654
1.11657
1.11659
1.11662
1.11666
1.11669
1.11673
1.11677
1.11682
1.11687
1.11691
1.11696
1.11702
1.11707
1.11713
1.11718
1.11724
1.1173
1.11736
1.11743
1.11749
1.11755
1.11761
1.11768
1.11774
1.11781
1.11787
1.11794
1.118
1.11806
1.11813
1.11819
1.11826
1.11832
1.11838
1.11844
1.1185
1.11857
1.11863
1.11868
1.11874
1.1188
1.11886
1.11892
1.11897
1.11903
1.11908
1.11913
1.11918
1.11924
1.11929
1.11934
1.11938
1.11943
1.11948
1.11953
1.11957
1.11962
1.11966
1.11971
1.11975
1.1198
1.11984
1.11988
1.11993
1.11997
1.12001
1.12006
1.1201
1.12015
1.12019
1.12024
1.12028
1.12033
1.12038
1.12042
1.12047
1.12052
1.12057
1.12061
1.12066
1.12071
1.12076
1.12081
1.12086
1.12091
1.12096
1.12102
1.12107
1.12112
1.12117
1.12123
1.12128
1.12134
1.1214
1.12146
1.12152
1.12158
1.12164
1.12171
1.12178
1.12185
1.12192
1.122
1.12209
1.12217
1.12226
1.12236
1.12246
1.12257
1.12268
1.1228
1.12293
1.12306
1.1232
1.12334
1.1235
1.12366
1.12383
1.124
1.12418
1.12437
1.12456
1.12476
1.12497
1.12518
1.1254
1.12562
1.12584
1.12607
1.12629
1.12652
1.12676
1.12699
1.12722
1.12745
1.12768
1.12791
1.12814
1.12836
1.12859
1.12881
1.12902
1.12924
1.12945
1.12966
1.12986
1.13006
1.13026
1.13046
1.13065
1.13083
1.13102
1.1312
1.13137
1.13154
1.1317
1.13187
1.13202
1.13217
1.13232
1.13246
1.13259
1.13272
1.13284
1.13295
1.13306
1.13316
1.13326
1.13334
1.13342
1.13349
1.13356
1.13361
1.13366
1.1337
1.13374
1.13377
1.13379
1.1338
1.13381
1.13381
1.1338
1.13379
1.13378
1.13376
1.13374
1.13372
1.13369
1.13367
1.13364
1.13361
1.13359
1.13356
1.13354
1.13352
1.13351
1.13351
1.13351
1.13351
1.13353
1.13356
1.1336
1.13365
1.13372
1.1338
1.1339
1.13401
1.13415
1.13431
1.13449
1.13469
1.13492
1.13517
1.13545
1.13576
1.13611
1.13648
1.13689
1.13733
1.13781
1.13833
1.13889
1.13948
1.14012
1.14081
1.14153
1.14231
1.14313
1.144
1.14493
1.14591
1.14694
1.14804
1.14921
1.15045
1.15176
1.15316
1.15466
1.15626
1.15797
1.1598
1.16176
1.16384
1.16601
1.16821
1.17032
1.17214
1.17344
1.17396
1.17376
1.10012
1.09971
1.09962
1.09978
1.10014
1.10061
1.10112
1.10163
1.10212
1.10257
1.10297
1.10332
1.10362
1.10389
1.10411
1.10431
1.10447
1.10461
1.10472
1.10482
1.10489
1.10496
1.105
1.10504
1.10506
1.10508
1.10508
1.10508
1.10508
1.10507
1.10505
1.10503
1.105
1.10497
1.10494
1.10491
1.10488
1.10484
1.10481
1.10477
1.10474
1.1047
1.10467
1.10463
1.1046
1.10457
1.10455
1.10453
1.10451
1.10449
1.10448
1.10447
1.10447
1.10448
1.10449
1.1045
1.10453
1.10456
1.1046
1.10464
1.1047
1.10476
1.10483
1.10492
1.10501
1.10511
1.10522
1.10534
1.10546
1.1056
1.10575
1.10591
1.10608
1.10626
1.10645
1.10664
1.10685
1.10706
1.10728
1.10751
1.10775
1.108
1.10825
1.10851
1.10877
1.10904
1.10932
1.1096
1.10988
1.11017
1.11045
1.11074
1.11103
1.11131
1.1116
1.11188
1.11216
1.11244
1.11271
1.11297
1.11323
1.11348
1.11373
1.11396
1.11419
1.11441
1.11462
1.11482
1.11502
1.1152
1.11537
1.11552
1.11567
1.11581
1.11593
1.11604
1.11614
1.11623
1.11631
1.11637
1.11643
1.11648
1.11651
1.11654
1.11656
1.11658
1.11659
1.11659
1.11659
1.11658
1.11658
1.11657
1.11655
1.11654
1.11653
1.11651
1.1165
1.11649
1.11648
1.11647
1.11647
1.11646
1.11646
1.11646
1.11647
1.11648
1.11649
1.1165
1.11652
1.11654
1.11656
1.11659
1.11662
1.11665
1.11669
1.11673
1.11677
1.11681
1.11686
1.1169
1.11696
1.11701
1.11706
1.11712
1.11717
1.11723
1.11729
1.11735
1.11741
1.11747
1.11754
1.1176
1.11766
1.11773
1.11779
1.11785
1.11792
1.11798
1.11805
1.11811
1.11817
1.11824
1.1183
1.11836
1.11842
1.11848
1.11854
1.1186
1.11866
1.11872
1.11878
1.11884
1.11889
1.11895
1.119
1.11905
1.11911
1.11916
1.11921
1.11926
1.11931
1.11936
1.11941
1.11945
1.1195
1.11955
1.11959
1.11964
1.11968
1.11972
1.11977
1.11981
1.11986
1.1199
1.11994
1.11999
1.12003
1.12008
1.12012
1.12017
1.12021
1.12026
1.1203
1.12035
1.1204
1.12044
1.12049
1.12054
1.12059
1.12063
1.12068
1.12073
1.12078
1.12083
1.12088
1.12093
1.12098
1.12104
1.12109
1.12114
1.1212
1.12125
1.12131
1.12136
1.12142
1.12148
1.12154
1.12161
1.12167
1.12174
1.12181
1.12189
1.12197
1.12205
1.12214
1.12223
1.12233
1.12243
1.12254
1.12265
1.12278
1.1229
1.12304
1.12318
1.12333
1.12349
1.12365
1.12382
1.124
1.12419
1.12438
1.12458
1.12478
1.12499
1.12521
1.12542
1.12565
1.12588
1.12611
1.12634
1.12657
1.1268
1.12704
1.12727
1.12751
1.12774
1.12797
1.12819
1.12842
1.12864
1.12886
1.12908
1.12929
1.1295
1.12971
1.12991
1.13011
1.1303
1.1305
1.13068
1.13087
1.13105
1.13122
1.1314
1.13156
1.13173
1.13189
1.13204
1.13219
1.13233
1.13247
1.13261
1.13273
1.13285
1.13297
1.13307
1.13317
1.13327
1.13335
1.13343
1.1335
1.13356
1.13362
1.13367
1.13371
1.13374
1.13376
1.13378
1.1338
1.1338
1.1338
1.13379
1.13378
1.13377
1.13375
1.13372
1.1337
1.13367
1.13364
1.13361
1.13358
1.13355
1.13352
1.1335
1.13348
1.13346
1.13345
1.13345
1.13346
1.13347
1.13349
1.13353
1.13358
1.13364
1.13372
1.13381
1.13392
1.13405
1.13421
1.13438
1.13458
1.1348
1.13505
1.13533
1.13564
1.13598
1.13635
1.13675
1.13719
1.13766
1.13818
1.13873
1.13932
1.13995
1.14063
1.14134
1.14211
1.14292
1.14378
1.14469
1.14565
1.14666
1.14773
1.14887
1.15006
1.15132
1.15266
1.15407
1.15556
1.15714
1.1588
1.16053
1.16232
1.16413
1.16588
1.16746
1.16873
1.16958
1.16987
1.16959
1.10102
1.10067
1.10054
1.1006
1.10081
1.10112
1.10149
1.10188
1.10226
1.10263
1.10297
1.10327
1.10355
1.10379
1.104
1.10418
1.10434
1.10447
1.10458
1.10468
1.10475
1.10482
1.10487
1.10491
1.10493
1.10495
1.10496
1.10496
1.10496
1.10495
1.10494
1.10492
1.1049
1.10487
1.10485
1.10482
1.10479
1.10475
1.10472
1.10469
1.10465
1.10462
1.10459
1.10456
1.10453
1.1045
1.10448
1.10446
1.10444
1.10442
1.10441
1.10441
1.10441
1.10441
1.10442
1.10444
1.10447
1.1045
1.10454
1.10458
1.10464
1.1047
1.10477
1.10486
1.10495
1.10505
1.10516
1.10528
1.10541
1.10555
1.1057
1.10586
1.10603
1.10621
1.1064
1.10659
1.1068
1.10702
1.10724
1.10747
1.10771
1.10796
1.10821
1.10847
1.10874
1.10901
1.10929
1.10957
1.10986
1.11015
1.11044
1.11073
1.11102
1.11131
1.1116
1.11188
1.11217
1.11244
1.11272
1.11299
1.11325
1.1135
1.11375
1.11399
1.11422
1.11444
1.11466
1.11486
1.11505
1.11523
1.11541
1.11557
1.11571
1.11585
1.11597
1.11609
1.11618
1.11627
1.11635
1.11641
1.11647
1.11651
1.11655
1.11658
1.11659
1.11661
1.11661
1.11661
1.11661
1.1166
1.11659
1.11658
1.11657
1.11655
1.11654
1.11652
1.11651
1.11649
1.11648
1.11647
1.11647
1.11646
1.11646
1.11646
1.11646
1.11647
1.11648
1.11649
1.11651
1.11653
1.11655
1.11658
1.11661
1.11664
1.11668
1.11672
1.11676
1.1168
1.11684
1.11689
1.11694
1.11699
1.11705
1.1171
1.11716
1.11722
1.11727
1.11733
1.11739
1.11746
1.11752
1.11758
1.11764
1.11771
1.11777
1.11783
1.1179
1.11796
1.11802
1.11809
1.11815
1.11821
1.11827
1.11834
1.1184
1.11846
1.11852
1.11858
1.11864
1.11869
1.11875
1.11881
1.11886
1.11892
1.11897
1.11902
1.11908
1.11913
1.11918
1.11923
1.11928
1.11933
1.11937
1.11942
1.11947
1.11951
1.11956
1.1196
1.11965
1.11969
1.11974
1.11978
1.11982
1.11987
1.11991
1.11996
1.12
1.12005
1.12009
1.12013
1.12018
1.12023
1.12027
1.12032
1.12036
1.12041
1.12046
1.12051
1.12055
1.1206
1.12065
1.1207
1.12075
1.1208
1.12085
1.1209
1.12095
1.121
1.12105
1.1211
1.12115
1.12121
1.12126
1.12132
1.12138
1.12144
1.1215
1.12156
1.12163
1.1217
1.12177
1.12184
1.12192
1.12201
1.12209
1.12219
1.12229
1.12239
1.1225
1.12262
1.12274
1.12287
1.12301
1.12315
1.12331
1.12347
1.12363
1.12381
1.12399
1.12418
1.12438
1.12458
1.12479
1.125
1.12522
1.12545
1.12568
1.12591
1.12614
1.12638
1.12662
1.12685
1.12709
1.12733
1.12756
1.1278
1.12803
1.12825
1.12848
1.1287
1.12892
1.12913
1.12935
1.12955
1.12976
1.12996
1.13016
1.13035
1.13054
1.13072
1.13091
1.13108
1.13126
1.13143
1.13159
1.13176
1.13191
1.13207
1.13221
1.13236
1.13249
1.13262
1.13275
1.13287
1.13298
1.13309
1.13319
1.13328
1.13336
1.13344
1.13351
1.13357
1.13363
1.13367
1.13371
1.13374
1.13377
1.13378
1.13379
1.1338
1.13379
1.13378
1.13377
1.13375
1.13373
1.1337
1.13368
1.13364
1.13361
1.13358
1.13355
1.13351
1.13348
1.13345
1.13343
1.13341
1.1334
1.13339
1.13339
1.1334
1.13342
1.13345
1.13349
1.13355
1.13362
1.13371
1.13382
1.13394
1.13409
1.13426
1.13445
1.13467
1.13491
1.13518
1.13548
1.13581
1.13618
1.13658
1.13701
1.13748
1.13798
1.13852
1.13911
1.13973
1.1404
1.1411
1.14185
1.14265
1.14349
1.14438
1.14532
1.14631
1.14734
1.14844
1.14958
1.15079
1.15205
1.15337
1.15475
1.15619
1.15768
1.1592
1.16073
1.16222
1.16361
1.16481
1.16573
1.16629
1.16645
1.16614
1.10169
1.10139
1.10125
1.10125
1.10137
1.10157
1.10183
1.10212
1.10243
1.10272
1.103
1.10327
1.10351
1.10372
1.10391
1.10408
1.10422
1.10435
1.10446
1.10455
1.10463
1.10469
1.10474
1.10478
1.10481
1.10483
1.10484
1.10485
1.10485
1.10484
1.10483
1.10481
1.10479
1.10477
1.10475
1.10472
1.10469
1.10466
1.10463
1.1046
1.10457
1.10454
1.10451
1.10448
1.10445
1.10443
1.1044
1.10438
1.10437
1.10435
1.10434
1.10434
1.10434
1.10435
1.10436
1.10438
1.1044
1.10443
1.10447
1.10452
1.10458
1.10464
1.10471
1.1048
1.10489
1.10499
1.1051
1.10522
1.10535
1.10549
1.10564
1.1058
1.10597
1.10616
1.10634
1.10654
1.10675
1.10697
1.10719
1.10743
1.10767
1.10792
1.10817
1.10844
1.10871
1.10898
1.10926
1.10955
1.10984
1.11013
1.11042
1.11072
1.11101
1.11131
1.1116
1.11189
1.11217
1.11246
1.11273
1.113
1.11327
1.11353
1.11378
1.11402
1.11425
1.11448
1.11469
1.1149
1.11509
1.11528
1.11545
1.11561
1.11576
1.1159
1.11602
1.11613
1.11623
1.11632
1.11639
1.11646
1.11651
1.11655
1.11659
1.11661
1.11663
1.11664
1.11664
1.11664
1.11663
1.11662
1.11661
1.11659
1.11658
1.11656
1.11654
1.11653
1.11651
1.1165
1.11648
1.11647
1.11647
1.11646
1.11646
1.11646
1.11646
1.11647
1.11648
1.11649
1.1165
1.11652
1.11655
1.11657
1.1166
1.11663
1.11667
1.1167
1.11674
1.11679
1.11683
1.11688
1.11693
1.11698
1.11703
1.11709
1.11714
1.1172
1.11726
1.11731
1.11737
1.11744
1.1175
1.11756
1.11762
1.11768
1.11775
1.11781
1.11787
1.11794