# vtk DataFile Version 2.0
LBE mesh
ASCII
DATASET STRUCTURED_POINTS
DIMENSIONS 400 100 1
ASPECT_RATIO 1 1 1
ORIGIN 0 0 0
POINT_DATA 40000
SCALARS rho double 1
LOOKUP_TABLE default
1.11167
1.18689
1.20873
1.21311
1.21522
1.21708
1.21844
1.21932
1.21992
1.22037
1.22072
1.221
1.22122
1.2214
1.22155
1.22168
1.22179
1.22188
1.22196
1.22202
1.22208
1.22213
1.22217
1.22221
1.22223
1.22226
1.22228
1.2223
1.22231
1.22232
1.22232
1.22233
1.22233
1.22233
1.22233
1.22233
1.22233
1.22232
1.22232
1.22232
1.22231
1.22231
1.22231
1.22231
1.22231
1.22231
1.22232
1.22232
1.22233
1.22235
1.22236
1.22238
1.22241
1.22244
1.22247
1.22251
1.22256
1.22261
1.22267
1.22273
1.2228
1.22288
1.22297
1.22306
1.22316
1.22327
1.22338
1.22351
1.22364
1.22378
1.22393
1.22408
1.22425
1.22442
1.2246
1.22479
1.22498
1.22519
1.2254
1.22561
1.22584
1.22607
1.22631
1.22655
1.2268
1.22706
1.22732
1.22759
1.22786
1.22813
1.22841
1.22869
1.22897
1.22926
1.22954
1.22983
1.23012
1.23041
1.23069
1.23098
1.23126
1.23153
1.23181
1.23208
1.23234
1.2326
1.23286
1.2331
1.23334
1.23358
1.2338
1.23401
1.23422
1.23442
1.2346
1.23478
1.23495
1.2351
1.23525
1.23538
1.23551
1.23562
1.23573
1.23582
1.23591
1.23598
1.23605
1.23611
1.23616
1.2362
1.23624
1.23627
1.23629
1.23631
1.23633
1.23634
1.23634
1.23634
1.23634
1.23634
1.23633
1.23632
1.23631
1.2363
1.23629
1.23627
1.23626
1.23625
1.23623
1.23622
1.23621
1.23619
1.23618
1.23617
1.23616
1.23615
1.23614
1.23613
1.23613
1.23612
1.23612
1.23612
1.23612
1.23612
1.23612
1.23612
1.23613
1.23613
1.23614
1.23615
1.23615
1.23616
1.23617
1.23619
1.2362
1.23621
1.23623
1.23624
1.23626
1.23628
1.23629
1.23631
1.23633
1.23635
1.23637
1.23639
1.23641
1.23643
1.23645
1.23648
1.2365
1.23652
1.23655
1.23657
1.2366
1.23662
1.23665
1.23667
1.2367
1.23673
1.23676
1.23679
1.23682
1.23685
1.23688
1.23692
1.23695
1.23699
1.23703
1.23707
1.23711
1.23715
1.2372
1.23724
1.23729
1.23735
1.2374
1.23746
1.23752
1.23758
1.23765
1.23772
1.23779
1.23787
1.23795
1.23804
1.23813
1.23822
1.23832
1.23843
1.23854
1.23865
1.23877
1.2389
1.23903
1.23917
1.23932
1.23947
1.23963
1.23979
1.23997
1.24015
1.24034
1.24054
1.24074
1.24095
1.24117
1.2414
1.24164
1.24189
1.24214
1.24241
1.24268
1.24296
1.24324
1.24354
1.24385
1.24416
1.24448
1.24481
1.24514
1.24548
1.24583
1.24618
1.24654
1.24691
1.24728
1.24765
1.24802
1.2484
1.24878
1.24916
1.24954
1.24992
1.25029
1.25067
1.25104
1.25141
1.25177
1.25213
1.25248
1.25282
1.25315
1.25348
1.2538
1.25411
1.2544
1.25469
1.25497
1.25523
1.25549
1.25574
1.25597
1.2562
1.25641
1.25662
1.25682
1.257
1.25718
1.25735
1.25752
1.25767
1.25782
1.25796
1.2581
1.25823
1.25836
1.25848
1.25859
1.25871
1.25881
1.25892
1.25902
1.25912
1.25921
1.2593
1.25939
1.25948
1.25957
1.25965
1.25973
1.25981
1.25988
1.25996
1.26003
1.2601
1.26018
1.26025
1.26031
1.26038
1.26045
1.26052
1.26059
1.26066
1.26073
1.2608
1.26087
1.26095
1.26103
1.26111
1.2612
1.26129
1.26138
1.26149
1.2616
1.26171
1.26184
1.26197
1.26212
1.26227
1.26244
1.26262
1.26281
1.26302
1.26324
1.26348
1.26374
1.26401
1.26431
1.26462
1.26496
1.26531
1.26569
1.2661
1.26653
1.26699
1.26747
1.26799
1.26853
1.26911
1.26971
1.27036
1.27104
1.27175
1.27251
1.27331
1.27415
1.27504
1.27599
1.27699
1.27804
1.27917
1.28037
1.28165
1.28302
1.2845
1.28611
1.28785
1.28977
1.2919
1.29428
1.29699
1.30013
1.30384
1.30835
1.31417
1.32234
1.33386
1.35008
1.38161
1.17608
1.18575
1.19767
1.20752
1.21263
1.21521
1.21682
1.21799
1.21885
1.2195
1.21998
1.22037
1.22067
1.22093
1.22113
1.22131
1.22145
1.22158
1.22168
1.22177
1.22185
1.22192
1.22198
1.22203
1.22207
1.2221
1.22213
1.22216
1.22218
1.2222
1.22221
1.22222
1.22223
1.22224
1.22224
1.22224
1.22224
1.22225
1.22224
1.22225
1.22224
1.22225
1.22225
1.22225
1.22225
1.22226
1.22226
1.22228
1.22229
1.2223
1.22232
1.22235
1.22237
1.22241
1.22244
1.22248
1.22253
1.22259
1.22264
1.22271
1.22278
1.22286
1.22295
1.22304
1.22315
1.22326
1.22337
1.2235
1.22363
1.22377
1.22392
1.22408
1.22425
1.22442
1.2246
1.22479
1.22499
1.22519
1.2254
1.22562
1.22585
1.22608
1.22632
1.22656
1.22681
1.22707
1.22733
1.2276
1.22787
1.22814
1.22842
1.2287
1.22899
1.22927
1.22956
1.22984
1.23013
1.23042
1.2307
1.23098
1.23126
1.23154
1.23181
1.23208
1.23235
1.2326
1.23286
1.2331
1.23334
1.23357
1.23379
1.23401
1.23421
1.23441
1.23459
1.23477
1.23493
1.23509
1.23523
1.23537
1.23549
1.2356
1.23571
1.2358
1.23589
1.23596
1.23603
1.23609
1.23614
1.23618
1.23622
1.23625
1.23627
1.23629
1.2363
1.23631
1.23632
1.23632
1.23632
1.23632
1.23631
1.2363
1.23629
1.23628
1.23627
1.23626
1.23624
1.23623
1.23622
1.23621
1.23619
1.23618
1.23617
1.23616
1.23615
1.23614
1.23613
1.23612
1.23612
1.23612
1.23611
1.23611
1.23611
1.23611
1.23611
1.23612
1.23612
1.23613
1.23613
1.23614
1.23615
1.23616
1.23617
1.23618
1.2362
1.23621
1.23622
1.23624
1.23626
1.23627
1.23629
1.23631
1.23633
1.23635
1.23637
1.23639
1.23641
1.23643
1.23645
1.23648
1.2365
1.23652
1.23655
1.23657
1.23659
1.23662
1.23665
1.23667
1.2367
1.23673
1.23676
1.23679
1.23682
1.23685
1.23688
1.23692
1.23695
1.23699
1.23703
1.23707
1.23711
1.23715
1.2372
1.23725
1.2373
1.23735
1.2374
1.23746
1.23752
1.23759
1.23765
1.23773
1.2378
1.23788
1.23796
1.23805
1.23814
1.23823
1.23833
1.23844
1.23855
1.23866
1.23879
1.23891
1.23905
1.23919
1.23933
1.23949
1.23965
1.23981
1.23999
1.24017
1.24036
1.24056
1.24076
1.24098
1.2412
1.24143
1.24167
1.24192
1.24217
1.24244
1.24271
1.24299
1.24328
1.24357
1.24388
1.24419
1.24451
1.24484
1.24518
1.24552
1.24587
1.24622
1.24658
1.24694
1.24731
1.24768
1.24806
1.24843
1.24881
1.24919
1.24957
1.24994
1.25032
1.25069
1.25106
1.25143
1.25179
1.25214
1.25249
1.25283
1.25316
1.25349
1.2538
1.25411
1.2544
1.25469
1.25496
1.25523
1.25548
1.25573
1.25596
1.25619
1.2564
1.25661
1.2568
1.25699
1.25717
1.25734
1.2575
1.25766
1.2578
1.25795
1.25808
1.25821
1.25834
1.25846
1.25858
1.25869
1.2588
1.2589
1.259
1.2591
1.2592
1.25929
1.25938
1.25947
1.25955
1.25963
1.25972
1.25979
1.25987
1.25995
1.26002
1.26009
1.26017
1.26024
1.26031
1.26037
1.26044
1.26051
1.26058
1.26065
1.26072
1.26079
1.26087
1.26094
1.26102
1.26111
1.2612
1.26129
1.26139
1.26149
1.2616
1.26172
1.26185
1.26198
1.26213
1.26229
1.26246
1.26264
1.26284
1.26305
1.26327
1.26351
1.26377
1.26405
1.26435
1.26467
1.26501
1.26537
1.26575
1.26616
1.2666
1.26706
1.26755
1.26807
1.26861
1.26919
1.26981
1.27046
1.27114
1.27186
1.27263
1.27343
1.27429
1.27519
1.27614
1.27715
1.27822
1.27936
1.28057
1.28187
1.28327
1.28478
1.28642
1.2882
1.29018
1.29238
1.29485
1.29769
1.30099
1.30494
1.30982
1.31598
1.32396
1.33555
1.35604
1.38882
1.1958
1.19386
1.20109
1.20713
1.21091
1.21363
1.21559
1.21697
1.21798
1.21874
1.21933
1.2198
1.22018
1.22049
1.22074
1.22096
1.22114
1.22129
1.22142
1.22154
1.22163
1.22172
1.22179
1.22185
1.22191
1.22195
1.22199
1.22203
1.22206
1.22208
1.2221
1.22212
1.22213
1.22214
1.22215
1.22216
1.22216
1.22217
1.22217
1.22217
1.22218
1.22218
1.22218
1.22219
1.2222
1.2222
1.22221
1.22223
1.22224
1.22226
1.22228
1.2223
1.22233
1.22237
1.22241
1.22245
1.2225
1.22255
1.22262
1.22268
1.22276
1.22284
1.22293
1.22302
1.22313
1.22324
1.22336
1.22349
1.22362
1.22376
1.22391
1.22407
1.22424
1.22441
1.2246
1.22479
1.22499
1.22519
1.2254
1.22562
1.22585
1.22608
1.22632
1.22657
1.22682
1.22708
1.22734
1.22761
1.22788
1.22815
1.22843
1.22871
1.229
1.22928
1.22957
1.22985
1.23014
1.23043
1.23071
1.23099
1.23127
1.23155
1.23182
1.23209
1.23235
1.23261
1.23286
1.23311
1.23334
1.23357
1.2338
1.23401
1.23421
1.23441
1.23459
1.23477
1.23493
1.23508
1.23523
1.23536
1.23548
1.23559
1.2357
1.23579
1.23587
1.23595
1.23601
1.23607
1.23612
1.23616
1.2362
1.23623
1.23625
1.23627
1.23629
1.2363
1.2363
1.2363
1.2363
1.2363
1.23629
1.23629
1.23628
1.23627
1.23625
1.23624
1.23623
1.23622
1.23621
1.23619
1.23618
1.23617
1.23616
1.23615
1.23614
1.23613
1.23612
1.23612
1.23611
1.23611
1.2361
1.2361
1.2361
1.2361
1.23611
1.23611
1.23612
1.23612
1.23613
1.23614
1.23615
1.23616
1.23617
1.23618
1.23619
1.23621
1.23622
1.23624
1.23625
1.23627
1.23629
1.23631
1.23633
1.23635
1.23637
1.23639
1.23641
1.23643
1.23645
1.23647
1.2365
1.23652
1.23654
1.23657
1.23659
1.23662
1.23665
1.23667
1.2367
1.23673
1.23676
1.23679
1.23682
1.23685
1.23688
1.23692
1.23695
1.23699
1.23703
1.23707
1.23711
1.23716
1.2372
1.23725
1.2373
1.23735
1.23741
1.23747
1.23753
1.23759
1.23766
1.23773
1.2378
1.23788
1.23796
1.23805
1.23814
1.23824
1.23834
1.23845
1.23856
1.23867
1.23879
1.23892
1.23906
1.2392
1.23935
1.2395
1.23966
1.23983
1.24
1.24019
1.24038
1.24058
1.24078
1.241
1.24122
1.24145
1.24169
1.24194
1.24219
1.24246
1.24273
1.24301
1.2433
1.2436
1.24391
1.24422
1.24454
1.24487
1.2452
1.24555
1.24589
1.24625
1.24661
1.24697
1.24734
1.24771
1.24809
1.24846
1.24884
1.24922
1.2496
1.24997
1.25035
1.25072
1.25109
1.25145
1.25181
1.25217
1.25251
1.25285
1.25318
1.2535
1.25382
1.25412
1.25441
1.2547
1.25497
1.25523
1.25549
1.25573
1.25596
1.25618
1.2564
1.2566
1.2568
1.25698
1.25716
1.25733
1.25749
1.25764
1.25779
1.25793
1.25807
1.2582
1.25833
1.25845
1.25856
1.25868
1.25878
1.25889
1.25899
1.25909
1.25918
1.25928
1.25937
1.25945
1.25954
1.25962
1.2597
1.25978
1.25986
1.25994
1.26001
1.26008
1.26016
1.26023
1.2603
1.26036
1.26043
1.2605
1.26057
1.26064
1.26071
1.26079
1.26086
1.26094
1.26102
1.2611
1.26119
1.26128
1.26138
1.26149
1.2616
1.26172
1.26185
1.26199
1.26213
1.26229
1.26246
1.26265
1.26284
1.26306
1.26328
1.26353
1.26379
1.26407
1.26437
1.26469
1.26503
1.2654
1.26578
1.2662
1.26663
1.2671
1.26759
1.26811
1.26866
1.26925
1.26987
1.27052
1.27121
1.27193
1.2727
1.27351
1.27437
1.27527
1.27623
1.27725
1.27832
1.27947
1.28069
1.282
1.28341
1.28492
1.28657
1.28838
1.29036
1.29258
1.29507
1.29792
1.30122
1.30513
1.30984
1.31575
1.32341
1.333
1.34342
1.35361
1.20381
1.20284
1.20511
1.20783
1.21081
1.21322
1.21498
1.21631
1.21735
1.21816
1.21881
1.21933
1.21975
1.2201
1.2204
1.22064
1.22085
1.22103
1.22118
1.22132
1.22143
1.22153
1.22162
1.22169
1.22175
1.22181
1.22186
1.2219
1.22194
1.22197
1.22199
1.22202
1.22203
1.22205
1.22206
1.22207
1.22208
1.22209
1.2221
1.2221
1.22211
1.22212
1.22212
1.22213
1.22214
1.22215
1.22216
1.22217
1.22219
1.22221
1.22223
1.22226
1.22229
1.22233
1.22236
1.22241
1.22246
1.22252
1.22258
1.22265
1.22273
1.22281
1.2229
1.223
1.2231
1.22321
1.22333
1.22346
1.2236
1.22374
1.2239
1.22406
1.22422
1.2244
1.22458
1.22478
1.22498
1.22518
1.2254
1.22562
1.22584
1.22608
1.22632
1.22657
1.22682
1.22708
1.22734
1.22761
1.22788
1.22816
1.22844
1.22872
1.229
1.22929
1.22958
1.22986
1.23015
1.23044
1.23072
1.231
1.23128
1.23156
1.23183
1.2321
1.23237
1.23262
1.23287
1.23312
1.23336
1.23359
1.23381
1.23402
1.23422
1.23441
1.2346
1.23477
1.23493
1.23509
1.23523
1.23536
1.23548
1.23559
1.23569
1.23579
1.23587
1.23594
1.23601
1.23606
1.23611
1.23615
1.23619
1.23622
1.23624
1.23626
1.23627
1.23628
1.23629
1.23629
1.23629
1.23629
1.23628
1.23627
1.23626
1.23625
1.23624
1.23623
1.23622
1.23621
1.23619
1.23618
1.23617
1.23616
1.23615
1.23614
1.23613
1.23612
1.23611
1.23611
1.2361
1.2361
1.2361
1.2361
1.2361
1.2361
1.2361
1.23611
1.23611
1.23612
1.23612
1.23613
1.23614
1.23615
1.23617
1.23618
1.23619
1.23621
1.23622
1.23624
1.23625
1.23627
1.23629
1.23631
1.23633
1.23635
1.23637
1.23639
1.23641
1.23643
1.23645
1.23647
1.2365
1.23652
1.23654
1.23657
1.23659
1.23662
1.23665
1.23667
1.2367
1.23673
1.23676
1.23679
1.23682
1.23685
1.23689
1.23692
1.23696
1.23699
1.23703
1.23707
1.23711
1.23716
1.2372
1.23725
1.2373
1.23735
1.23741
1.23747
1.23753
1.23759
1.23766
1.23773
1.23781
1.23789
1.23797
1.23806
1.23815
1.23824
1.23834
1.23845
1.23856
1.23868
1.2388
1.23893
1.23906
1.2392
1.23935
1.23951
1.23967
1.23984
1.24001
1.2402
1.24039
1.24059
1.24079
1.24101
1.24123
1.24146
1.2417
1.24195
1.24221
1.24247
1.24275
1.24303
1.24332
1.24362
1.24392
1.24424
1.24456
1.24489
1.24523
1.24557
1.24592
1.24627
1.24663
1.247
1.24737
1.24774
1.24811
1.24849
1.24887
1.24925
1.24963
1.25
1.25038
1.25075
1.25112
1.25148
1.25184
1.25219
1.25254
1.25288
1.25321
1.25353
1.25384
1.25414
1.25443
1.25471
1.25499
1.25525
1.2555
1.25574
1.25597
1.25619
1.2564
1.2566
1.2568
1.25698
1.25716
1.25733
1.25749
1.25764
1.25779
1.25793
1.25806
1.25819
1.25832
1.25844
1.25855
1.25867
1.25877
1.25888
1.25898
1.25908
1.25917
1.25927
1.25936
1.25945
1.25953
1.25961
1.25969
1.25977
1.25985
1.25993
1.26
1.26007
1.26015
1.26022
1.26029
1.26036
1.26042
1.26049
1.26056
1.26063
1.2607
1.26078
1.26085
1.26093
1.26101
1.26109
1.26118
1.26127
1.26137
1.26148
1.26159
1.26171
1.26184
1.26198
1.26212
1.26228
1.26245
1.26264
1.26284
1.26305
1.26328
1.26352
1.26379
1.26407
1.26437
1.26469
1.26503
1.2654
1.26579
1.2662
1.26664
1.26711
1.2676
1.26813
1.26868
1.26927
1.26989
1.27054
1.27123
1.27196
1.27273
1.27355
1.2744
1.27531
1.27627
1.27728
1.27836
1.27951
1.28073
1.28203
1.28343
1.28495
1.28658
1.28837
1.29034
1.29252
1.29495
1.29772
1.30088
1.30456
1.30887
1.31392
1.31979
1.32633
1.33164
1.33183
1.20818
1.20773
1.20831
1.20981
1.21169
1.21337
1.21482
1.21602
1.217
1.21779
1.21844
1.21897
1.21942
1.21979
1.2201
1.22037
1.2206
1.2208
1.22097
1.22112
1.22124
1.22136
1.22145
1.22154
1.22161
1.22168
1.22173
1.22178
1.22182
1.22186
1.22189
1.22192
1.22194
1.22196
1.22198
1.22199
1.22201
1.22202
1.22203
1.22204
1.22204
1.22205
1.22206
1.22207
1.22208
1.22209
1.2221
1.22212
1.22214
1.22216
1.22218
1.22221
1.22224
1.22228
1.22232
1.22237
1.22242
1.22248
1.22254
1.22261
1.22269
1.22277
1.22286
1.22296
1.22307
1.22318
1.22331
1.22344
1.22357
1.22372
1.22387
1.22403
1.2242
1.22438
1.22457
1.22476
1.22496
1.22517
1.22538
1.2256
1.22583
1.22607
1.22631
1.22656
1.22681
1.22707
1.22734
1.22761
1.22788
1.22816
1.22844
1.22872
1.22901
1.22929
1.22958
1.22987
1.23016
1.23045
1.23073
1.23102
1.2313
1.23158
1.23185
1.23212
1.23238
1.23264
1.23289
1.23314
1.23337
1.2336
1.23382
1.23403
1.23424
1.23443
1.23461
1.23479
1.23495
1.2351
1.23524
1.23537
1.23549
1.2356
1.2357
1.23579
1.23587
1.23594
1.23601
1.23606
1.23611
1.23615
1.23618
1.23621
1.23624
1.23625
1.23627
1.23627
1.23628
1.23628
1.23628
1.23628
1.23627
1.23626
1.23625
1.23624
1.23623
1.23622
1.23621
1.2362
1.23619
1.23617
1.23616
1.23615
1.23614
1.23613
1.23612
1.23612
1.23611
1.2361
1.2361
1.2361
1.23609
1.23609
1.23609
1.2361
1.2361
1.2361
1.23611
1.23611
1.23612
1.23613
1.23614
1.23615
1.23616
1.23618
1.23619
1.2362
1.23622
1.23624
1.23625
1.23627
1.23629
1.23631
1.23633
1.23635
1.23637
1.23639
1.23641
1.23643
1.23645
1.23648
1.2365
1.23652
1.23655
1.23657
1.2366
1.23662
1.23665
1.23668
1.2367
1.23673
1.23676
1.23679
1.23682
1.23685
1.23689
1.23692
1.23696
1.23699
1.23703
1.23707
1.23711
1.23716
1.2372
1.23725
1.2373
1.23736
1.23741
1.23747
1.23753
1.2376
1.23766
1.23773
1.23781
1.23789
1.23797
1.23806
1.23815
1.23824
1.23834
1.23845
1.23856
1.23868
1.2388
1.23893
1.23906
1.23921
1.23935
1.23951
1.23967
1.23984
1.24001
1.2402
1.24039
1.24059
1.2408
1.24101
1.24124
1.24147
1.24171
1.24196
1.24221
1.24248
1.24275
1.24304
1.24333
1.24363
1.24394
1.24425
1.24457
1.2449
1.24524
1.24559
1.24594
1.24629
1.24665
1.24702
1.24739
1.24776
1.24814
1.24852
1.2489
1.24927
1.24965
1.25003
1.25041
1.25078
1.25115
1.25151
1.25187
1.25223
1.25257
1.25291
1.25324
1.25356
1.25387
1.25417
1.25446
1.25474
1.25501
1.25527
1.25552
1.25576
1.25599
1.25621
1.25641
1.25661
1.25681
1.25699
1.25716
1.25733
1.25749
1.25764
1.25779
1.25793
1.25806
1.25819
1.25831
1.25843
1.25855
1.25866
1.25877
1.25887
1.25897
1.25907
1.25917
1.25926
1.25935
1.25944
1.25952
1.25961
1.25969
1.25977
1.25984
1.25992
1.25999
1.26007
1.26014
1.26021
1.26028
1.26035
1.26041
1.26048
1.26055
1.26062
1.26069
1.26076
1.26084
1.26091
1.26099
1.26107
1.26116
1.26125
1.26135
1.26146
1.26157
1.26169
1.26182
1.26195
1.2621
1.26226
1.26243
1.26262
1.26282
1.26303
1.26326
1.2635
1.26377
1.26405
1.26435
1.26467
1.26501
1.26538
1.26577
1.26619
1.26663
1.26709
1.26759
1.26811
1.26867
1.26926
1.26988
1.27053
1.27122
1.27195
1.27272
1.27353
1.27439
1.27529
1.27625
1.27726
1.27833
1.27947
1.28068
1.28197
1.28335
1.28484
1.28645
1.28819
1.2901
1.2922
1.29453
1.29713
1.30005
1.30334
1.30704
1.31112
1.31532
1.31908
1.32169
1.32099
1.21125
1.21072
1.21085
1.21167
1.21275
1.21392
1.21504
1.21603
1.21688
1.2176
1.21821
1.21873
1.21917
1.21955
1.21987
1.22015
1.22039
1.2206
1.22078
1.22094
1.22108
1.2212
1.2213
1.2214
1.22148
1.22155
1.22161
1.22167
1.22171
1.22176
1.22179
1.22183
1.22185
1.22188
1.2219
1.22191
1.22193
1.22194
1.22196
1.22197
1.22198
1.22199
1.222
1.22201
1.22202
1.22203
1.22205
1.22207
1.22208
1.22211
1.22213
1.22216
1.22219
1.22223
1.22227
1.22232
1.22237
1.22243
1.2225
1.22257
1.22265
1.22273
1.22282
1.22292
1.22303
1.22315
1.22327
1.2234
1.22354
1.22369
1.22384
1.224
1.22417
1.22435
1.22454
1.22473
1.22494
1.22515
1.22536
1.22559
1.22581
1.22605
1.2263
1.22655
1.2268
1.22706
1.22733
1.2276
1.22787
1.22815
1.22844
1.22872
1.22901
1.2293
1.22959
1.22988
1.23017
1.23046
1.23074
1.23103
1.23131
1.23159
1.23187
1.23214
1.2324
1.23266
1.23291
1.23316
1.23339
1.23363
1.23385
1.23406
1.23426
1.23445
1.23464
1.23481
1.23497
1.23512
1.23526
1.23539
1.23551
1.23562
1.23572
1.2358
1.23588
1.23595
1.23601
1.23607
1.23611
1.23615
1.23619
1.23621
1.23623
1.23625
1.23626
1.23627
1.23627
1.23628
1.23627
1.23627
1.23626
1.23626
1.23625
1.23624
1.23623
1.23621
1.2362
1.23619
1.23618
1.23617
1.23615
1.23614
1.23613
1.23612
1.23612
1.23611
1.2361
1.2361
1.23609
1.23609
1.23609
1.23609
1.23609
1.23609
1.23609
1.2361
1.2361
1.23611
1.23612
1.23613
1.23614
1.23615
1.23616
1.23618
1.23619
1.2362
1.23622
1.23624
1.23625
1.23627
1.23629
1.23631
1.23633
1.23635
1.23637
1.23639
1.23641
1.23643
1.23645
1.23648
1.2365
1.23652
1.23655
1.23657
1.2366
1.23662
1.23665
1.23668
1.2367
1.23673
1.23676
1.23679
1.23682
1.23686
1.23689
1.23692
1.23696
1.237
1.23703
1.23707
1.23712
1.23716
1.23721
1.23725
1.2373
1.23736
1.23741
1.23747
1.23753
1.2376
1.23766
1.23773
1.23781
1.23789
1.23797
1.23806
1.23815
1.23824
1.23834
1.23845
1.23856
1.23868
1.2388
1.23893
1.23906
1.2392
1.23935
1.23951
1.23967
1.23984
1.24001
1.2402
1.24039
1.24059
1.24079
1.24101
1.24123
1.24147
1.24171
1.24196
1.24221
1.24248
1.24276
1.24304
1.24333
1.24363
1.24394
1.24426
1.24458
1.24491
1.24525
1.2456
1.24595
1.2463
1.24667
1.24704
1.24741
1.24778
1.24816
1.24854
1.24892
1.2493
1.24968
1.25006
1.25044
1.25081
1.25118
1.25155
1.25191
1.25226
1.25261
1.25295
1.25327
1.25359
1.2539
1.25421
1.25449
1.25477
1.25504
1.2553
1.25555
1.25578
1.25601
1.25623
1.25644
1.25663
1.25682
1.257
1.25717
1.25734
1.2575
1.25765
1.25779
1.25793
1.25806
1.25819
1.25831
1.25843
1.25855
1.25866
1.25877
1.25887
1.25897
1.25907
1.25916
1.25926
1.25934
1.25943
1.25952
1.2596
1.25968
1.25976
1.25984
1.25991
1.25999
1.26006
1.26013
1.2602
1.26027
1.26034
1.2604
1.26047
1.26054
1.26061
1.26067
1.26075
1.26082
1.26089
1.26097
1.26105
1.26114
1.26123
1.26133
1.26143
1.26154
1.26166
1.26179
1.26192
1.26207
1.26223
1.2624
1.26258
1.26278
1.26299
1.26322
1.26346
1.26373
1.26401
1.26431
1.26463
1.26497
1.26534
1.26573
1.26614
1.26658
1.26705
1.26754
1.26807
1.26862
1.26921
1.26983
1.27048
1.27117
1.2719
1.27266
1.27347
1.27432
1.27522
1.27617
1.27717
1.27823
1.27935
1.28054
1.28181
1.28317
1.28461
1.28617
1.28785
1.28968
1.29166
1.29384
1.29622
1.29884
1.30168
1.30472
1.30783
1.31077
1.31303
1.3142
1.31393
1.21335
1.21279
1.21277
1.21318
1.21383
1.21463
1.21545
1.21622
1.21693
1.21756
1.21812
1.2186
1.21902
1.21938
1.2197
1.21998
1.22022
1.22043
1.22062
1.22079
1.22093
1.22106
1.22117
1.22127
1.22136
1.22143
1.2215
1.22156
1.22161
1.22166
1.2217
1.22174
1.22177
1.2218
1.22182
1.22184
1.22186
1.22187
1.22189
1.2219
1.22191
1.22193
1.22194
1.22195
1.22196
1.22198
1.22199
1.22201
1.22203
1.22205
1.22208
1.22211
1.22214
1.22218
1.22222
1.22227
1.22233
1.22239
1.22245
1.22252
1.2226
1.22269
1.22278
1.22288
1.22299
1.22311
1.22323
1.22336
1.2235
1.22365
1.2238
1.22397
1.22414
1.22432
1.22451
1.2247
1.22491
1.22512
1.22533
1.22556
1.22579
1.22603
1.22627
1.22653
1.22678
1.22705
1.22731
1.22759
1.22786
1.22814
1.22843
1.22872
1.22901
1.2293
1.22959
1.22988
1.23017
1.23047
1.23076
1.23104
1.23133
1.23161
1.23188
1.23216
1.23242
1.23268
1.23294
1.23318
1.23342
1.23365
1.23387
1.23409
1.23429
1.23448
1.23467
1.23484
1.235
1.23515
1.23529
1.23542
1.23553
1.23564
1.23574
1.23582
1.2359
1.23597
1.23603
1.23608
1.23613
1.23616
1.23619
1.23622
1.23624
1.23625
1.23626
1.23627
1.23627
1.23628
1.23627
1.23627
1.23626
1.23625
1.23624
1.23623
1.23622
1.23621
1.2362
1.23618
1.23617
1.23616
1.23615
1.23614
1.23613
1.23612
1.23611
1.2361
1.2361
1.23609
1.23609
1.23609
1.23608
1.23609
1.23609
1.23609
1.23609
1.2361
1.2361
1.23611
1.23612
1.23613
1.23614
1.23615
1.23616
1.23618
1.23619
1.2362
1.23622
1.23624
1.23625
1.23627
1.23629
1.23631
1.23633
1.23635
1.23637
1.23639
1.23641
1.23643
1.23646
1.23648
1.2365
1.23653
1.23655
1.23658
1.2366
1.23663
1.23665
1.23668
1.23671
1.23674
1.23676
1.2368
1.23683
1.23686
1.23689
1.23693
1.23696
1.237
1.23704
1.23708
1.23712
1.23716
1.23721
1.23725
1.2373
1.23736
1.23741
1.23747
1.23753
1.23759
1.23766
1.23773
1.2378
1.23788
1.23796
1.23805
1.23814
1.23824
1.23834
1.23844
1.23855
1.23867
1.23879
1.23892
1.23905
1.23919
1.23934
1.2395
1.23966
1.23983
1.24
1.24019
1.24038
1.24058
1.24078
1.241
1.24122
1.24146
1.2417
1.24195
1.24221
1.24247
1.24275
1.24303
1.24333
1.24363
1.24394
1.24425
1.24458
1.24491
1.24525
1.2456
1.24595
1.24631
1.24668
1.24705
1.24742
1.2478
1.24818
1.24856
1.24894
1.24933
1.24971
1.25009
1.25047
1.25085
1.25122
1.25159
1.25195
1.2523
1.25265
1.25299
1.25332
1.25364
1.25395
1.25425
1.25454
1.25482
1.25508
1.25534
1.25558
1.25582
1.25604
1.25626
1.25646
1.25666
1.25685
1.25702
1.25719
1.25736
1.25751
1.25766
1.2578
1.25794
1.25807
1.2582
1.25832
1.25844
1.25855
1.25866
1.25877
1.25887
1.25897
1.25907
1.25916
1.25925
1.25934
1.25943
1.25951
1.2596
1.25968
1.25976
1.25983
1.25991
1.25998
1.26005
1.26012
1.26019
1.26026
1.26033
1.26039
1.26046
1.26052
1.26059
1.26066
1.26073
1.2608
1.26087
1.26095
1.26103
1.26111
1.2612
1.2613
1.2614
1.26151
1.26162
1.26175
1.26188
1.26203
1.26218
1.26235
1.26253
1.26273
1.26294
1.26317
1.26341
1.26367
1.26395
1.26425
1.26457
1.26491
1.26527
1.26566
1.26607
1.26651
1.26698
1.26747
1.26799
1.26855
1.26913
1.26975
1.2704
1.27108
1.2718
1.27256
1.27336
1.27421
1.2751
1.27603
1.27702
1.27806
1.27916
1.28033
1.28156
1.28288
1.28428
1.28577
1.28737
1.28909
1.29094
1.29293
1.29507
1.29736
1.29976
1.30219
1.30452
1.30655
1.30799
1.30856
1.30833
1.21482
1.21433
1.21422
1.2144
1.2148
1.21534
1.21593
1.21653
1.2171
1.21764
1.21812
1.21855
1.21894
1.21928
1.21959
1.21986
1.22009
1.2203
1.22049
1.22066
1.22081
1.22094
1.22105
1.22116
1.22125
1.22133
1.2214
1.22147
1.22152
1.22157
1.22161
1.22165
1.22169
1.22172
1.22174
1.22177
1.22179
1.22181
1.22182
1.22184
1.22185
1.22186
1.22188
1.22189
1.2219
1.22192
1.22194
1.22196
1.22198
1.222
1.22203
1.22206
1.22209
1.22213
1.22217
1.22222
1.22227
1.22233
1.2224
1.22247
1.22255
1.22264
1.22273
1.22283
1.22294
1.22306
1.22318
1.22332
1.22346
1.22361
1.22376
1.22393
1.2241
1.22428
1.22447
1.22467
1.22487
1.22508
1.2253
1.22553
1.22576
1.226
1.22625
1.2265
1.22676
1.22703
1.22729
1.22757
1.22785
1.22813
1.22842
1.22871
1.229
1.2293
1.22959
1.22989
1.23018
1.23048
1.23077
1.23106
1.23134
1.23163
1.2319
1.23218
1.23245
1.23271
1.23296
1.23321
1.23345
1.23369
1.23391
1.23412
1.23433
1.23452
1.2347
1.23488
1.23504
1.23519
1.23532
1.23545
1.23557
1.23567
1.23577
1.23585
1.23593
1.23599
1.23605
1.2361
1.23614
1.23618
1.23621
1.23623
1.23625
1.23626
1.23627
1.23628
1.23628
1.23628
1.23627
1.23627
1.23626
1.23625
1.23624
1.23623
1.23622
1.2362
1.23619
1.23618
1.23617
1.23616
1.23614
1.23613
1.23612
1.23611
1.23611
1.2361
1.23609
1.23609
1.23609
1.23608
1.23608
1.23608
1.23608
1.23609
1.23609
1.2361
1.2361
1.23611
1.23612
1.23613
1.23614
1.23615
1.23616
1.23618
1.23619
1.23621
1.23622
1.23624
1.23625
1.23627
1.23629
1.23631
1.23633
1.23635
1.23637
1.23639
1.23641
1.23644
1.23646
1.23648
1.23651
1.23653
1.23655
1.23658
1.2366
1.23663
1.23666
1.23668
1.23671
1.23674
1.23677
1.2368
1.23683
1.23686
1.23689
1.23693
1.23696
1.237
1.23704
1.23708
1.23712
1.23716
1.23721
1.23725
1.2373
1.23736
1.23741
1.23747
1.23753
1.23759
1.23766
1.23773
1.2378
1.23788
1.23796
1.23805
1.23814
1.23823
1.23833
1.23843
1.23854
1.23866
1.23878
1.23891
1.23904
1.23918
1.23933
1.23948
1.23964
1.23981
1.23999
1.24017
1.24036
1.24056
1.24077
1.24098
1.24121
1.24144
1.24168
1.24193
1.24219
1.24246
1.24273
1.24302
1.24331
1.24361
1.24392
1.24424
1.24457
1.2449
1.24525
1.24559
1.24595
1.24631
1.24668
1.24705
1.24743
1.24781
1.24819
1.24858
1.24896
1.24935
1.24974
1.25012
1.2505
1.25088
1.25126
1.25163
1.25199
1.25235
1.2527
1.25304
1.25337
1.25369
1.254
1.2543
1.25459
1.25486
1.25513
1.25538
1.25563
1.25586
1.25608
1.2563
1.2565
1.25669
1.25687
1.25705
1.25722
1.25738
1.25753
1.25768
1.25782
1.25795
1.25808
1.25821
1.25833
1.25844
1.25856
1.25866
1.25877
1.25887
1.25897
1.25907
1.25916
1.25925
1.25934
1.25943
1.25951
1.25959
1.25967
1.25975
1.25983
1.2599
1.25998
1.26005
1.26011
1.26018
1.26025
1.26031
1.26038
1.26044
1.26051
1.26057
1.26064
1.26071
1.26078
1.26085
1.26092
1.261
1.26108
1.26117
1.26126
1.26136
1.26146
1.26158
1.2617
1.26183
1.26198
1.26213
1.26229
1.26247
1.26267
1.26287
1.2631
1.26334
1.2636
1.26387
1.26417
1.26449
1.26483
1.26519
1.26557
1.26598
1.26642
1.26688
1.26737
1.26789
1.26844
1.26902
1.26963
1.27027
1.27095
1.27167
1.27242
1.27321
1.27405
1.27492
1.27584
1.27681
1.27783
1.2789
1.28004
1.28123
1.2825
1.28384
1.28526
1.28676
1.28837
1.29007
1.29187
1.29376
1.29573
1.29771
1.29964
1.30139
1.30281
1.30374
1.30405
1.30373
1.21589
1.21549
1.21534
1.2154
1.21564
1.216
1.21643
1.21688
1.21734
1.21778
1.21819
1.21857
1.21892
1.21924
1.21952
1.21978
1.22
1.22021
1.22039
1.22056
1.2207
1.22084
1.22095
1.22106
1.22115
1.22124
1.22131
1.22138
1.22144
1.22149
1.22154
1.22158
1.22161
1.22165
1.22167
1.2217
1.22172
1.22174
1.22176
1.22178
1.22179
1.22181
1.22182
1.22183
1.22185
1.22187
1.22188
1.2219
1.22192
1.22195
1.22197
1.222
1.22204
1.22208
1.22212
1.22217
1.22222
1.22228
1.22235
1.22242
1.2225
1.22259
1.22268
1.22278
1.22289
1.22301
1.22313
1.22327
1.22341
1.22356
1.22372
1.22388
1.22406
1.22424
1.22443
1.22463
1.22483
1.22505
1.22527
1.22549
1.22573
1.22597
1.22622
1.22647
1.22673
1.227
1.22727
1.22755
1.22783
1.22812
1.22841
1.2287
1.229
1.22929
1.22959
1.22989
1.23019
1.23048
1.23078
1.23107
1.23136
1.23164
1.23193
1.2322
1.23247
1.23274
1.23299
1.23325
1.23349
1.23372
1.23395
1.23416
1.23437
1.23456
1.23475
1.23492
1.23508
1.23523
1.23537
1.23549
1.23561
1.23571
1.2358
1.23588
1.23596
1.23602
1.23608
1.23612
1.23616
1.2362
1.23622
1.23625
1.23626
1.23627
1.23628
1.23628
1.23628
1.23628
1.23628
1.23627
1.23626
1.23625
1.23624
1.23623
1.23622
1.2362
1.23619
1.23618
1.23616
1.23615
1.23614
1.23613
1.23612
1.23611
1.2361
1.2361
1.23609
1.23609
1.23608
1.23608
1.23608
1.23608
1.23608
1.23608
1.23609
1.23609
1.2361
1.23611
1.23612
1.23613
1.23614
1.23615
1.23616
1.23618
1.23619
1.23621
1.23622
1.23624
1.23626
1.23628
1.23629
1.23631
1.23633
1.23635
1.23638
1.2364
1.23642
1.23644
1.23646
1.23649
1.23651
1.23653
1.23656
1.23658
1.23661
1.23663
1.23666
1.23669
1.23672
1.23674
1.23677
1.2368
1.23683
1.23686
1.2369
1.23693
1.23697
1.237
1.23704
1.23708
1.23712
1.23716
1.23721
1.23725
1.2373
1.23735
1.23741
1.23747
1.23752
1.23759
1.23765
1.23772
1.23779
1.23787
1.23795
1.23804
1.23813
1.23822
1.23832
1.23842
1.23853
1.23865
1.23877
1.23889
1.23903
1.23917
1.23931
1.23946
1.23962
1.23979
1.23997
1.24015
1.24034
1.24054
1.24074
1.24096
1.24118
1.24142
1.24166
1.24191
1.24217
1.24243
1.24271
1.243
1.24329
1.24359
1.2439
1.24422
1.24455
1.24489
1.24523
1.24558
1.24594
1.2463
1.24667
1.24705
1.24743
1.24781
1.2482
1.24859
1.24898
1.24937
1.24976
1.25015
1.25053
1.25092
1.2513
1.25167
1.25204
1.2524
1.25275
1.25309
1.25342
1.25374
1.25405
1.25435
1.25464
1.25492
1.25518
1.25544
1.25568
1.25591
1.25613
1.25634
1.25654
1.25673
1.25691
1.25708
1.25725
1.2574
1.25756
1.2577
1.25784
1.25797
1.2581
1.25822
1.25834
1.25845
1.25856
1.25867
1.25878
1.25888
1.25897
1.25907
1.25916
1.25925
1.25934
1.25943
1.25951
1.25959
1.25967
1.25975
1.25983
1.2599
1.25997
1.26004
1.26011
1.26018
1.26024
1.2603
1.26037
1.26043
1.26049
1.26056
1.26062
1.26068
1.26075
1.26082
1.26089
1.26097
1.26105
1.26113
1.26122
1.26131
1.26142
1.26153
1.26165
1.26177
1.26191
1.26206
1.26223
1.2624
1.26259
1.2628
1.26302
1.26325
1.26351
1.26378
1.26407
1.26439
1.26472
1.26508
1.26546
1.26587
1.2663
1.26676
1.26724
1.26776
1.2683
1.26888
1.26948
1.27012
1.27079
1.2715
1.27224
1.27302
1.27384
1.2747
1.2756
1.27654
1.27754
1.27858
1.27967
1.28083
1.28203
1.28331
1.28465
1.28605
1.28753
1.28908
1.29069
1.29235
1.29402
1.29566
1.29718
1.2985
1.29952
1.30013
1.30029
1.29994
1.21672
1.21638
1.21621
1.21621
1.21635
1.21659
1.2169
1.21724
1.2176
1.21796
1.21831
1.21864
1.21895
1.21923
1.21949
1.21973
1.21995
1.22014
1.22032
1.22048
1.22062
1.22075
1.22087
1.22098
1.22107
1.22115
1.22123
1.2213
1.22136
1.22141
1.22146
1.2215
1.22154
1.22158
1.22161
1.22163
1.22166
1.22168
1.2217
1.22171
1.22173
1.22175
1.22176
1.22178
1.22179
1.22181
1.22183
1.22185
1.22187
1.22189
1.22192
1.22195
1.22198
1.22202
1.22207
1.22211
1.22217
1.22223
1.22229
1.22237
1.22245
1.22253
1.22263
1.22273
1.22284
1.22296
1.22308
1.22322
1.22336
1.22351
1.22367
1.22384
1.22401
1.2242
1.22439
1.22459
1.22479
1.22501
1.22523
1.22546
1.22569
1.22593
1.22618
1.22644
1.2267
1.22697
1.22725
1.22753
1.22781
1.2281
1.22839
1.22869
1.22899
1.22929
1.22959
1.22989
1.23019
1.23049
1.23079
1.23108
1.23138
1.23166
1.23195
1.23223
1.2325
1.23277
1.23303
1.23328
1.23353
1.23376
1.23399
1.23421
1.23441
1.23461
1.23479
1.23497
1.23513
1.23528
1.23541
1.23554
1.23565
1.23575
1.23584
1.23592
1.23599
1.23605
1.23611
1.23615
1.23619
1.23622
1.23624
1.23626
1.23628
1.23629
1.23629
1.23629
1.23629
1.23629
1.23628
1.23627
1.23626
1.23625
1.23624
1.23623
1.23621
1.2362
1.23619
1.23618
1.23616
1.23615
1.23614
1.23613
1.23612
1.23611
1.2361
1.23609
1.23609
1.23608
1.23608
1.23608
1.23608
1.23608
1.23608
1.23608
1.23609
1.23609
1.2361
1.23611
1.23612
1.23613
1.23614
1.23615
1.23616
1.23618
1.23619
1.23621
1.23622
1.23624
1.23626
1.23628