# vtk DataFile Version 2.0
LBE mesh
ASCII
DATASET STRUCTURED_POINTS
DIMENSIONS 400 100 1
ASPECT_RATIO 1 1 1
ORIGIN 0 0 0
POINT_DATA 40000
SCALARS rho double 1
LOOKUP_TABLE default
1.03687
1.0918
1.10825
1.11241
1.11462
1.11633
1.11753
1.11833
1.11888
1.11929
1.11961
1.11986
1.12006
1.12022
1.12035
1.12046
1.12055
1.12063
1.1207
1.12076
1.12081
1.12085
1.12089
1.12092
1.12095
1.12098
1.121
1.12102
1.12103
1.12105
1.12106
1.12108
1.12109
1.1211
1.12111
1.12112
1.12113
1.12114
1.12114
1.12115
1.12116
1.12117
1.12118
1.1212
1.12121
1.12123
1.12124
1.12126
1.12128
1.12131
1.12134
1.12137
1.12141
1.12145
1.12149
1.12154
1.1216
1.12166
1.12173
1.1218
1.12188
1.12197
1.12207
1.12218
1.12229
1.12242
1.12255
1.12269
1.12285
1.12301
1.12318
1.12336
1.12356
1.12376
1.12397
1.1242
1.12443
1.12468
1.12493
1.1252
1.12547
1.12575
1.12604
1.12634
1.12665
1.12697
1.12729
1.12762
1.12795
1.12829
1.12863
1.12898
1.12933
1.12968
1.13003
1.13038
1.13073
1.13108
1.13143
1.13177
1.13211
1.13245
1.13278
1.1331
1.13342
1.13373
1.13403
1.13432
1.1346
1.13488
1.13514
1.1354
1.13564
1.13588
1.1361
1.13631
1.13651
1.1367
1.13688
1.13705
1.13721
1.13736
1.13751
1.13764
1.13776
1.13788
1.13799
1.13809
1.13818
1.13827
1.13836
1.13844
1.13852
1.13859
1.13866
1.13873
1.1388
1.13886
1.13892
1.13899
1.13905
1.13911
1.13917
1.13923
1.13929
1.13935
1.13941
1.13947
1.13953
1.1396
1.13966
1.13972
1.13979
1.13986
1.13993
1.14
1.14007
1.14014
1.14021
1.14029
1.14036
1.14044
1.14052
1.1406
1.14069
1.14077
1.14086
1.14095
1.14104
1.14113
1.14123
1.14133
1.14143
1.14153
1.14163
1.14174
1.14185
1.14196
1.14207
1.14219
1.14231
1.14243
1.14255
1.14267
1.1428
1.14293
1.14306
1.14319
1.14332
1.14346
1.14359
1.14373
1.14387
1.14401
1.14415
1.14429
1.14444
1.14458
1.14472
1.14487
1.14501
1.14516
1.1453
1.14545
1.14559
1.14574
1.14588
1.14602
1.14617
1.14631
1.14645
1.1466
1.14674
1.14688
1.14702
1.14716
1.1473
1.14745
1.14759
1.14773
1.14787
1.14802
1.14816
1.14831
1.14846
1.14861
1.14876
1.14891
1.14906
1.14922
1.14938
1.14954
1.14971
1.14987
1.15005
1.15022
1.1504
1.15059
1.15078
1.15097
1.15117
1.15138
1.15159
1.1518
1.15203
1.15226
1.1525
1.15274
1.15299
1.15325
1.15352
1.1538
1.15408
1.15438
1.15468
1.15499
1.15531
1.15565
1.15599
1.15634
1.15669
1.15706
1.15744
1.15783
1.15822
1.15862
1.15904
1.15945
1.15988
1.16031
1.16075
1.16119
1.16163
1.16208
1.16253
1.16298
1.16343
1.16388
1.16433
1.16477
1.16521
1.16565
1.16608
1.16651
1.16692
1.16733
1.16773
1.16812
1.1685
1.16887
1.16923
1.16958
1.16992
1.17024
1.17056
1.17086
1.17116
1.17144
1.17171
1.17197
1.17221
1.17245
1.17268
1.17289
1.1731
1.1733
1.17348
1.17366
1.17383
1.17399
1.17414
1.17428
1.17441
1.17453
1.17464
1.17474
1.17484
1.17493
1.17501
1.17508
1.17514
1.17519
1.17524
1.17527
1.1753
1.17533
1.17534
1.17535
1.17536
1.17536
1.17535
1.17534
1.17532
1.1753
1.17528
1.17525
1.17523
1.1752
1.17517
1.17514
1.17512
1.1751
1.17508
1.17507
1.17506
1.17506
1.17506
1.17508
1.1751
1.17514
1.17519
1.17525
1.17533
1.17542
1.17554
1.17567
1.17582
1.17599
1.17619
1.1764
1.17665
1.17692
1.17722
1.17755
1.17791
1.17829
1.17872
1.17917
1.17966
1.18019
1.18075
1.18135
1.18199
1.18267
1.1834
1.18417
1.18498
1.18584
1.18676
1.18772
1.18875
1.18984
1.191
1.19223
1.19355
1.19497
1.1965
1.19816
1.19998
1.20199
1.20424
1.20678
1.20972
1.21317
1.21736
1.22275
1.23038
1.24119
1.25535
1.28061
1.07783
1.08939
1.10019
1.10815
1.11237
1.11465
1.11611
1.11716
1.11793
1.11851
1.11895
1.11929
1.11957
1.11979
1.11997
1.12012
1.12025
1.12036
1.12045
1.12053
1.1206
1.12066
1.12071
1.12076
1.1208
1.12083
1.12086
1.12089
1.12092
1.12094
1.12096
1.12098
1.12099
1.12101
1.12102
1.12104
1.12105
1.12106
1.12107
1.12109
1.1211
1.12111
1.12113
1.12114
1.12116
1.12118
1.12119
1.12122
1.12124
1.12127
1.1213
1.12133
1.12137
1.12141
1.12146
1.12151
1.12157
1.12164
1.12171
1.12178
1.12187
1.12196
1.12206
1.12217
1.12229
1.12241
1.12255
1.12269
1.12285
1.12301
1.12319
1.12337
1.12356
1.12377
1.12399
1.12421
1.12445
1.12469
1.12495
1.12521
1.12549
1.12577
1.12606
1.12637
1.12667
1.12699
1.12731
1.12764
1.12797
1.12831
1.12866
1.129
1.12935
1.1297
1.13005
1.1304
1.13075
1.1311
1.13145
1.13179
1.13213
1.13246
1.13279
1.13311
1.13342
1.13373
1.13403
1.13432
1.1346
1.13488
1.13514
1.13539
1.13563
1.13587
1.13609
1.1363
1.1365
1.13669
1.13686
1.13703
1.13719
1.13734
1.13748
1.13761
1.13774
1.13785
1.13796
1.13806
1.13816
1.13825
1.13833
1.13841
1.13849
1.13857
1.13864
1.13871
1.13877
1.13884
1.1389
1.13896
1.13902
1.13908
1.13915
1.13921
1.13927
1.13933
1.13939
1.13945
1.13951
1.13958
1.13964
1.13971
1.13977
1.13984
1.13991
1.13998
1.14005
1.14012
1.1402
1.14027
1.14035
1.14043
1.14051
1.14059
1.14068
1.14076
1.14085
1.14094
1.14103
1.14112
1.14122
1.14132
1.14142
1.14152
1.14163
1.14173
1.14184
1.14195
1.14207
1.14218
1.1423
1.14242
1.14254
1.14267
1.14279
1.14292
1.14305
1.14319
1.14332
1.14345
1.14359
1.14373
1.14387
1.14401
1.14415
1.14429
1.14443
1.14458
1.14472
1.14487
1.14501
1.14516
1.1453
1.14544
1.14559
1.14573
1.14588
1.14602
1.14616
1.14631
1.14645
1.14659
1.14673
1.14688
1.14702
1.14716
1.1473
1.14744
1.14759
1.14773
1.14787
1.14802
1.14816
1.14831
1.14845
1.1486
1.14875
1.14891
1.14906
1.14922
1.14938
1.14954
1.1497
1.14987
1.15005
1.15022
1.1504
1.15059
1.15078
1.15097
1.15117
1.15138
1.15159
1.15181
1.15203
1.15226
1.1525
1.15275
1.153
1.15326
1.15353
1.15381
1.15409
1.15439
1.15469
1.15501
1.15533
1.15566
1.156
1.15635
1.15671
1.15708
1.15746
1.15785
1.15824
1.15865
1.15906
1.15948
1.1599
1.16033
1.16077
1.16121
1.16165
1.1621
1.16255
1.163
1.16345
1.1639
1.16434
1.16479
1.16523
1.16566
1.16609
1.16652
1.16693
1.16734
1.16774
1.16812
1.1685
1.16887
1.16923
1.16958
1.16991
1.17024
1.17055
1.17085
1.17115
1.17143
1.17169
1.17195
1.1722
1.17244
1.17266
1.17288
1.17308
1.17328
1.17347
1.17364
1.17381
1.17397
1.17412
1.17425
1.17439
1.17451
1.17462
1.17472
1.17482
1.1749
1.17498
1.17505
1.17511
1.17517
1.17521
1.17525
1.17528
1.1753
1.17532
1.17533
1.17533
1.17533
1.17532
1.17531
1.17529
1.17527
1.17525
1.17523
1.1752
1.17517
1.17515
1.17512
1.1751
1.17508
1.17506
1.17505
1.17504
1.17504
1.17505
1.17507
1.1751
1.17514
1.17519
1.17526
1.17534
1.17544
1.17555
1.17568
1.17584
1.17602
1.17622
1.17644
1.17669
1.17696
1.17727
1.1776
1.17796
1.17836
1.17878
1.17925
1.17974
1.18027
1.18084
1.18145
1.18209
1.18278
1.18351
1.18429
1.18511
1.18598
1.1869
1.18788
1.18892
1.19002
1.19119
1.19245
1.19379
1.19523
1.1968
1.1985
1.20037
1.20244
1.20477
1.20742
1.21051
1.21419
1.21873
1.22445
1.23179
1.24231
1.26122
1.2921
1.09591
1.09613
1.10243
1.10759
1.11093
1.11332
1.11504
1.11626
1.11716
1.11783
1.11836
1.11878
1.11912
1.11939
1.11962
1.1198
1.11996
1.1201
1.12021
1.12031
1.1204
1.12047
1.12054
1.1206
1.12065
1.12069
1.12073
1.12077
1.1208
1.12083
1.12085
1.12088
1.1209
1.12092
1.12094
1.12095
1.12097
1.12099
1.121
1.12102
1.12103
1.12105
1.12106
1.12108
1.1211
1.12112
1.12114
1.12117
1.12119
1.12122
1.12125
1.12129
1.12133
1.12138
1.12142
1.12148
1.12154
1.1216
1.12168
1.12176
1.12184
1.12194
1.12204
1.12215
1.12227
1.1224
1.12253
1.12268
1.12284
1.123
1.12318
1.12336
1.12356
1.12377
1.12398
1.12421
1.12445
1.1247
1.12495
1.12522
1.1255
1.12578
1.12608
1.12638
1.12669
1.127
1.12733
1.12766
1.12799
1.12833
1.12867
1.12902
1.12937
1.12972
1.13007
1.13042
1.13077
1.13112
1.13146
1.1318
1.13214
1.13247
1.1328
1.13312
1.13343
1.13374
1.13403
1.13432
1.1346
1.13488
1.13514
1.13539
1.13563
1.13586
1.13608
1.13629
1.13648
1.13667
1.13685
1.13702
1.13717
1.13732
1.13746
1.13759
1.13771
1.13783
1.13793
1.13804
1.13813
1.13822
1.13831
1.13839
1.13846
1.13854
1.13861
1.13868
1.13874
1.13881
1.13887
1.13893
1.139
1.13906
1.13912
1.13918
1.13924
1.1393
1.13936
1.13943
1.13949
1.13955
1.13962
1.13968
1.13975
1.13982
1.13989
1.13996
1.14003
1.1401
1.14018
1.14025
1.14033
1.14041
1.14049
1.14057
1.14066
1.14074
1.14083
1.14092
1.14101
1.14111
1.14121
1.1413
1.1414
1.14151
1.14161
1.14172
1.14183
1.14194
1.14206
1.14217
1.14229
1.14241
1.14253
1.14266
1.14279
1.14292
1.14305
1.14318
1.14331
1.14345
1.14358
1.14372
1.14386
1.144
1.14414
1.14429
1.14443
1.14457
1.14472
1.14486
1.14501
1.14515
1.14529
1.14544
1.14558
1.14573
1.14587
1.14601
1.14616
1.1463
1.14644
1.14659
1.14673
1.14687
1.14701
1.14715
1.14729
1.14744
1.14758
1.14772
1.14786
1.14801
1.14815
1.1483
1.14844
1.14859
1.14874
1.1489
1.14905
1.14921
1.14937
1.14953
1.14969
1.14986
1.15004
1.15021
1.15039
1.15058
1.15077
1.15096
1.15116
1.15137
1.15158
1.1518
1.15202
1.15226
1.15249
1.15274
1.15299
1.15326
1.15353
1.1538
1.15409
1.15439
1.15469
1.15501
1.15533
1.15566
1.15601
1.15636
1.15672
1.15709
1.15747
1.15786
1.15825
1.15866
1.15907
1.15949
1.15991
1.16035
1.16078
1.16122
1.16167
1.16212
1.16256
1.16301
1.16346
1.16391
1.16436
1.1648
1.16524
1.16568
1.1661
1.16653
1.16694
1.16735
1.16774
1.16813
1.16851
1.16888
1.16923
1.16958
1.16991
1.17024
1.17055
1.17085
1.17114
1.17142
1.17169
1.17194
1.17219
1.17242
1.17265
1.17286
1.17307
1.17326
1.17345
1.17363
1.17379
1.17395
1.1741
1.17424
1.17437
1.17449
1.1746
1.1747
1.1748
1.17488
1.17496
1.17503
1.17509
1.17514
1.17519
1.17522
1.17525
1.17527
1.17529
1.1753
1.1753
1.1753
1.17529
1.17528
1.17526
1.17525
1.17522
1.1752
1.17517
1.17515
1.17512
1.1751
1.17507
1.17505
1.17504
1.17503
1.17502
1.17502
1.17503
1.17505
1.17508
1.17512
1.17518
1.17525
1.17533
1.17543
1.17555
1.17568
1.17584
1.17602
1.17622
1.17645
1.1767
1.17698
1.17729
1.17763
1.17799
1.17839
1.17882
1.17929
1.17979
1.18032
1.18089
1.18151
1.18216
1.18285
1.18359
1.18437
1.18519
1.18607
1.187
1.18798
1.18902
1.19013
1.19131
1.19257
1.19392
1.19538
1.19695
1.19866
1.20055
1.20263
1.20498
1.20765
1.21073
1.21437
1.21875
1.22423
1.23134
1.24017
1.24975
1.25971
1.10421
1.1035
1.10564
1.10823
1.11085
1.11294
1.11449
1.11567
1.11659
1.11732
1.11789
1.11835
1.11873
1.11904
1.1193
1.11951
1.1197
1.11985
1.11999
1.12011
1.12021
1.12029
1.12037
1.12044
1.1205
1.12055
1.1206
1.12064
1.12068
1.12072
1.12075
1.12078
1.1208
1.12083
1.12085
1.12087
1.12089
1.12091
1.12092
1.12094
1.12096
1.12098
1.121
1.12102
1.12104
1.12106
1.12108
1.12111
1.12114
1.12117
1.1212
1.12124
1.12128
1.12133
1.12138
1.12143
1.1215
1.12156
1.12164
1.12172
1.12181
1.1219
1.12201
1.12212
1.12224
1.12237
1.12251
1.12266
1.12281
1.12298
1.12316
1.12335
1.12355
1.12376
1.12397
1.1242
1.12444
1.12469
1.12495
1.12522
1.12549
1.12578
1.12608
1.12638
1.12669
1.12701
1.12733
1.12766
1.128
1.12834
1.12868
1.12903
1.12938
1.12973
1.13008
1.13043
1.13078
1.13113
1.13147
1.13181
1.13215
1.13248
1.13281
1.13313
1.13344
1.13375
1.13404
1.13433
1.13461
1.13488
1.13514
1.13539
1.13563
1.13586
1.13607
1.13628
1.13648
1.13666
1.13684
1.137
1.13716
1.13731
1.13744
1.13757
1.13769
1.13781
1.13791
1.13801
1.1381
1.13819
1.13828
1.13836
1.13843
1.13851
1.13858
1.13865
1.13871
1.13878
1.13884
1.1389
1.13896
1.13903
1.13909
1.13915
1.13921
1.13927
1.13933
1.13939
1.13946
1.13952
1.13959
1.13965
1.13972
1.13979
1.13986
1.13993
1.14
1.14007
1.14015
1.14023
1.1403
1.14038
1.14047
1.14055
1.14063
1.14072
1.14081
1.1409
1.14099
1.14109
1.14119
1.14129
1.14139
1.14149
1.1416
1.1417
1.14181
1.14193
1.14204
1.14216
1.14228
1.1424
1.14252
1.14265
1.14278
1.1429
1.14304
1.14317
1.1433
1.14344
1.14358
1.14371
1.14385
1.14399
1.14414
1.14428
1.14442
1.14456
1.14471
1.14485
1.145
1.14514
1.14529
1.14543
1.14557
1.14572
1.14586
1.14601
1.14615
1.14629
1.14643
1.14657
1.14672
1.14686
1.147
1.14714
1.14728
1.14742
1.14756
1.14771
1.14785
1.14799
1.14814
1.14828
1.14843
1.14858
1.14873
1.14888
1.14903
1.14919
1.14935
1.14951
1.14968
1.14985
1.15002
1.15019
1.15037
1.15056
1.15075
1.15094
1.15114
1.15135
1.15156
1.15178
1.152
1.15224
1.15247
1.15272
1.15298
1.15324
1.15351
1.15379
1.15407
1.15437
1.15468
1.15499
1.15532
1.15565
1.15599
1.15635
1.15671
1.15708
1.15746
1.15785
1.15825
1.15865
1.15907
1.15949
1.15992
1.16035
1.16079
1.16123
1.16168
1.16212
1.16257
1.16302
1.16348
1.16392
1.16437
1.16482
1.16525
1.16569
1.16612
1.16654
1.16695
1.16736
1.16775
1.16814
1.16852
1.16888
1.16924
1.16958
1.16991
1.17024
1.17055
1.17085
1.17114
1.17141
1.17168
1.17194
1.17218
1.17242
1.17264
1.17285
1.17306
1.17325
1.17344
1.17361
1.17378
1.17393
1.17408
1.17422
1.17435
1.17447
1.17458
1.17468
1.17478
1.17486
1.17494
1.17501
1.17507
1.17512
1.17516
1.1752
1.17523
1.17525
1.17527
1.17527
1.17528
1.17527
1.17526
1.17525
1.17524
1.17522
1.17519
1.17517
1.17514
1.17512
1.17509
1.17507
1.17504
1.17502
1.17501
1.175
1.17499
1.17499
1.175
1.17502
1.17505
1.1751
1.17515
1.17522
1.1753
1.17541
1.17553
1.17566
1.17582
1.176
1.17621
1.17644
1.17669
1.17697
1.17728
1.17762
1.17799
1.17839
1.17883
1.17929
1.1798
1.18034
1.18091
1.18153
1.18218
1.18288
1.18362
1.1844
1.18523
1.18611
1.18704
1.18802
1.18907
1.19017
1.19135
1.19261
1.19396
1.1954
1.19697
1.19867
1.20053
1.20258
1.20488
1.20747
1.21043
1.21386
1.21787
1.22255
1.22799
1.23409
1.23905
1.23932
1.10832
1.10783
1.10848
1.10989
1.11156
1.11306
1.11435
1.11541
1.11628
1.11698
1.11755
1.11803
1.11842
1.11875
1.11903
1.11926
1.11946
1.11963
1.11978
1.11991
1.12003
1.12013
1.12021
1.12029
1.12036
1.12042
1.12047
1.12052
1.12057
1.12061
1.12064
1.12068
1.12071
1.12073
1.12076
1.12078
1.1208
1.12083
1.12085
1.12087
1.12089
1.12091
1.12093
1.12095
1.12097
1.121
1.12102
1.12105
1.12108
1.12111
1.12114
1.12118
1.12123
1.12127
1.12133
1.12138
1.12145
1.12152
1.12159
1.12167
1.12176
1.12186
1.12196
1.12208
1.1222
1.12233
1.12247
1.12262
1.12278
1.12295
1.12313
1.12332
1.12352
1.12373
1.12395
1.12418
1.12442
1.12467
1.12493
1.1252
1.12548
1.12577
1.12607
1.12637
1.12668
1.127
1.12733
1.12766
1.128
1.12834
1.12869
1.12903
1.12938
1.12974
1.13009
1.13044
1.13079
1.13114
1.13148
1.13182
1.13216
1.13249
1.13282
1.13314
1.13345
1.13376
1.13405
1.13434
1.13462
1.13489
1.13514
1.13539
1.13563
1.13586
1.13607
1.13628
1.13647
1.13666
1.13683
1.137
1.13715
1.13729
1.13743
1.13755
1.13767
1.13778
1.13789
1.13799
1.13808
1.13817
1.13825
1.13833
1.1384
1.13848
1.13854
1.13861
1.13868
1.13874
1.1388
1.13887
1.13893
1.13899
1.13905
1.13911
1.13917
1.13923
1.1393
1.13936
1.13942
1.13949
1.13955
1.13962
1.13968
1.13975
1.13982
1.13989
1.13997
1.14004
1.14012
1.14019
1.14027
1.14035
1.14043
1.14052
1.1406
1.14069
1.14078
1.14087
1.14097
1.14106
1.14116
1.14126
1.14136
1.14147
1.14157
1.14168
1.14179
1.14191
1.14202
1.14214
1.14226
1.14238
1.14251
1.14263
1.14276
1.14289
1.14302
1.14315
1.14329
1.14343
1.14356
1.1437
1.14384
1.14398
1.14412
1.14427
1.14441
1.14455
1.1447
1.14484
1.14499
1.14513
1.14527
1.14542
1.14556
1.14571
1.14585
1.14599
1.14613
1.14628
1.14642
1.14656
1.1467
1.14684
1.14698
1.14712
1.14726
1.14741
1.14755
1.14769
1.14783
1.14797
1.14812
1.14826
1.14841
1.14856
1.14871
1.14886
1.14901
1.14917
1.14932
1.14949
1.14965
1.14982
1.14999
1.15017
1.15035
1.15053
1.15072
1.15091
1.15111
1.15132
1.15153
1.15175
1.15197
1.1522
1.15244
1.15269
1.15294
1.15321
1.15348
1.15376
1.15404
1.15434
1.15465
1.15496
1.15529
1.15562
1.15597
1.15632
1.15668
1.15706
1.15744
1.15783
1.15823
1.15864
1.15905
1.15948
1.15991
1.16034
1.16078
1.16123
1.16167
1.16212
1.16258
1.16303
1.16348
1.16393
1.16438
1.16482
1.16527
1.1657
1.16613
1.16655
1.16696
1.16737
1.16776
1.16815
1.16853
1.16889
1.16925
1.16959
1.16992
1.17024
1.17055
1.17085
1.17114
1.17141
1.17168
1.17193
1.17218
1.17241
1.17263
1.17285
1.17305
1.17324
1.17343
1.1736
1.17377
1.17392
1.17407
1.17421
1.17433
1.17445
1.17457
1.17467
1.17476
1.17485
1.17492
1.17499
1.17505
1.1751
1.17514
1.17518
1.17521
1.17523
1.17524
1.17525
1.17525
1.17525
1.17524
1.17522
1.17521
1.17518
1.17516
1.17514
1.17511
1.17508
1.17506
1.17503
1.17501
1.17499
1.17497
1.17496
1.17495
1.17495
1.17496
1.17498
1.17501
1.17506
1.17511
1.17518
1.17526
1.17537
1.17549
1.17563
1.17579
1.17597
1.17617
1.1764
1.17666
1.17694
1.17725
1.17759
1.17796
1.17837
1.1788
1.17927
1.17977
1.18032
1.18089
1.18151
1.18216
1.18286
1.1836
1.18438
1.18521
1.18609
1.18702
1.188
1.18904
1.19014
1.19131
1.19256
1.19389
1.19531
1.19685
1.19851
1.20032
1.2023
1.20449
1.20693
1.20966
1.21273
1.21618
1.21998
1.22388
1.2274
1.22986
1.22921
1.11102
1.11056
1.11074
1.11148
1.11247
1.11353
1.11452
1.1154
1.11616
1.1168
1.11734
1.1178
1.11819
1.11852
1.11881
1.11905
1.11926
1.11944
1.1196
1.11974
1.11986
1.11997
1.12006
1.12015
1.12022
1.12029
1.12035
1.12041
1.12045
1.1205
1.12054
1.12057
1.12061
1.12064
1.12067
1.12069
1.12072
1.12074
1.12077
1.12079
1.12081
1.12083
1.12085
1.12088
1.1209
1.12093
1.12095
1.12098
1.12101
1.12104
1.12108
1.12112
1.12116
1.12121
1.12127
1.12133
1.12139
1.12146
1.12153
1.12162
1.12171
1.12181
1.12191
1.12203
1.12215
1.12228
1.12243
1.12258
1.12274
1.12291
1.12309
1.12328
1.12348
1.1237
1.12392
1.12415
1.12439
1.12465
1.12491
1.12518
1.12546
1.12575
1.12605
1.12636
1.12667
1.12699
1.12732
1.12765
1.12799
1.12834
1.12868
1.12903
1.12939
1.12974
1.13009
1.13045
1.1308
1.13115
1.13149
1.13183
1.13217
1.1325
1.13283
1.13315
1.13346
1.13377
1.13406
1.13435
1.13463
1.1349
1.13515
1.1354
1.13564
1.13586
1.13608
1.13628
1.13648
1.13666
1.13683
1.13699
1.13714
1.13728
1.13742
1.13754
1.13766
1.13777
1.13787
1.13796
1.13805
1.13814
1.13822
1.1383
1.13837
1.13844
1.13851
1.13858
1.13864
1.1387
1.13877
1.13883
1.13889
1.13895
1.13901
1.13907
1.13913
1.13919
1.13925
1.13932
1.13938
1.13944
1.13951
1.13958
1.13964
1.13971
1.13978
1.13985
1.13993
1.14
1.14008
1.14016
1.14024
1.14032
1.1404
1.14048
1.14057
1.14066
1.14075
1.14084
1.14094
1.14103
1.14113
1.14123
1.14134
1.14144
1.14155
1.14166
1.14177
1.14188
1.142
1.14212
1.14224
1.14236
1.14249
1.14261
1.14274
1.14287
1.143
1.14314
1.14327
1.14341
1.14355
1.14369
1.14383
1.14397
1.14411
1.14425
1.1444
1.14454
1.14468
1.14483
1.14497
1.14512
1.14526
1.1454
1.14555
1.14569
1.14583
1.14598
1.14612
1.14626
1.1464
1.14654
1.14668
1.14682
1.14696
1.1471
1.14724
1.14738
1.14752
1.14767
1.14781
1.14795
1.14809
1.14824
1.14838
1.14853
1.14868
1.14883
1.14898
1.14914
1.14929
1.14945
1.14962
1.14978
1.14995
1.15013
1.15031
1.15049
1.15068
1.15087
1.15107
1.15128
1.15149
1.15171
1.15193
1.15216
1.1524
1.15265
1.1529
1.15316
1.15343
1.15371
1.154
1.1543
1.1546
1.15492
1.15525
1.15558
1.15593
1.15628
1.15665
1.15702
1.15741
1.1578
1.1582
1.15861
1.15903
1.15945
1.15988
1.16032
1.16076
1.16121
1.16166
1.16212
1.16257
1.16303
1.16348
1.16393
1.16438
1.16483
1.16527
1.16571
1.16614
1.16656
1.16698
1.16738
1.16778
1.16816
1.16854
1.1689
1.16926
1.1696
1.16993
1.17025
1.17056
1.17085
1.17114
1.17141
1.17168
1.17193
1.17217
1.17241
1.17263
1.17284
1.17304
1.17323
1.17342
1.17359
1.17375
1.17391
1.17406
1.17419
1.17432
1.17444
1.17455
1.17465
1.17475
1.17483
1.1749
1.17497
1.17503
1.17508
1.17512
1.17516
1.17518
1.1752
1.17522
1.17522
1.17522
1.17522
1.17521
1.17519
1.17517
1.17515
1.17513
1.1751
1.17507
1.17504
1.17502
1.17499
1.17496
1.17494
1.17493
1.17491
1.17491
1.17491
1.17492
1.17493
1.17496
1.175
1.17506
1.17513
1.17521
1.17531
1.17543
1.17557
1.17573
1.17591
1.17612
1.17635
1.1766
1.17688
1.1772
1.17754
1.17791
1.17831
1.17875
1.17922
1.17972
1.18026
1.18084
1.18145
1.18211
1.1828
1.18354
1.18432
1.18515
1.18602
1.18694
1.18792
1.18895
1.19004
1.19119
1.19242
1.19372
1.19511
1.1966
1.1982
1.19993
1.20181
1.20386
1.2061
1.20855
1.21121
1.21404
1.21694
1.21969
1.2218
1.22291
1.22267
1.1129
1.11243
1.11243
1.11281
1.11341
1.11413
1.11487
1.11556
1.11619
1.11675
1.11724
1.11767
1.11804
1.11836
1.11864
1.11888
1.11909
1.11928
1.11944
1.11959
1.11971
1.11983
1.11993
1.12002
1.1201
1.12017
1.12023
1.12029
1.12034
1.12039
1.12044
1.12048
1.12051
1.12055
1.12058
1.12061
1.12063
1.12066
1.12068
1.12071
1.12073
1.12075
1.12078
1.1208
1.12083
1.12085
1.12088
1.12091
1.12094
1.12098
1.12101
1.12105
1.1211
1.12115
1.1212
1.12126
1.12132
1.1214
1.12147
1.12156
1.12165
1.12175
1.12185
1.12197
1.12209
1.12223
1.12237
1.12252
1.12269
1.12286
1.12304
1.12324
1.12344
1.12365
1.12387
1.12411
1.12435
1.12461
1.12487
1.12514
1.12543
1.12572
1.12602
1.12633
1.12664
1.12697
1.1273
1.12764
1.12798
1.12832
1.12867
1.12903
1.12938
1.12973
1.13009
1.13045
1.1308
1.13115
1.1315
1.13184
1.13218
1.13251
1.13284
1.13316
1.13347
1.13378
1.13407
1.13436
1.13464
1.13491
1.13517
1.13541
1.13565
1.13587
1.13609
1.13629
1.13648
1.13666
1.13683
1.13699
1.13714
1.13728
1.13741
1.13753
1.13764
1.13775
1.13785
1.13794
1.13803
1.13811
1.13819
1.13826
1.13834
1.13841
1.13847
1.13854
1.1386
1.13866
1.13872
1.13878
1.13884
1.1389
1.13896
1.13902
1.13908
1.13915
1.13921
1.13927
1.13933
1.1394
1.13946
1.13953
1.1396
1.13967
1.13974
1.13981
1.13988
1.13996
1.14003
1.14011
1.14019
1.14028
1.14036
1.14044
1.14053
1.14062
1.14071
1.14081
1.1409
1.141
1.1411
1.1412
1.1413
1.14141
1.14152
1.14163
1.14174
1.14186
1.14197
1.14209
1.14221
1.14234
1.14246
1.14259
1.14272
1.14285
1.14298
1.14312
1.14325
1.14339
1.14353
1.14367
1.14381
1.14395
1.14409
1.14423
1.14438
1.14452
1.14466
1.14481
1.14495
1.1451
1.14524
1.14538
1.14553
1.14567
1.14581
1.14595
1.1461
1.14624
1.14638
1.14652
1.14666
1.1468
1.14694
1.14708
1.14722
1.14736
1.1475
1.14764
1.14778
1.14792
1.14806
1.1482
1.14835
1.14849
1.14864
1.14879
1.14894
1.1491
1.14925
1.14941
1.14958
1.14974
1.14991
1.15009
1.15026
1.15045
1.15063
1.15083
1.15102
1.15123
1.15144
1.15165
1.15188
1.15211
1.15234
1.15259
1.15284
1.1531
1.15337
1.15365
1.15394
1.15424
1.15455
1.15486
1.15519
1.15553
1.15587
1.15623
1.1566
1.15697
1.15736
1.15775
1.15816
1.15857
1.15899
1.15942
1.15985
1.16029
1.16074
1.16119
1.16164
1.1621
1.16256
1.16302
1.16347
1.16393
1.16438
1.16483
1.16528
1.16572
1.16615
1.16657
1.16699
1.1674
1.16779
1.16818
1.16855
1.16892
1.16927
1.16961
1.16994
1.17026
1.17057
1.17086
1.17115
1.17142
1.17168
1.17193
1.17217
1.1724
1.17262
1.17284
1.17304
1.17323
1.17341
1.17358
1.17375
1.1739
1.17405
1.17418
1.17431
1.17443
1.17454
1.17464
1.17473
1.17481
1.17489
1.17496
1.17501
1.17506
1.1751
1.17514
1.17516
1.17518
1.17519
1.1752
1.1752
1.17519
1.17518
1.17516
1.17514
1.17512
1.17509
1.17506
1.17503
1.175
1.17497
1.17495
1.17492
1.1749
1.17488
1.17486
1.17485
1.17485
1.17486
1.17488
1.1749
1.17494
1.175
1.17506
1.17514
1.17524
1.17536
1.1755
1.17566
1.17584
1.17604
1.17627
1.17652
1.1768
1.17711
1.17745
1.17782
1.17823
1.17866
1.17913
1.17963
1.18017
1.18075
1.18136
1.18201
1.1827
1.18344
1.18421
1.18503
1.1859
1.18681
1.18777
1.18879
1.18986
1.19099
1.19219
1.19345
1.1948
1.19623
1.19775
1.19939
1.20114
1.20302
1.20504
1.20718
1.20942
1.2117
1.21388
1.21578
1.21714
1.21768
1.21748
1.11422
1.1138
1.11372
1.11389
1.11426
1.11475
1.11528
1.11582
1.11633
1.1168
1.11723
1.11761
1.11795
1.11825
1.11852
1.11876
1.11896
1.11915
1.11931
1.11946
1.11959
1.1197
1.1198
1.1199
1.11998
1.12006
1.12012
1.12018
1.12024
1.12029
1.12034
1.12038
1.12042
1.12045
1.12049
1.12052
1.12055
1.12057
1.1206
1.12062
1.12065
1.12067
1.1207
1.12072
1.12075
1.12078
1.1208
1.12083
1.12087
1.1209
1.12094
1.12098
1.12103
1.12108
1.12113
1.12119
1.12125
1.12133
1.1214
1.12149
1.12158
1.12168
1.12179
1.12191
1.12203
1.12217
1.12231
1.12246
1.12263
1.1228
1.12298
1.12318
1.12338
1.1236
1.12382
1.12406
1.12431
1.12456
1.12483
1.1251
1.12539
1.12568
1.12598
1.12629
1.12661
1.12694
1.12727
1.12761
1.12795
1.1283
1.12866
1.12901
1.12937
1.12973
1.13009
1.13044
1.1308
1.13115
1.1315
1.13185
1.13219
1.13252
1.13285
1.13317
1.13349
1.13379
1.13409
1.13438
1.13465
1.13492
1.13518
1.13543
1.13566
1.13589
1.1361
1.1363
1.13649
1.13667
1.13683
1.13699
1.13713
1.13727
1.1374
1.13752
1.13763
1.13773
1.13783
1.13792
1.138
1.13808
1.13816
1.13823
1.1383
1.13837
1.13843
1.1385
1.13856
1.13862
1.13868
1.13874
1.1388
1.13886
1.13891
1.13897
1.13903
1.1391
1.13916
1.13922
1.13928
1.13935
1.13941
1.13948
1.13955
1.13962
1.13969
1.13976
1.13983
1.13991
1.13999
1.14007
1.14015
1.14023
1.14031
1.1404
1.14049
1.14058
1.14067
1.14077
1.14086
1.14096
1.14106
1.14116
1.14127
1.14138
1.14149
1.1416
1.14171
1.14183
1.14194
1.14207
1.14219
1.14231
1.14244
1.14257
1.1427
1.14283
1.14296
1.1431
1.14323
1.14337
1.14351
1.14365
1.14379
1.14393
1.14407
1.14421
1.14436
1.1445
1.14464
1.14479
1.14493
1.14508
1.14522
1.14536
1.14551
1.14565
1.14579
1.14593
1.14607
1.14621
1.14635
1.14649
1.14663
1.14677
1.14691
1.14705
1.14719
1.14733
1.14747
1.14761
1.14774
1.14788
1.14803
1.14817
1.14831
1.14846
1.1486
1.14875
1.1489
1.14905
1.14921
1.14937
1.14953
1.14969
1.14986
1.15003
1.15021
1.15039
1.15058
1.15077
1.15096
1.15117
1.15138
1.15159
1.15181
1.15204
1.15228
1.15252
1.15278
1.15304
1.15331
1.15359
1.15387
1.15417
1.15448
1.15479
1.15512
1.15546
1.15581
1.15616
1.15653
1.15691
1.1573
1.15769
1.1581
1.15851
1.15894
1.15937
1.15981
1.16025
1.1607
1.16115
1.16161
1.16207
1.16254
1.163
1.16346
1.16392
1.16438
1.16483
1.16528
1.16572
1.16616
1.16658
1.167
1.16741
1.16781
1.16819
1.16857
1.16893
1.16928
1.16963
1.16995
1.17027
1.17058
1.17087
1.17115
1.17142
1.17169
1.17193
1.17217
1.1724
1.17262
1.17283
1.17303
1.17322
1.1734
1.17357
1.17374
1.17389
1.17403
1.17417
1.1743
1.17442
1.17453
1.17463
1.17472
1.1748
1.17488
1.17494
1.175
1.17505
1.17509
1.17512
1.17514
1.17516
1.17517
1.17518
1.17517
1.17516
1.17515
1.17513
1.17511
1.17508
1.17506
1.17502
1.17499
1.17496
1.17493
1.1749
1.17487
1.17484
1.17482
1.1748
1.17479
1.17479
1.1748
1.17481
1.17483
1.17487
1.17492
1.17499
1.17507
1.17516
1.17528
1.17541
1.17557
1.17575
1.17595
1.17617
1.17643
1.17671
1.17701
1.17735
1.17772
1.17812
1.17855
1.17901
1.17952
1.18005
1.18062
1.18123
1.18188
1.18257
1.1833
1.18406
1.18487
1.18573
1.18663
1.18757
1.18857
1.18962
1.19072
1.19188
1.1931
1.19439
1.19575
1.19719
1.19872
1.20033
1.20204
1.20382
1.20567
1.20753
1.20934
1.21099
1.21231
1.2132
1.2135
1.21321
1.11519
1.11484
1.11471
1.11478
1.115
1.11532
1.11571
1.11612
1.11652
1.11692
1.11728
1.11762
1.11792
1.1182
1.11845
1.11867
1.11887
1.11905
1.1192
1.11935
1.11948
1.11959
1.1197
1.11979
1.11987
1.11995
1.12002
1.12008
1.12014
1.12019
1.12024
1.12029
1.12033
1.12036
1.1204
1.12043
1.12046
1.12049
1.12052
1.12054
1.12057
1.12059
1.12062
1.12065
1.12067
1.1207
1.12073
1.12076
1.12079
1.12083
1.12086
1.12091
1.12095
1.121
1.12105
1.12112
1.12118
1.12125
1.12133
1.12141
1.12151
1.12161
1.12172
1.12183
1.12196
1.12209
1.12224
1.12239
1.12256
1.12273
1.12292
1.12311
1.12332
1.12354
1.12376
1.124
1.12425
1.1245
1.12477
1.12505
1.12534
1.12563
1.12594
1.12625
1.12657
1.1269
1.12723
1.12758
1.12792
1.12828
1.12863
1.12899
1.12935
1.12971
1.13007
1.13043
1.13079
1.13115
1.1315
1.13185
1.13219
1.13253
1.13286
1.13318
1.13349
1.1338
1.1341
1.13439
1.13467
1.13494
1.13519
1.13544
1.13567
1.1359
1.13611
1.13631
1.1365
1.13667
1.13684
1.13699
1.13713
1.13727
1.13739
1.13751
1.13761
1.13771
1.1378
1.13789
1.13797
1.13805
1.13813
1.1382
1.13826
1.13833
1.13839
1.13845
1.13851
1.13857
1.13863
1.13869
1.13875
1.1388
1.13886
1.13892
1.13898
1.13904
1.1391
1.13916
1.13923
1.13929
1.13936
1.13942
1.13949
1.13956
1.13963
1.13971
1.13978
1.13986
1.13993
1.14001
1.1401
1.14018
1.14026
1.14035
1.14044
1.14053
1.14062
1.14072
1.14082
1.14092
1.14102
1.14112
1.14123
1.14134
1.14145
1.14156
1.14168
1.14179
1.14191
1.14203
1.14216
1.14228
1.14241
1.14254
1.14267
1.1428
1.14293
1.14307
1.14321
1.14334
1.14348
1.14362
1.14376
1.14391
1.14405
1.14419
1.14433
1.14448
1.14462
1.14477
1.14491
1.14505
1.1452
1.14534
1.14548
1.14562
1.14576
1.14591
1.14605
1.14619
1.14633
1.14646
1.1466
1.14674
1.14688
1.14702
1.14715
1.14729
1.14743
1.14757
1.14771
1.14785
1.14799
1.14813
1.14827
1.14841
1.14856
1.1487
1.14885
1.149
1.14916
1.14931
1.14947
1.14964
1.1498
1.14997
1.15015
1.15033
1.15051
1.1507
1.1509
1.1511
1.1513
1.15152
1.15174
1.15197
1.1522
1.15244
1.1527
1.15296
1.15322
1.1535
1.15379
1.15409
1.15439
1.15471
1.15504
1.15538
1.15572
1.15608
1.15645
1.15683
1.15722
1.15762
1.15803
1.15844
1.15887
1.1593
1.15975
1.16019
1.16065
1.16111
1.16157
1.16204
1.1625
1.16297
1.16344
1.1639
1.16437
1.16482
1.16528
1.16572
1.16616
1.16659
1.16701
1.16742
1.16782
1.16821
1.16858
1.16895
1.1693
1.16964
1.16997
1.17028
1.17059
1.17088
1.17116
1.17143
1.17169
1.17194
1.17218
1.1724
1.17262
1.17283
1.17303
1.17322
1.1734
1.17357
1.17373
1.17388
1.17403
1.17416
1.17429
1.17441
1.17451
1.17462
1.17471
1.17479
1.17486
1.17493
1.17498
1.17503
1.17507
1.1751
1.17513
1.17514
1.17515
1.17515
1.17515
1.17514
1.17512
1.1751
1.17508
1.17505
1.17502
1.17498
1.17495
1.17491
1.17488
1.17485
1.17482
1.17479
1.17476
1.17474
1.17473
1.17472
1.17472
1.17474
1.17476
1.17479
1.17484
1.1749
1.17498
1.17507
1.17518
1.17531
1.17547
1.17564
1.17584
1.17606
1.17631
1.17658
1.17689
1.17722
1.17759
1.17798
1.17841
1.17887
1.17937
1.1799
1.18047
1.18107
1.18171
1.18239
1.18311
1.18387
1.18467
1.18551
1.18639
1.18732
1.18829
1.18931
1.19038
1.19149
1.19267
1.1939
1.19518
1.19653
1.19795
1.19942
1.20095
1.20251
1.20409
1.20563
1.20706
1.20831
1.20927
1.20985
1.21001
1.20969
1.11593
1.11563
1.11549
1.1155
1.11562
1.11584
1.11612
1.11642
1.11675
1.11706
1.11737
1.11766
1.11793
1.11818
1.1184
1.11861
1.1188
1.11897
1.11912
1.11926
1.11938
1.1195
1.1196
1.11969
1.11978
1.11985
1.11992
1.11999
1.12005
1.1201
1.12015
1.12019
1.12023
1.12027
1.12031
1.12034
1.12037
1.1204
1.12043
1.12046
1.12048
1.12051
1.12054
1.12056
1.12059
1.12062
1.12065
1.12068
1.12071
1.12075
1.12078
1.12083
1.12087
1.12092
1.12097
1.12104
1.1211
1.12117
1.12125
1.12134
1.12143
1.12153
1.12164
1.12176
1.12188
1.12202
1.12216
1.12232
1.12248
1.12266
1.12285
1.12304
1.12325
1.12347
1.1237
1.12394
1.12418
1.12444
1.12471
1.12499
1.12528
1.12558
1.12588
1.1262
1.12652
1.12685
1.12719
1.12754
1.12789
1.12824
1.1286
1.12896
1.12933
1.12969
1.13006
1.13042
1.13078
1.13114
1.1315
1.13185
1.13219
1.13253
1.13286
1.13319
1.1335
1.13381
1.13411
1.1344
1.13468
1.13495
1.13521
1.13546
1.13569
1.13591
1.13612
1.13632
1.13651
1.13668
1.13684
1.13699
1.13713
1.13726
1.13738
1.13749
1.1376
1.13769
1.13778
1.13787
1.13795
1.13802
1.13809
1.13816
1.13822
1.13829
1.13835
1.13841
1.13846
1.13852
1.13858
1.13863
1.13869
1.13875
1.13881
1.13886
1.13892
1.13898
1.13904
1.13911
1.13917
1.13923
1.1393
1.13937
1.13943
1.1395
1.13958
1.13965
1.13972
1.1398
1.13988
1.13996
1.14004
1.14013
1.14021
1.1403
1.14039
1.14048
1.14058
1.14067
1.14077
1.14087
1.14097
1.14108
1.14119
1.1413
1.14141
1.14152
1.14164
1.14176
1.14188
1.142