# vtk DataFile Version 2.0
LBE mesh
ASCII
DATASET STRUCTURED_POINTS
DIMENSIONS 400 100 1
ASPECT_RATIO 1 1 1
ORIGIN 0 0 0
POINT_DATA 40000
SCALARS rho double 1
LOOKUP_TABLE default
0.934727
0.962853
0.971895
0.975738
0.978102
0.979663
0.980704
0.981463
0.982078
0.982641
0.983189
0.983759
0.98436
0.985011
0.985706
0.986454
0.987241
0.988068
0.988921
0.989795
0.990673
0.991551
0.992412
0.993253
0.994058
0.994826
0.995543
0.996213
0.996822
0.997378
0.997871
0.998311
0.998689
0.999019
0.999293
0.999526
0.999712
0.999866
0.99998
1.00007
1.00013
1.00017
1.00018
1.00018
1.00016
1.00013
1.00008
1.00002
0.999948
0.999871
0.999783
0.999696
0.999604
0.999519
0.999435
0.999363
0.999301
0.999254
0.999223
0.999211
0.999217
0.999244
0.99929
0.999355
0.999436
0.999535
0.999645
0.999768
0.999899
1.00004
1.00018
1.00032
1.00046
1.00061
1.00075
1.00089
1.00102
1.00115
1.00128
1.00141
1.00154
1.00167
1.0018
1.00192
1.00205
1.00219
1.00232
1.00246
1.0026
1.00274
1.00289
1.00304
1.0032
1.00335
1.00352
1.00368
1.00385
1.00403
1.0042
1.00439
1.00458
1.00477
1.00498
1.00518
1.0054
1.00562
1.00585
1.00608
1.00632
1.00657
1.00681
1.00706
1.0073
1.00755
1.00778
1.00801
1.00823
1.00843
1.00862
1.0088
1.00896
1.0091
1.00922
1.00932
1.00941
1.00948
1.00954
1.00958
1.00961
1.00963
1.00964
1.00965
1.00965
1.00965
1.00965
1.00965
1.00965
1.00967
1.00969
1.00973
1.00977
1.00984
1.00992
1.01001
1.01012
1.01025
1.01039
1.01055
1.01072
1.0109
1.01108
1.01126
1.01145
1.01163
1.01181
1.01198
1.01214
1.01229
1.01243
1.01256
1.01268
1.01278
1.01288
1.01296
1.01304
1.0131
1.01316
1.01321
1.01326
1.01329
1.01331
1.01333
1.01333
1.01331
1.01328
1.01322
1.01315
1.01304
1.01291
1.01274
1.01254
1.01231
1.01205
1.01176
1.01144
1.0111
1.01075
1.01038
1.01002
1.00965
1.0093
1.00897
1.00866
1.00837
1.00812
1.00789
1.0077
1.00754
1.0074
1.00729
1.0072
1.00714
1.00709
1.00706
1.00704
1.00704
1.00706
1.00709
1.00714
1.00722
1.00732
1.00746
1.00763
1.00784
1.00809
1.00839
1.00874
1.00913
1.00957
1.01005
1.01057
1.01113
1.01173
1.01234
1.01298
1.01362
1.01426
1.0149
1.01552
1.01611
1.01668
1.01721
1.0177
1.01815
1.01856
1.01892
1.01924
1.01951
1.01975
1.01994
1.02009
1.02021
1.0203
1.02035
1.02038
1.02038
1.02035
1.02031
1.02024
1.02016
1.02006
1.01995
1.01983
1.0197
1.01957
1.01944
1.01931
1.01918
1.01905
1.01893
1.01882
1.01871
1.01861
1.01852
1.01843
1.01835
1.01827
1.0182
1.01814
1.01809
1.01803
1.01799
1.01794
1.01791
1.01787
1.01784
1.01782
1.01779
1.01778
1.01777
1.01776
1.01776
1.01778
1.0178
1.01784
1.0179
1.01797
1.01808
1.0182
1.01836
1.01855
1.01878
1.01903
1.01932
1.01964
1.01999
1.02037
1.02075
1.02115
1.02155
1.02195
1.02233
1.02269
1.02303
1.02334
1.02362
1.02387
1.02408
1.02427
1.02442
1.02455
1.02466
1.02476
1.02485
1.02493
1.02501
1.02508
1.02517
1.02526
1.02536
1.02547
1.02559
1.02572
1.02588
1.02604
1.02623
1.02643
1.02665
1.02689
1.02715
1.02742
1.02772
1.02804
1.02837
1.02872
1.02909
1.02947
1.02986
1.03027
1.03068
1.0311
1.03153
1.03196
1.03238
1.03281
1.03324
1.03366
1.03407
1.03447
1.03487
1.03525
1.03562
1.03598
1.03632
1.03664
1.03694
1.03723
1.03748
1.03772
1.03793
1.03812
1.03829
1.03843
1.03855
1.03865
1.03874
1.0388
1.03886
1.0389
1.03893
1.03896
1.03898
1.039
1.03902
1.03904
1.03907
1.0391
1.03914
1.0392
1.03927
1.03937
1.0395
1.03966
1.03988
1.04017
1.04053
1.04101
1.04161
1.04238
1.04335
1.04458
1.04613
1.04811
1.05061
1.05385
1.05822
1.06459
1.07376
1.08634
1.10984
0.943999
0.95842
0.96787
0.973346
0.97638
0.978278
0.979597
0.980598
0.981402
0.982111
0.982771
0.98343
0.984101
0.984806
0.985541
0.986319
0.987125
0.987966
0.988823
0.989701
0.990575
0.991452
0.992306
0.993144
0.993943
0.99471
0.995424
0.996096
0.996706
0.997268
0.997765
0.998213
0.998597
0.998936
0.999217
0.999459
0.999651
0.999812
0.999931
1.00003
1.00009
1.00013
1.00015
1.00015
1.00013
1.0001
1.00005
0.999993
0.99992
0.999846
0.99976
0.999677
0.999589
0.999509
0.999429
0.999364
0.999305
0.999265
0.999237
0.99923
0.999238
0.999268
0.999314
0.99938
0.99946
0.999556
0.999664
0.999784
0.999911
1.00005
1.00018
1.00032
1.00046
1.0006
1.00074
1.00088
1.00102
1.00115
1.00128
1.00141
1.00154
1.00167
1.0018
1.00193
1.00207
1.0022
1.00234
1.00248
1.00262
1.00277
1.00292
1.00307
1.00323
1.00339
1.00355
1.00371
1.00388
1.00406
1.00424
1.00442
1.00461
1.0048
1.005
1.00521
1.00542
1.00564
1.00587
1.0061
1.00634
1.00658
1.00682
1.00706
1.00731
1.00754
1.00778
1.008
1.00822
1.00842
1.00861
1.00879
1.00894
1.00908
1.00921
1.00931
1.0094
1.00947
1.00953
1.00957
1.00961
1.00963
1.00964
1.00965
1.00965
1.00965
1.00966
1.00966
1.00967
1.00968
1.00971
1.00975
1.00979
1.00986
1.00994
1.01003
1.01014
1.01026
1.0104
1.01056
1.01072
1.01089
1.01107
1.01125
1.01144
1.01162
1.01179
1.01196
1.01212
1.01227
1.01241
1.01254
1.01266
1.01277
1.01286
1.01295
1.01302
1.01309
1.01315
1.0132
1.01324
1.01327
1.0133
1.01331
1.01331
1.01329
1.01326
1.0132
1.01313
1.01302
1.01289
1.01273
1.01253
1.01231
1.01205
1.01177
1.01145
1.01112
1.01077
1.01041
1.01005
1.00969
1.00934
1.00901
1.0087
1.00841
1.00816
1.00793
1.00773
1.00757
1.00743
1.00732
1.00723
1.00716
1.00711
1.00708
1.00707
1.00707
1.00709
1.00713
1.00719
1.00727
1.00738
1.00752
1.00769
1.0079
1.00815
1.00845
1.00879
1.00917
1.0096
1.01008
1.01059
1.01115
1.01173
1.01234
1.01296
1.01359
1.01423
1.01486
1.01548
1.01607
1.01663
1.01717
1.01766
1.01811
1.01852
1.01888
1.0192
1.01948
1.01971
1.01991
1.02006
1.02018
1.02027
1.02032
1.02035
1.02035
1.02032
1.02028
1.02021
1.02013
1.02003
1.01993
1.01981
1.01969
1.01956
1.01943
1.0193
1.01918
1.01905
1.01893
1.01882
1.01872
1.01862
1.01852
1.01843
1.01835
1.01828
1.01821
1.01815
1.01809
1.01804
1.018
1.01795
1.01792
1.01788
1.01785
1.01783
1.0178
1.01779
1.01778
1.01777
1.01778
1.01779
1.01782
1.01786
1.01792
1.01801
1.01811
1.01825
1.01841
1.0186
1.01883
1.01909
1.01938
1.01971
1.02005
1.02042
1.0208
1.0212
1.02159
1.02198
1.02235
1.02271
1.02304
1.02334
1.02361
1.02385
1.02407
1.02425
1.0244
1.02453
1.02465
1.02475
1.02484
1.02492
1.025
1.02509
1.02518
1.02527
1.02537
1.02549
1.02562
1.02576
1.02592
1.02609
1.02628
1.02648
1.02671
1.02695
1.02722
1.0275
1.0278
1.02811
1.02845
1.02879
1.02916
1.02954
1.02993
1.03032
1.03073
1.03114
1.03156
1.03198
1.0324
1.03281
1.03323
1.03364
1.03404
1.03444
1.03482
1.0352
1.03556
1.03591
1.03625
1.03657
1.03687
1.03715
1.0374
1.03764
1.03785
1.03804
1.03821
1.03836
1.03848
1.03859
1.03868
1.03875
1.03881
1.03886
1.03889
1.03892
1.03895
1.03897
1.039
1.03902
1.03905
1.03909
1.03914
1.0392
1.03928
1.03939
1.03953
1.03971
1.03995
1.04025
1.04064
1.04115
1.04179
1.04261
1.04364
1.04495
1.04661
1.04872
1.05142
1.05496
1.05961
1.06576
1.07482
1.09115
1.11763
0.960155
0.963422
0.968557
0.972596
0.975389
0.977383
0.978838
0.979957
0.980873
0.981678
0.982424
0.983152
0.983878
0.984626
0.985394
0.986194
0.987015
0.987864
0.988724
0.989598
0.99047
0.991339
0.992189
0.993021
0.993817
0.994581
0.995296
0.995969
0.996585
0.997152
0.997657
0.998113
0.998508
0.998856
0.999147
0.999398
0.999598
0.999766
0.999891
0.999991
1.00006
1.0001
1.00012
1.00012
1.0001
1.00007
1.00002
0.999969
0.999899
0.999828
0.999746
0.999668
0.999586
0.999511
0.999439
0.99938
0.999328
0.999293
0.999271
0.999267
0.999278
0.999309
0.999354
0.999418
0.999495
0.999588
0.99969
0.999804
0.999925
1.00005
1.00019
1.00032
1.00046
1.0006
1.00073
1.00087
1.001
1.00114
1.00127
1.00141
1.00154
1.00167
1.00181
1.00195
1.00208
1.00222
1.00237
1.00251
1.00266
1.00281
1.00296
1.00311
1.00327
1.00343
1.0036
1.00377
1.00394
1.00411
1.00429
1.00448
1.00466
1.00486
1.00506
1.00526
1.00547
1.00569
1.00591
1.00614
1.00637
1.00661
1.00685
1.00709
1.00733
1.00756
1.00779
1.00801
1.00823
1.00843
1.00861
1.00879
1.00894
1.00908
1.0092
1.0093
1.00939
1.00946
1.00952
1.00956
1.0096
1.00962
1.00964
1.00965
1.00965
1.00966
1.00966
1.00967
1.00968
1.0097
1.00973
1.00977
1.00982
1.00988
1.00996
1.01005
1.01016
1.01028
1.01042
1.01057
1.01073
1.0109
1.01107
1.01125
1.01143
1.01161
1.01178
1.01195
1.01211
1.01226
1.0124
1.01253
1.01264
1.01275
1.01285
1.01293
1.01301
1.01308
1.01313
1.01318
1.01323
1.01326
1.01328
1.01329
1.01329
1.01327
1.01324
1.01318
1.0131
1.013
1.01287
1.01271
1.01252
1.0123
1.01205
1.01177
1.01146
1.01113
1.01079
1.01044
1.01008
1.00972
1.00937
1.00904
1.00873
1.00844
1.00818
1.00795
1.00775
1.00759
1.00744
1.00733
1.00724
1.00718
1.00713
1.0071
1.00709
1.0071
1.00713
1.00717
1.00723
1.00732
1.00743
1.00757
1.00774
1.00795
1.0082
1.0085
1.00883
1.00921
1.00963
1.0101
1.01061
1.01115
1.01172
1.01232
1.01293
1.01356
1.01419
1.01482
1.01543
1.01602
1.01659
1.01712
1.01761
1.01807
1.01848
1.01884
1.01916
1.01944
1.01967
1.01987
1.02002
1.02014
1.02023
1.02028
1.02031
1.02031
1.02029
1.02024
1.02018
1.0201
1.02001
1.0199
1.01979
1.01967
1.01955
1.01942
1.0193
1.01918
1.01906
1.01894
1.01883
1.01872
1.01863
1.01853
1.01845
1.01837
1.01829
1.01822
1.01816
1.01811
1.01805
1.01801
1.01797
1.01793
1.01789
1.01786
1.01784
1.01782
1.0178
1.01779
1.01779
1.0178
1.01782
1.01785
1.0179
1.01796
1.01805
1.01816
1.0183
1.01847
1.01867
1.0189
1.01916
1.01945
1.01977
1.02012
1.02048
1.02086
1.02125
1.02163
1.02201
1.02238
1.02272
1.02304
1.02334
1.02361
1.02384
1.02405
1.02423
1.02438
1.02452
1.02464
1.02474
1.02483
1.02492
1.02501
1.0251
1.02519
1.0253
1.02541
1.02553
1.02567
1.02582
1.02598
1.02616
1.02636
1.02657
1.02681
1.02706
1.02732
1.02761
1.02791
1.02823
1.02856
1.0289
1.02926
1.02963
1.03001
1.0304
1.03079
1.03119
1.03159
1.03199
1.03239
1.03279
1.03319
1.03359
1.03398
1.03436
1.03473
1.0351
1.03545
1.03579
1.03612
1.03643
1.03673
1.037
1.03726
1.0375
1.03771
1.03791
1.03808
1.03823
1.03836
1.03847
1.03856
1.03864
1.0387
1.03876
1.0388
1.03883
1.03887
1.03889
1.03892
1.03895
1.03899
1.03903
1.03908
1.03914
1.03923
1.03934
1.03948
1.03967
1.03991
1.04022
1.04062
1.04113
1.04178
1.0426
1.04365
1.04497
1.04664
1.04875
1.05142
1.05482
1.05927
1.06522
1.07277
1.08103
1.08938
0.968994
0.968688
0.97075
0.973226
0.975409
0.977134
0.978494
0.979608
0.980558
0.981408
0.9822
0.982968
0.983731
0.984506
0.985295
0.986107
0.986935
0.987784
0.988641
0.989509
0.990373
0.991233
0.992076
0.992901
0.993693
0.994456
0.995173
0.995849
0.996471
0.997046
0.997561
0.998027
0.998433
0.998792
0.999094
0.999354
0.999563
0.999738
0.999869
0.999973
1.00004
1.00009
1.00011
1.00011
1.00009
1.00006
1.00002
0.999964
0.999898
0.99983
0.999754
0.999681
0.999606
0.999538
0.999474
0.999422
0.999378
0.999349
0.999331
0.999331
0.999344
0.999374
0.999418
0.999477
0.999549
0.999635
0.99973
0.999835
0.999948
1.00007
1.00019
1.00032
1.00045
1.00059
1.00072
1.00086
1.00099
1.00113
1.00127
1.0014
1.00154
1.00168
1.00182
1.00197
1.00211
1.00226
1.0024
1.00255
1.00271
1.00286
1.00302
1.00318
1.00334
1.00351
1.00367
1.00384
1.00402
1.00419
1.00437
1.00456
1.00474
1.00494
1.00513
1.00534
1.00555
1.00576
1.00598
1.00621
1.00644
1.00667
1.00691
1.00714
1.00738
1.00761
1.00783
1.00805
1.00826
1.00845
1.00864
1.0088
1.00896
1.00909
1.00921
1.00931
1.00939
1.00946
1.00952
1.00956
1.0096
1.00962
1.00964
1.00965
1.00966
1.00967
1.00968
1.00969
1.00971
1.00973
1.00976
1.0098
1.00986
1.00992
1.01
1.01009
1.0102
1.01031
1.01045
1.01059
1.01075
1.01091
1.01108
1.01125
1.01143
1.0116
1.01177
1.01194
1.0121
1.01225
1.01239
1.01252
1.01264
1.01274
1.01284
1.01293
1.013
1.01307
1.01313
1.01318
1.01322
1.01325
1.01327
1.01328
1.01327
1.01325
1.01322
1.01316
1.01308
1.01298
1.01285
1.0127
1.01251
1.01229
1.01204
1.01177
1.01147
1.01115
1.01081
1.01046
1.0101
1.00975
1.0094
1.00907
1.00876
1.00847
1.00821
1.00798
1.00777
1.0076
1.00746
1.00735
1.00726
1.00719
1.00715
1.00713
1.00712
1.00713
1.00716
1.00721
1.00728
1.00737
1.00749
1.00763
1.00781
1.00802
1.00826
1.00855
1.00888
1.00925
1.00967
1.01012
1.01062
1.01115
1.01171
1.0123
1.01291
1.01353
1.01416
1.01478
1.01539
1.01598
1.01654
1.01707
1.01757
1.01802
1.01844
1.0188
1.01912
1.0194
1.01964
1.01983
1.01999
1.02011
1.02019
1.02025
1.02027
1.02028
1.02025
1.02021
1.02015
1.02008
1.01999
1.01989
1.01978
1.01967
1.01955
1.01943
1.01931
1.01919
1.01907
1.01896
1.01885
1.01875
1.01865
1.01856
1.01847
1.01839
1.01832
1.01825
1.01819
1.01813
1.01808
1.01803
1.01799
1.01795
1.01792
1.01789
1.01786
1.01784
1.01783
1.01782
1.01782
1.01783
1.01786
1.01789
1.01794
1.01801
1.01811
1.01823
1.01837
1.01854
1.01875
1.01898
1.01925
1.01954
1.01986
1.0202
1.02056
1.02093
1.02131
1.02169
1.02206
1.02241
1.02275
1.02306
1.02335
1.02361
1.02384
1.02405
1.02423
1.02438
1.02452
1.02464
1.02475
1.02485
1.02494
1.02504
1.02514
1.02524
1.02535
1.02547
1.0256
1.02575
1.02591
1.02608
1.02627
1.02648
1.02671
1.02695
1.0272
1.02747
1.02776
1.02806
1.02838
1.02871
1.02905
1.0294
1.02976
1.03012
1.03049
1.03087
1.03125
1.03163
1.03201
1.03239
1.03277
1.03314
1.03352
1.03389
1.03425
1.03461
1.03496
1.0353
1.03563
1.03595
1.03625
1.03654
1.03682
1.03707
1.03731
1.03753
1.03772
1.0379
1.03805
1.03819
1.0383
1.0384
1.03849
1.03856
1.03862
1.03866
1.0387
1.03874
1.03877
1.03881
1.03884
1.03888
1.03892
1.03897
1.03904
1.03912
1.03923
1.03937
1.03956
1.03979
1.0401
1.04049
1.04098
1.04162
1.04242
1.04344
1.04471
1.04632
1.04832
1.05081
1.05391
1.0577
1.06225
1.06742
1.07163
1.07171
0.972864
0.972398
0.973235
0.974571
0.976029
0.977368
0.978542
0.979568
0.980481
0.981323
0.982122
0.982902
0.983677
0.984461
0.985255
0.986067
0.986892
0.987732
0.988579
0.989433
0.990285
0.991133
0.991965
0.992781
0.993568
0.994327
0.995046
0.995726
0.996355
0.996938
0.997465
0.997942
0.998361
0.998731
0.999045
0.999314
0.999534
0.999715
0.999853
0.999961
1.00003
1.00008
1.0001
1.00011
1.00009
1.00006
1.00001
0.999963
0.999901
0.999836
0.999767
0.9997
0.999633
0.999573
0.999517
0.999473
0.999436
0.999413
0.9994
0.999402
0.999416
0.999444
0.999485
0.999539
0.999604
0.99968
0.999766
0.999862
0.999965
1.00007
1.00019
1.00031
1.00044
1.00057
1.0007
1.00083
1.00097
1.00111
1.00125
1.00139
1.00153
1.00168
1.00183
1.00198
1.00213
1.00228
1.00244
1.0026
1.00276
1.00292
1.00308
1.00325
1.00341
1.00358
1.00375
1.00392
1.0041
1.00428
1.00446
1.00464
1.00483
1.00502
1.00522
1.00542
1.00563
1.00584
1.00606
1.00629
1.00651
1.00674
1.00697
1.00721
1.00744
1.00766
1.00788
1.0081
1.0083
1.00849
1.00867
1.00883
1.00897
1.0091
1.00922
1.00931
1.00939
1.00946
1.00951
1.00956
1.00959
1.00961
1.00963
1.00965
1.00966
1.00968
1.00969
1.00971
1.00973
1.00976
1.00979
1.00984
1.00989
1.00996
1.01004
1.01013
1.01023
1.01035
1.01047
1.01061
1.01076
1.01092
1.01108
1.01125
1.01142
1.01159
1.01176
1.01193
1.01208
1.01223
1.01237
1.0125
1.01262
1.01273
1.01283
1.01291
1.01299
1.01306
1.01311
1.01316
1.0132
1.01323
1.01325
1.01326
1.01325
1.01323
1.01319
1.01313
1.01306
1.01295
1.01283
1.01267
1.01249
1.01227
1.01203
1.01176
1.01146
1.01115
1.01081
1.01047
1.01011
1.00976
1.00942
1.00909
1.00877
1.00848
1.00822
1.00798
1.00778
1.00761
1.00746
1.00735
1.00726
1.0072
1.00716
1.00714
1.00714
1.00716
1.0072
1.00725
1.00733
1.00742
1.00754
1.00769
1.00786
1.00807
1.00831
1.0086
1.00892
1.00928
1.00969
1.01013
1.01062
1.01114
1.0117
1.01228
1.01288
1.01349
1.01411
1.01473
1.01534
1.01592
1.01649
1.01702
1.01752
1.01797
1.01839
1.01875
1.01908
1.01935
1.01959
1.01978
1.01994
1.02006
1.02014
1.0202
1.02023
1.02023
1.02021
1.02017
1.02011
1.02004
1.01996
1.01987
1.01976
1.01966
1.01954
1.01943
1.01931
1.0192
1.01909
1.01898
1.01887
1.01877
1.01867
1.01858
1.01849
1.01841
1.01834
1.01827
1.01821
1.01815
1.0181
1.01805
1.01801
1.01797
1.01794
1.01791
1.01789
1.01787
1.01786
1.01785
1.01785
1.01787
1.0179
1.01794
1.01799
1.01807
1.01817
1.01829
1.01844
1.01862
1.01883
1.01907
1.01934
1.01963
1.01995
1.02029
1.02064
1.02101
1.02137
1.02174
1.0221
1.02245
1.02278
1.02308
1.02336
1.02362
1.02385
1.02405
1.02423
1.02439
1.02453
1.02465
1.02476
1.02487
1.02497
1.02508
1.02518
1.02529
1.02542
1.02555
1.02569
1.02585
1.02602
1.02621
1.02641
1.02663
1.02686
1.02711
1.02737
1.02765
1.02794
1.02824
1.02856
1.02888
1.02921
1.02955
1.02989
1.03024
1.03059
1.03094
1.0313
1.03165
1.03201
1.03236
1.03272
1.03307
1.03342
1.03377
1.03411
1.03445
1.03478
1.03511
1.03542
1.03573
1.03603
1.03631
1.03658
1.03683
1.03707
1.03729
1.03749
1.03766
1.03782
1.03796
1.03809
1.03819
1.03828
1.03836
1.03842
1.03847
1.03852
1.03856
1.0386
1.03863
1.03867
1.03871
1.03875
1.03881
1.03887
1.03895
1.03906
1.03919
1.03937
1.03959
1.03988
1.04025
1.04071
1.04131
1.04207
1.04302
1.04421
1.04569
1.0475
1.04972
1.05236
1.05543
1.05868
1.06165
1.06368
1.06294
0.975218
0.974914
0.975221
0.975954
0.97691
0.977908
0.978868
0.979767
0.98061
0.981414
0.982194
0.982964
0.983733
0.98451
0.985297
0.986098
0.986909
0.987733
0.988562
0.989398
0.990232
0.991062
0.99188
0.992685
0.993465
0.99422
0.994939
0.995621
0.996258
0.99685
0.997388
0.997877
0.998309
0.998691
0.999018
0.999297
0.999527
0.999715
0.99986
0.999972
1.00005
1.0001
1.00012
1.00013
1.00011
1.00008
1.00004
0.999987
0.999929
0.999869
0.999806
0.999745
0.999686
0.999634
0.999587
0.99955
0.99952
0.999502
0.999493
0.999497
0.99951
0.999536
0.999572
0.999619
0.999675
0.999742
0.999817
0.999901
0.999993
1.00009
1.0002
1.00031
1.00043
1.00055
1.00068
1.00081
1.00095
1.00109
1.00124
1.00138
1.00153
1.00169
1.00184
1.002
1.00216
1.00232
1.00249
1.00265
1.00282
1.00299
1.00316
1.00333
1.0035
1.00367
1.00385
1.00402
1.0042
1.00438
1.00457
1.00475
1.00494
1.00513
1.00533
1.00553
1.00574
1.00595
1.00617
1.00639
1.00661
1.00684
1.00707
1.00729
1.00752
1.00774
1.00796
1.00817
1.00836
1.00855
1.00872
1.00887
1.00901
1.00914
1.00924
1.00933
1.00941
1.00947
1.00952
1.00956
1.00959
1.00962
1.00964
1.00966
1.00968
1.00969
1.00971
1.00974
1.00977
1.0098
1.00984
1.00989
1.00995
1.01002
1.0101
1.01019
1.01029
1.0104
1.01052
1.01065
1.0108
1.01095
1.01111
1.01127
1.01143
1.0116
1.01176
1.01193
1.01208
1.01223
1.01237
1.0125
1.01262
1.01273
1.01282
1.01291
1.01299
1.01306
1.01311
1.01316
1.0132
1.01322
1.01324
1.01324
1.01323
1.01321
1.01317
1.01311
1.01303
1.01293
1.0128
1.01265
1.01247
1.01226
1.01202
1.01175
1.01146
1.01115
1.01082
1.01048
1.01013
1.00978
1.00943
1.0091
1.00879
1.0085
1.00823
1.008
1.00779
1.00762
1.00747
1.00736
1.00727
1.00721
1.00717
1.00716
1.00717
1.00719
1.00724
1.0073
1.00738
1.00748
1.00761
1.00776
1.00793
1.00814
1.00838
1.00866
1.00897
1.00932
1.00972
1.01016
1.01063
1.01114
1.01169
1.01226
1.01285
1.01346
1.01407
1.01469
1.01529
1.01588
1.01644
1.01698
1.01747
1.01793
1.01834
1.01871
1.01903
1.01931
1.01955
1.01974
1.0199
1.02002
1.0201
1.02016
1.02019
1.02019
1.02018
1.02014
1.02009
1.02003
1.01995
1.01986
1.01977
1.01966
1.01956
1.01945
1.01934
1.01923
1.01912
1.01901
1.01891
1.01881
1.01871
1.01862
1.01853
1.01845
1.01838
1.01831
1.01825
1.01819
1.01814
1.01809
1.01805
1.01801
1.01798
1.01795
1.01793
1.01791
1.0179
1.0179
1.01791
1.01792
1.01796
1.018
1.01807
1.01815
1.01826
1.01839
1.01854
1.01873
1.01894
1.01918
1.01945
1.01974
1.02006
1.02039
1.02074
1.0211
1.02146
1.02182
1.02217
1.02251
1.02283
1.02312
1.0234
1.02365
1.02388
1.02408
1.02426
1.02442
1.02456
1.02469
1.02481
1.02492
1.02503
1.02515
1.02526
1.02539
1.02552
1.02566
1.02582
1.02599
1.02617
1.02637
1.02659
1.02681
1.02706
1.02731
1.02758
1.02786
1.02816
1.02846
1.02876
1.02908
1.0294
1.02972
1.03004
1.03037
1.0307
1.03103
1.03136
1.03169
1.03202
1.03234
1.03267
1.033
1.03332
1.03364
1.03396
1.03428
1.03459
1.0349
1.03521
1.0355
1.03579
1.03606
1.03633
1.03658
1.03681
1.03703
1.03723
1.03741
1.03757
1.03772
1.03784
1.03795
1.03805
1.03813
1.0382
1.03826
1.03831
1.03835
1.03839
1.03843
1.03847
1.03851
1.03856
1.03861
1.03867
1.03875
1.03885
1.03898
1.03914
1.03935
1.03961
1.03995
1.04039
1.04094
1.04163
1.0425
1.04358
1.04491
1.04651
1.04841
1.05057
1.0529
1.05518
1.05694
1.05775
1.05729
0.976966
0.976695
0.976804
0.977244
0.977884
0.978622
0.979392
0.980162
0.98092
0.981667
0.982408
0.98315
0.983896
0.984652
0.985418
0.986196
0.986983
0.987781
0.988585
0.989395
0.990205
0.991013
0.991812
0.992601
0.993371
0.994119
0.994836
0.99552
0.996162
0.996762
0.997311
0.997811
0.998257
0.998651
0.99899
0.99928
0.999519
0.999715
0.999866
0.999982
1.00006
1.00011
1.00014
1.00014
1.00013
1.0001
1.00006
1.00001
0.999956
0.9999
0.999843
0.999789
0.999738
0.999693
0.999654
0.999623
0.9996
0.999586
0.99958
0.999585
0.999597
0.999619
0.999649
0.999688
0.999736
0.999792
0.999855
0.999928
1.00001
1.0001
1.00019
1.00029
1.00041
1.00052
1.00065
1.00078
1.00092
1.00106
1.00121
1.00136
1.00152
1.00168
1.00184
1.00201
1.00218
1.00235
1.00252
1.00269
1.00287
1.00304
1.00322
1.0034
1.00357
1.00375
1.00393
1.00411
1.00429
1.00448
1.00466
1.00485
1.00504
1.00523
1.00543
1.00563
1.00584
1.00605
1.00627
1.00649
1.00671
1.00693
1.00716
1.00738
1.00761
1.00783
1.00804
1.00824
1.00843
1.00861
1.00877
1.00892
1.00905
1.00917
1.00927
1.00935
1.00942
1.00947
1.00952
1.00956
1.00959
1.00961
1.00964
1.00966
1.00968
1.0097
1.00973
1.00976
1.0098
1.00984
1.00988
1.00994
1.01
1.01007
1.01015
1.01024
1.01033
1.01044
1.01056
1.01069
1.01082
1.01097
1.01112
1.01127
1.01143
1.01159
1.01175
1.01191
1.01206
1.01221
1.01235
1.01248
1.0126
1.01271
1.01281
1.0129
1.01297
1.01304
1.0131
1.01314
1.01318
1.0132
1.01322
1.01322
1.0132
1.01318
1.01314
1.01307
1.01299
1.01289
1.01276
1.01261
1.01243
1.01222
1.01199
1.01172
1.01144
1.01113
1.01081
1.01047
1.01012
1.00978
1.00943
1.0091
1.00879
1.0085
1.00823
1.00799
1.00778
1.00761
1.00746
1.00735
1.00726
1.00721
1.00718
1.00717
1.00718
1.00721
1.00727
1.00734
1.00742
1.00753
1.00766
1.00781
1.00799
1.0082
1.00843
1.0087
1.00901
1.00936
1.00974
1.01017
1.01063
1.01113
1.01167
1.01223
1.01281
1.01341
1.01402
1.01463
1.01523
1.01582
1.01638
1.01691
1.01741
1.01787
1.01828
1.01865
1.01898
1.01926
1.01949
1.01968
1.01984
1.01996
1.02004
1.0201
1.02013
1.02014
1.02013
1.0201
1.02005
1.01999
1.01992
1.01984
1.01976
1.01966
1.01956
1.01946
1.01935
1.01925
1.01914
1.01904
1.01893
1.01884
1.01874
1.01865
1.01857
1.01849
1.01841
1.01834
1.01828
1.01822
1.01817
1.01812
1.01808
1.01804
1.01801
1.01798
1.01796
1.01795
1.01794
1.01794
1.01795
1.01798
1.01801
1.01807
1.01814
1.01823
1.01834
1.01848
1.01864
1.01883
1.01905
1.01929
1.01956
1.01986
1.02017
1.0205
1.02085
1.0212
1.02155
1.0219
1.02224
1.02257
1.02288
1.02317
1.02344
1.02369
1.02391
1.02412
1.0243
1.02446
1.0246
1.02474
1.02486
1.02499
1.02511
1.02523
1.02536
1.02549
1.02563
1.02579
1.02596
1.02614
1.02634
1.02655
1.02678
1.02702
1.02727
1.02753
1.0278
1.02809
1.02838
1.02867
1.02897
1.02927
1.02958
1.02988
1.03019
1.03049
1.0308
1.0311
1.0314
1.0317
1.032
1.0323
1.0326
1.0329
1.0332
1.0335
1.03379
1.03409
1.03438
1.03467
1.03496
1.03524
1.03552
1.03578
1.03604
1.03628
1.03651
1.03673
1.03693
1.03711
1.03727
1.03742
1.03755
1.03767
1.03777
1.03785
1.03793
1.03799
1.03805
1.0381
1.03814
1.03818
1.03822
1.03826
1.03831
1.03836
1.03842
1.0385
1.03859
1.0387
1.03885
1.03904
1.03928
1.03959
1.03998
1.04048
1.04111
1.04189
1.04285
1.04401
1.04539
1.04697
1.04869
1.05044
1.05199
1.05307
1.05336
1.05289
0.978309
0.978044
0.978072
0.97835
0.978803
0.979369
0.979999
0.980662
0.981343
0.982033
0.982731
0.983439
0.984156
0.984883
0.985621
0.986369
0.987127
0.987894
0.988667
0.989446
0.990227
0.991009
0.991786
0.992556
0.993312
0.99405
0.994763
0.995447
0.996093
0.996699
0.997259
0.99777
0.998228
0.998634
0.998986
0.999286
0.999536
0.999739
0.999897
1.00002
1.0001
1.00015
1.00018
1.00019
1.00017
1.00014
1.0001
1.00006
1.00001
0.999958
0.999907
0.99986
0.999816
0.999778
0.999746
0.999721
0.999703
0.999692
0.999689
0.999692
0.999703
0.99972
0.999744
0.999775
0.999812
0.999857
0.999909
0.999969
1.00004
1.00011
1.0002
1.00029
1.0004
1.00051
1.00063
1.00076
1.0009
1.00104
1.00119
1.00135
1.00151
1.00168
1.00185
1.00203
1.0022
1.00238
1.00256
1.00274
1.00292
1.00311
1.00329
1.00347
1.00365
1.00384
1.00402
1.00421
1.00439
1.00458
1.00477
1.00496
1.00515
1.00535
1.00555
1.00575
1.00596
1.00617
1.00638
1.0066
1.00682
1.00705
1.00727
1.0075
1.00772
1.00793
1.00814
1.00834
1.00852
1.00869
1.00885
1.00899
1.00911
1.00922
1.00931
1.00939
1.00945
1.0095
1.00954
1.00957
1.0096
1.00963
1.00965
1.00968
1.0097
1.00973
1.00976
1.0098
1.00984
1.00989
1.00994
1.01
1.01007
1.01014
1.01022
1.01031
1.0104
1.01051
1.01062
1.01074
1.01087
1.011
1.01115
1.01129
1.01145
1.0116
1.01176
1.01191
1.01206
1.01221
1.01235
1.01248
1.0126
1.01271
1.01281
1.0129
1.01297
1.01304
1.0131
1.01314
1.01317
1.0132
1.01321
1.0132
1.01319
1.01316
1.01311
1.01305
1.01296
1.01286
1.01273
1.01258
1.0124
1.01219
1.01196
1.0117
1.01142
1.01112
1.0108
1.01047
1.01013
1.00978
1.00944
1.00911
1.0088
1.0085
1.00823
1.00799
1.00779
1.00761
1.00746
1.00735
1.00727
1.00722
1.00719
1.00719
1.00721
1.00725
1.00731
1.00739
1.00748
1.0076
1.00773
1.00789
1.00807
1.00827
1.00851
1.00877
1.00907
1.00941
1.00978
1.0102
1.01065
1.01114
1.01166
1.01221
1.01279
1.01338
1.01398
1.01459
1.01518
1.01577
1.01633
1.01686
1.01736
1.01782
1.01823
1.0186
1.01893
1.01921
1.01944
1.01964
1.01979
1.01991
1.02
1.02006
1.02009
1.02011
1.0201
1.02007
1.02004
1.01998
1.01992
1.01985
1.01977
1.01968
1.01959
1.01949
1.01939
1.01929
1.01919
1.01908
1.01899
1.01889
1.0188
1.01871
1.01862
1.01854
1.01847
1.0184
1.01833
1.01827
1.01822
1.01817
1.01813
1.01809
1.01806
1.01804
1.01802
1.01801
1.018
1.01801
1.01802
1.01805
1.0181
1.01816
1.01824
1.01833
1.01845
1.0186
1.01877
1.01897
1.01919
1.01944
1.01971
1.02
1.02032
1.02065
1.02098
1.02133
1.02167
1.02202
1.02235
1.02267
1.02298
1.02326
1.02353
1.02377
1.02399
1.02419
1.02438
1.02454
1.02469
1.02483
1.02497
1.0251
1.02522
1.02536
1.0255
1.02564
1.0258
1.02597
1.02615
1.02634
1.02655
1.02678
1.02701
1.02726
1.02752
1.02778
1.02806
1.02834
1.02862
1.02891
1.0292
1.02949
1.02978
1.03006
1.03035
1.03063
1.0309
1.03118
1.03146
1.03173
1.032
1.03227
1.03254
1.03281
1.03309
1.03336
1.03363
1.03391
1.03418
1.03446
1.03473
1.03499
1.03526
1.03551
1.03576
1.03599
1.03622
1.03643
1.03663
1.03681
1.03698
1.03713
1.03726
1.03738
1.03748
1.03757
1.03765
1.03771
1.03777
1.03782
1.03787
1.03792
1.03796
1.038
1.03805
1.0381
1.03816
1.03823
1.03831
1.03842
1.03856
1.03873
1.03895
1.03923
1.03959
1.04003
1.04059
1.04129
1.04213
1.04314
1.04431
1.0456
1.04695
1.04824
1.04929
1.04991
1.04994
1.04936
0.979366
0.979138
0.979138
0.97933
0.979675
0.98013
0.980661
0.981241
0.981854
0.982491
0.983145
0.983813
0.984495
0.985187
0.98589
0.986603
0.987324
0.988053
0.988789
0.989532
0.990279
0.99103
0.99178
0.992527
0.993265
0.99399
0.994696
0.995376
0.996025
0.996636
0.997204
0.997724
0.998194
0.998612
0.998975
0.999286
0.999544
0.999755
0.999919
1.00004
1.00013
1.00019
1.00021
1.00022
1.00021
1.00018
1.00014
1.0001
1.00005
1.00001
0.99996
0.999918
0.999881
0.999849
0.999822
0.999802
0.999788
0.99978
0.999778
0.99978
0.999788
0.9998
0.999817
0.99984
0.999867
0.999901
0.999942
0.99999
1.00005
1.00011
1.00019
1.00027
1.00037
1.00047
1.00059
1.00072
1.00085
1.001
1.00116
1.00132
1.00149
1.00166
1.00184
1.00202
1.0022
1.00239
1.00258
1.00276
1.00295
1.00314
1.00333
1.00352
1.00371
1.00389
1.00408
1.00427
1.00446
1.00465
1.00484
1.00504
1.00523
1.00543
1.00563
1.00584
1.00605
1.00626
1.00648
1.0067
1.00692
1.00715
1.00737
1.00759
1.00781
1.00803
1.00823
1.00842
1.0086
1.00877
1.00892
1.00905
1.00917
1.00927
1.00935
1.00942
1.00947
1.00952
1.00955
1.00958
1.00961
1.00963
1.00965
1.00968
1.00971
1.00975
1.00978
1.00983
1.00988
1.00993
1.00999
1.01005
1.01012
1.0102
1.01027
1.01036
1.01045
1.01055
1.01066
1.01077
1.01089
1.01102
1.01115
1.0113
1.01144
1.01159
1.01174
1.01189
1.01204
1.01219
1.01232
1.01245
1.01258
1.01269
1.01279
1.01288
1.01296
1.01302
1.01308
1.01312
1.01315
1.01317
1.01317
1.01317
1.01315
1.01311
1.01306
1.01299
1.0129
1.0128
1.01267
1.01252
1.01234
1.01214
1.01191
1.01166
1.01138
1.01109
1.01077
1.01044
1.01011
1.00977
1.00943
1.0091
1.00878
1.00849
1.00822
1.00798
1.00777
1.00759
1.00745
1.00733
1.00725
1.00721
1.00718
1.00719
1.00722
1.00727
1.00734
1.00742
1.00753
1.00765
1.00779
1.00795
1.00813
1.00833
1.00857
1.00883
1.00912
1.00945
1.00981
1.01021
1.01065
1.01113
1.01164
1.01218
1.01275
1.01333
1.01392
1.01452
1.01512
1.0157
1.01626
1.01679
1.01729
1.01775
1.01816
1.01853
1.01886
1.01914
1.01938
1.01957
1.01973
1.01985
1.01994
1.02
1.02004
1.02005
1.02005
1.02003
1.02
1.01995
1.0199
1.01983
1.01976
1.01968
1.01959
1.0195
1.01941
1.01931
1.01921
1.01912
1.01902
1.01893
1.01883
1.01875
1.01866
1.01858
1.01851
1.01844
1.01837
1.01831
1.01826
1.01821
1.01817
1.01813
1.0181
1.01808
1.01806
1.01806
1.01806
1.01807
1.01809
1.01813
1.01818
1.01824
1.01833
1.01844
1.01857
1.01872
1.0189
1.0191
1.01933
1.01959
1.01986
1.02016
1.02047
1.02079
1.02113
1.02147
1.02181
1.02214
1.02247
1.02279
1.02308
1.02336
1.02363
1.02387
1.02409
1.02429
1.02447
1.02464
1.0248
1.02494
1.02508
1.02522
1.02536
1.0255
1.02565
1.02581
1.02598
1.02616
1.02635
1.02656
1.02678
1.02701
1.02726
1.02751
1.02777
1.02804
1.02831
1.02859
1.02886
1.02914
1.02941
1.02968
1.02995
1.03022
1.03048
1.03073
1.03099
1.03124
1.03149
1.03173
1.03198
1.03222
1.03247
1.03271
1.03296
1.03321
1.03346
1.03371
1.03397
1.03422
1.03448
1.03473
1.03498
1.03522
1.03546
1.03569
1.0359
1.03611
1.0363
1.03648
1.03665
1.03679
1.03693
1.03705
1.03715
1.03724
1.03732
1.03739
1.03745
1.03751
1.03756
1.0376
1.03765
1.03769
1.03774
1.03779
1.03784
1.03791
1.03799
1.03809
1.03821
1.03837
1.03857
1.03882
1.03914
1.03954
1.04004
1.04065
1.04139
1.04225
1.04322
1.04426
1.0453
1.04624
1.04694
1.04727
1.04715
1.04655
0.980239
0.980045
0.98003
0.980178
0.98046
0.980847
0.981312
0.981834
0.982398
0.982992
0.983609
0.984243
0.984891
0.985549
0.986217
0.986892
0.987576
0.988266
0.988963
0.989668
0.990379
0.991096
0.991816
0.992538
0.993256
0.993965
0.994661
0.995337
0.995985
0.996599
0.997174
0.997704
0.998184
0.998612
0.998987
0.999308
0.999576
0.999794
0.999965
1.00009
1.00018
1.00024
1.00027
1.00028
1.00027
1.00024
1.00021
1.00016
1.00012
1.00008
1.00004
1
0.999968
0.999941
0.99992
0.999904
0.999892
0.999886
0.999883
0.999884
0.999888
0.999895
0.999905
0.999918
0.999936
0.99996
0.999989
1.00003
1.00007
1.00012
1.00019
1.00027
1.00035
1.00045
1.00057
1.00069
1.00083
1.00098
1.00113
1.0013
1.00147
1.00165
1.00183
1.00202
1.00221
1.0024
1.0026
1.00279
1.00298
1.00318
1.00337
1.00357
1.00376
1.00395
1.00414
1.00434
1.00453
1.00472
1.00492
1.00512
1.00532
1.00552