# vtk DataFile Version 2.0
LBE mesh
ASCII
DATASET STRUCTURED_POINTS
DIMENSIONS 400 100 1
ASPECT_RATIO 1 1 1
ORIGIN 0 0 0
POINT_DATA 40000
SCALARS rho double 1
LOOKUP_TABLE default
1.10127
1.17365
1.19475
1.19911
1.20125
1.2031
1.20444
1.20532
1.20592
1.20636
1.2067
1.20697
1.20719
1.20737
1.20751
1.20763
1.20773
1.20781
1.20788
1.20794
1.20798
1.20802
1.20805
1.20807
1.20808
1.20809
1.20809
1.20808
1.20807
1.20806
1.20804
1.20802
1.20799
1.20796
1.20793
1.20789
1.20785
1.20781
1.20777
1.20772
1.20767
1.20762
1.20757
1.20751
1.20746
1.2074
1.20734
1.20729
1.20723
1.20717
1.20712
1.20706
1.20701
1.20696
1.20691
1.20686
1.20682
1.20678
1.20674
1.20671
1.20668
1.20665
1.20664
1.20662
1.20661
1.20661
1.20662
1.20663
1.20664
1.20667
1.2067
1.20673
1.20678
1.20683
1.20689
1.20695
1.20703
1.20711
1.20719
1.20729
1.20739
1.2075
1.20762
1.20774
1.20787
1.20801
1.20815
1.2083
1.20846
1.20862
1.20879
1.20896
1.20914
1.20932
1.20951
1.2097
1.20989
1.21009
1.21029
1.21049
1.21069
1.21089
1.21109
1.21129
1.21149
1.21169
1.21189
1.21208
1.21228
1.21246
1.21265
1.21283
1.213
1.21317
1.21334
1.21349
1.21364
1.21379
1.21392
1.21405
1.21417
1.21428
1.21439
1.21449
1.21458
1.21466
1.21474
1.2148
1.21487
1.21492
1.21497
1.21502
1.21506
1.2151
1.21513
1.21515
1.21518
1.2152
1.21521
1.21523
1.21524
1.21525
1.21525
1.21526
1.21526
1.21527
1.21527
1.21527
1.21526
1.21526
1.21526
1.21525
1.21525
1.21524
1.21524
1.21523
1.21523
1.21522
1.21521
1.2152
1.2152
1.21519
1.21518
1.21517
1.21516
1.21515
1.21514
1.21513
1.21512
1.21511
1.2151
1.21509
1.21507
1.21506
1.21505
1.21504
1.21502
1.21501
1.21499
1.21498
1.21496
1.21495
1.21493
1.21492
1.2149
1.21488
1.21487
1.21485
1.21483
1.21481
1.2148
1.21478
1.21476
1.21475
1.21473
1.21471
1.2147
1.21468
1.21466
1.21465
1.21463
1.21462
1.21461
1.21459
1.21458
1.21457
1.21456
1.21455
1.21454
1.21454
1.21453
1.21453
1.21452
1.21452
1.21452
1.21452
1.21453
1.21454
1.21454
1.21455
1.21457
1.21458
1.2146
1.21462
1.21464
1.21467
1.2147
1.21473
1.21477
1.21481
1.21485
1.2149
1.21495
1.215
1.21506
1.21512
1.21519
1.21526
1.21534
1.21542
1.21551
1.2156
1.2157
1.2158
1.21591
1.21603
1.21615
1.21628
1.21641
1.21655
1.2167
1.21685
1.21701
1.21717
1.21734
1.21752
1.21771
1.21789
1.21809
1.21829
1.2185
1.21871
1.21892
1.21914
1.21937
1.2196
1.21983
1.22006
1.2203
1.22053
1.22077
1.22101
1.22125
1.22149
1.22172
1.22195
1.22218
1.22241
1.22263
1.22284
1.22305
1.22325
1.22345
1.22364
1.22382
1.22399
1.22416
1.22431
1.22446
1.2246
1.22473
1.22486
1.22497
1.22508
1.22518
1.22528
1.22537
1.22545
1.22553
1.2256
1.22567
1.22573
1.22579
1.22585
1.2259
1.22595
1.226
1.22605
1.2261
1.22614
1.22619
1.22623
1.22628
1.22632
1.22636
1.22641
1.22645
1.22649
1.22654
1.22658
1.22663
1.22667
1.22671
1.22676
1.2268
1.22684
1.22689
1.22693
1.22698
1.22702
1.22707
1.22712
1.22717
1.22722
1.22727
1.22732
1.22738
1.22744
1.22751
1.22758
1.22765
1.22773
1.22782
1.22792
1.22802
1.22813
1.22825
1.22838
1.22853
1.22868
1.22885
1.22904
1.22924
1.22945
1.22968
1.22993
1.2302
1.23049
1.2308
1.23113
1.23149
1.23187
1.23227
1.2327
1.23315
1.23363
1.23414
1.23469
1.23526
1.23586
1.2365
1.23717
1.23788
1.23862
1.2394
1.24023
1.2411
1.24202
1.24298
1.24401
1.24509
1.24623
1.24744
1.24874
1.25012
1.25161
1.25321
1.25495
1.25686
1.25897
1.26133
1.264
1.26709
1.27074
1.27517
1.28089
1.28884
1.30001
1.31661
1.35068
1.16242
1.17235
1.18411
1.19371
1.1987
1.20125
1.20285
1.204
1.20486
1.20549
1.20598
1.20635
1.20665
1.2069
1.2071
1.20726
1.2074
1.20752
1.20761
1.20769
1.20776
1.20781
1.20785
1.20789
1.20791
1.20793
1.20794
1.20795
1.20794
1.20794
1.20793
1.20791
1.20789
1.20786
1.20784
1.2078
1.20777
1.20773
1.20769
1.20765
1.2076
1.20755
1.2075
1.20745
1.2074
1.20734
1.20729
1.20723
1.20718
1.20713
1.20707
1.20702
1.20697
1.20692
1.20687
1.20683
1.20679
1.20675
1.20671
1.20668
1.20666
1.20663
1.20662
1.20661
1.2066
1.2066
1.20661
1.20662
1.20664
1.20666
1.20669
1.20673
1.20678
1.20683
1.20689
1.20696
1.20703
1.20711
1.2072
1.2073
1.2074
1.20751
1.20763
1.20775
1.20789
1.20802
1.20817
1.20832
1.20848
1.20864
1.20881
1.20898
1.20916
1.20934
1.20953
1.20972
1.20991
1.2101
1.2103
1.2105
1.2107
1.2109
1.2111
1.2113
1.2115
1.2117
1.2119
1.21209
1.21228
1.21247
1.21265
1.21283
1.213
1.21317
1.21333
1.21349
1.21364
1.21378
1.21391
1.21404
1.21416
1.21427
1.21437
1.21447
1.21456
1.21464
1.21471
1.21478
1.21484
1.2149
1.21495
1.215
1.21504
1.21507
1.2151
1.21513
1.21515
1.21517
1.21519
1.2152
1.21522
1.21523
1.21523
1.21524
1.21524
1.21524
1.21525
1.21525
1.21525
1.21524
1.21524
1.21524
1.21523
1.21523
1.21522
1.21522
1.21521
1.21521
1.2152
1.21519
1.21518
1.21518
1.21517
1.21516
1.21515
1.21514
1.21513
1.21512
1.21511
1.2151
1.21509
1.21508
1.21507
1.21505
1.21504
1.21503
1.21501
1.215
1.21499
1.21497
1.21496
1.21494
1.21493
1.21491
1.21489
1.21488
1.21486
1.21484
1.21483
1.21481
1.21479
1.21478
1.21476
1.21474
1.21472
1.21471
1.21469
1.21468
1.21466
1.21464
1.21463
1.21462
1.2146
1.21459
1.21458
1.21457
1.21456
1.21455
1.21454
1.21453
1.21453
1.21452
1.21452
1.21452
1.21452
1.21452
1.21453
1.21454
1.21454
1.21455
1.21457
1.21458
1.2146
1.21462
1.21465
1.21467
1.2147
1.21474
1.21477
1.21481
1.21485
1.2149
1.21495
1.21501
1.21507
1.21513
1.2152
1.21527
1.21535
1.21543
1.21552
1.21562
1.21572
1.21582
1.21593
1.21605
1.21617
1.2163
1.21643
1.21657
1.21672
1.21687
1.21703
1.2172
1.21737
1.21755
1.21773
1.21792
1.21812
1.21832
1.21853
1.21874
1.21895
1.21917
1.2194
1.21963
1.21986
1.22009
1.22033
1.22056
1.2208
1.22104
1.22128
1.22151
1.22175
1.22198
1.2222
1.22243
1.22265
1.22286
1.22307
1.22327
1.22346
1.22365
1.22383
1.224
1.22416
1.22432
1.22446
1.2246
1.22473
1.22486
1.22497
1.22508
1.22518
1.22527
1.22536
1.22544
1.22552
1.22559
1.22566
1.22572
1.22578
1.22584
1.22589
1.22594
1.22599
1.22604
1.22609
1.22614
1.22618
1.22623
1.22627
1.22631
1.22636
1.2264
1.22645
1.22649
1.22653
1.22658
1.22662
1.22666
1.22671
1.22675
1.22679
1.22684
1.22688
1.22693
1.22697
1.22702
1.22706
1.22711
1.22716
1.22721
1.22726
1.22732
1.22738
1.22744
1.22751
1.22758
1.22765
1.22773
1.22782
1.22792
1.22802
1.22814
1.22826
1.2284
1.22854
1.2287
1.22887
1.22906
1.22926
1.22948
1.22971
1.22997
1.23024
1.23053
1.23084
1.23118
1.23154
1.23192
1.23233
1.23276
1.23322
1.2337
1.23422
1.23476
1.23534
1.23595
1.23659
1.23727
1.23798
1.23873
1.23952
1.24035
1.24123
1.24216
1.24313
1.24416
1.24526
1.24641
1.24764
1.24896
1.25036
1.25187
1.25351
1.25529
1.25726
1.25943
1.26188
1.26468
1.26793
1.27181
1.2766
1.28263
1.2905
1.30203
1.32212
1.35374
1.1819
1.18026
1.18737
1.1933
1.19703
1.1997
1.20163
1.203
1.20399
1.20475
1.20533
1.20579
1.20616
1.20646
1.20671
1.20692
1.20709
1.20723
1.20735
1.20745
1.20754
1.20761
1.20767
1.20771
1.20775
1.20778
1.2078
1.20781
1.20782
1.20782
1.20782
1.2078
1.20779
1.20777
1.20775
1.20772
1.20769
1.20765
1.20761
1.20757
1.20753
1.20748
1.20744
1.20739
1.20734
1.20729
1.20723
1.20718
1.20713
1.20708
1.20703
1.20698
1.20693
1.20688
1.20683
1.20679
1.20675
1.20671
1.20668
1.20665
1.20663
1.20661
1.20659
1.20658
1.20658
1.20658
1.20659
1.2066
1.20662
1.20665
1.20668
1.20672
1.20677
1.20682
1.20689
1.20696
1.20703
1.20711
1.2072
1.2073
1.20741
1.20752
1.20764
1.20776
1.2079
1.20803
1.20818
1.20833
1.20849
1.20865
1.20882
1.209
1.20917
1.20936
1.20954
1.20973
1.20993
1.21012
1.21032
1.21052
1.21072
1.21092
1.21112
1.21132
1.21152
1.21171
1.21191
1.2121
1.21229
1.21248
1.21266
1.21284
1.21301
1.21318
1.21334
1.21349
1.21364
1.21378
1.21391
1.21403
1.21415
1.21426
1.21436
1.21446
1.21455
1.21463
1.2147
1.21477
1.21483
1.21488
1.21493
1.21498
1.21502
1.21505
1.21508
1.21511
1.21513
1.21515
1.21517
1.21518
1.21519
1.2152
1.21521
1.21522
1.21522
1.21522
1.21523
1.21523
1.21523
1.21522
1.21522
1.21522
1.21522
1.21521
1.21521
1.2152
1.2152
1.21519
1.21519
1.21518
1.21517
1.21516
1.21516
1.21515
1.21514
1.21513
1.21512
1.21511
1.2151
1.21509
1.21508
1.21507
1.21506
1.21504
1.21503
1.21502
1.21501
1.21499
1.21498
1.21496
1.21495
1.21493
1.21492
1.2149
1.21489
1.21487
1.21485
1.21484
1.21482
1.2148
1.21479
1.21477
1.21475
1.21474
1.21472
1.2147
1.21469
1.21467
1.21465
1.21464
1.21463
1.21461
1.2146
1.21458
1.21457
1.21456
1.21455
1.21454
1.21454
1.21453
1.21452
1.21452
1.21452
1.21452
1.21452
1.21452
1.21453
1.21453
1.21454
1.21455
1.21457
1.21458
1.2146
1.21462
1.21464
1.21467
1.2147
1.21473
1.21477
1.21481
1.21486
1.2149
1.21495
1.21501
1.21507
1.21513
1.2152
1.21528
1.21536
1.21544
1.21553
1.21562
1.21572
1.21583
1.21594
1.21606
1.21618
1.21631
1.21644
1.21658
1.21673
1.21689
1.21705
1.21721
1.21739
1.21757
1.21775
1.21794
1.21814
1.21834
1.21855
1.21876
1.21898
1.2192
1.21942
1.21965
1.21988
1.22012
1.22035
1.22059
1.22083
1.22107
1.2213
1.22154
1.22177
1.222
1.22223
1.22245
1.22267
1.22288
1.22309
1.22329
1.22348
1.22367
1.22385
1.22402
1.22418
1.22433
1.22448
1.22461
1.22474
1.22486
1.22498
1.22508
1.22518
1.22528
1.22536
1.22544
1.22552
1.22559
1.22566
1.22572
1.22578
1.22584
1.22589
1.22594
1.22599
1.22604
1.22609
1.22613
1.22618
1.22622
1.22627
1.22631
1.22636
1.2264
1.22644
1.22649
1.22653
1.22657
1.22662
1.22666
1.2267
1.22675
1.22679
1.22684
1.22688
1.22692
1.22697
1.22701
1.22706
1.22711
1.22716
1.22721
1.22726
1.22732
1.22737
1.22744
1.2275
1.22757
1.22765
1.22773
1.22782
1.22792
1.22802
1.22814
1.22826
1.2284
1.22855
1.22871
1.22888
1.22907
1.22927
1.22949
1.22973
1.22998
1.23026
1.23055
1.23087
1.2312
1.23157
1.23195
1.23236
1.23279
1.23326
1.23374
1.23426
1.23481
1.23539
1.236
1.23665
1.23733
1.23805
1.2388
1.2396
1.24043
1.24132
1.24225
1.24323
1.24426
1.24536
1.24652
1.24776
1.24908
1.2505
1.25202
1.25367
1.25546
1.25744
1.25963
1.26209
1.2649
1.26816
1.27199
1.27662
1.28242
1.28992
1.29935
1.3096
1.31914
1.18995
1.18902
1.19128
1.19398
1.19692
1.19929
1.20103
1.20235
1.20337
1.20418
1.20482
1.20533
1.20574
1.20609
1.20637
1.20661
1.20681
1.20697
1.20712
1.20724
1.20734
1.20742
1.20749
1.20755
1.2076
1.20764
1.20767
1.20769
1.2077
1.20771
1.20771
1.2077
1.20769
1.20768
1.20766
1.20763
1.20761
1.20757
1.20754
1.2075
1.20746
1.20742
1.20737
1.20733
1.20728
1.20723
1.20718
1.20713
1.20708
1.20703
1.20698
1.20693
1.20688
1.20684
1.20679
1.20675
1.20671
1.20668
1.20665
1.20662
1.2066
1.20658
1.20657
1.20656
1.20655
1.20656
1.20657
1.20658
1.2066
1.20663
1.20667
1.20671
1.20676
1.20681
1.20688
1.20695
1.20703
1.20711
1.2072
1.2073
1.20741
1.20752
1.20764
1.20777
1.2079
1.20804
1.20819
1.20834
1.2085
1.20866
1.20883
1.20901
1.20919
1.20937
1.20956
1.20975
1.20994
1.21014
1.21034
1.21054
1.21074
1.21094
1.21114
1.21134
1.21154
1.21173
1.21193
1.21212
1.21231
1.21249
1.21268
1.21285
1.21302
1.21319
1.21335
1.2135
1.21365
1.21378
1.21391
1.21404
1.21415
1.21426
1.21436
1.21446
1.21454
1.21462
1.21469
1.21476
1.21482
1.21487
1.21492
1.21496
1.215
1.21504
1.21507
1.21509
1.21511
1.21513
1.21515
1.21516
1.21518
1.21518
1.21519
1.2152
1.2152
1.21521
1.21521
1.21521
1.21521
1.21521
1.2152
1.2152
1.2152
1.21519
1.21519
1.21519
1.21518
1.21518
1.21517
1.21516
1.21516
1.21515
1.21514
1.21513
1.21513
1.21512
1.21511
1.2151
1.21509
1.21508
1.21507
1.21506
1.21505
1.21503
1.21502
1.21501
1.215
1.21498
1.21497
1.21495
1.21494
1.21493
1.21491
1.21489
1.21488
1.21486
1.21485
1.21483
1.21481
1.2148
1.21478
1.21476
1.21475
1.21473
1.21471
1.2147
1.21468
1.21466
1.21465
1.21463
1.21462
1.2146
1.21459
1.21458
1.21457
1.21456
1.21455
1.21454
1.21453
1.21452
1.21452
1.21451
1.21451
1.21451
1.21451
1.21451
1.21452
1.21453
1.21454
1.21455
1.21456
1.21458
1.21459
1.21461
1.21464
1.21467
1.2147
1.21473
1.21477
1.21481
1.21485
1.2149
1.21495
1.21501
1.21507
1.21513
1.2152
1.21527
1.21535
1.21544
1.21553
1.21562
1.21572
1.21583
1.21594
1.21606
1.21618
1.21631
1.21645
1.21659
1.21674
1.21689
1.21705
1.21722
1.2174
1.21758
1.21776
1.21795
1.21815
1.21835
1.21856
1.21878
1.219
1.21922
1.21944
1.21967
1.21991
1.22014
1.22038
1.22062
1.22086
1.2211
1.22133
1.22157
1.2218
1.22203
1.22226
1.22248
1.2227
1.22292
1.22312
1.22332
1.22351
1.2237
1.22387
1.22404
1.2242
1.22436
1.2245
1.22463
1.22476
1.22488
1.22499
1.2251
1.2252
1.22529
1.22537
1.22545
1.22553
1.2256
1.22566
1.22572
1.22578
1.22584
1.22589
1.22594
1.22599
1.22604
1.22609
1.22613
1.22618
1.22622
1.22627
1.22631
1.22636
1.2264
1.22644
1.22649
1.22653
1.22657
1.22662
1.22666
1.2267
1.22675
1.22679
1.22684
1.22688
1.22692
1.22697
1.22701
1.22706
1.22711
1.22715
1.2272
1.22726
1.22731
1.22737
1.22743
1.2275
1.22757
1.22764
1.22773
1.22782
1.22791
1.22802
1.22813
1.22826
1.22839
1.22854
1.2287
1.22887
1.22906
1.22927
1.22949
1.22973
1.22998
1.23026
1.23055
1.23087
1.23121
1.23157
1.23196
1.23237
1.2328
1.23327
1.23376
1.23428
1.23483
1.23541
1.23603
1.23667
1.23736
1.23807
1.23883
1.23963
1.24047
1.24135
1.24228
1.24326
1.2443
1.2454
1.24656
1.2478
1.24911
1.25052
1.25204
1.25367
1.25546
1.25741
1.25957
1.26198
1.2647
1.26782
1.27143
1.27566
1.28062
1.28637
1.29274
1.29792
1.29803
1.19428
1.19382
1.19442
1.19592
1.19778
1.19944
1.20087
1.20206
1.20303
1.20381
1.20445
1.20497
1.20541
1.20577
1.20608
1.20634
1.20656
1.20674
1.2069
1.20704
1.20715
1.20725
1.20733
1.2074
1.20746
1.2075
1.20754
1.20757
1.20759
1.2076
1.20761
1.20761
1.2076
1.20759
1.20757
1.20755
1.20753
1.2075
1.20747
1.20743
1.2074
1.20735
1.20731
1.20727
1.20722
1.20717
1.20713
1.20708
1.20703
1.20698
1.20693
1.20688
1.20684
1.20679
1.20675
1.20671
1.20667
1.20664
1.20661
1.20658
1.20656
1.20654
1.20653
1.20652
1.20652
1.20653
1.20654
1.20656
1.20658
1.20661
1.20665
1.20669
1.20674
1.2068
1.20686
1.20693
1.20701
1.2071
1.20719
1.20729
1.2074
1.20752
1.20764
1.20777
1.2079
1.20804
1.20819
1.20835
1.20851
1.20867
1.20884
1.20902
1.2092
1.20938
1.20957
1.20976
1.20996
1.21016
1.21035
1.21055
1.21076
1.21096
1.21116
1.21136
1.21156
1.21175
1.21195
1.21214
1.21233
1.21252
1.2127
1.21287
1.21304
1.21321
1.21337
1.21352
1.21366
1.2138
1.21393
1.21405
1.21416
1.21427
1.21437
1.21446
1.21455
1.21462
1.21469
1.21476
1.21481
1.21487
1.21491
1.21495
1.21499
1.21502
1.21505
1.21508
1.2151
1.21512
1.21513
1.21515
1.21516
1.21517
1.21517
1.21518
1.21518
1.21519
1.21519
1.21519
1.21519
1.21519
1.21519
1.21518
1.21518
1.21518
1.21517
1.21517
1.21516
1.21516
1.21515
1.21515
1.21514
1.21513
1.21513
1.21512
1.21511
1.2151
1.21509
1.21508
1.21508
1.21507
1.21506
1.21504
1.21503
1.21502
1.21501
1.215
1.21499
1.21497
1.21496
1.21494
1.21493
1.21492
1.2149
1.21488
1.21487
1.21485
1.21484
1.21482
1.2148
1.21479
1.21477
1.21475
1.21474
1.21472
1.2147
1.21469
1.21467
1.21466
1.21464
1.21462
1.21461
1.2146
1.21458
1.21457
1.21456
1.21455
1.21454
1.21453
1.21452
1.21451
1.21451
1.21451
1.2145
1.2145
1.2145
1.21451
1.21451
1.21452
1.21453
1.21454
1.21455
1.21457
1.21458
1.21461
1.21463
1.21466
1.21469
1.21472
1.21476
1.2148
1.21484
1.21489
1.21494
1.215
1.21506
1.21512
1.21519
1.21526
1.21534
1.21543
1.21552
1.21561
1.21571
1.21582
1.21593
1.21605
1.21618
1.21631
1.21644
1.21659
1.21674
1.21689
1.21705
1.21722
1.2174
1.21758
1.21777
1.21796
1.21816
1.21836
1.21857
1.21879
1.21901
1.21923
1.21946
1.21969
1.21993
1.22016
1.2204
1.22064
1.22088
1.22112
1.22136
1.2216
1.22184
1.22207
1.2223
1.22252
1.22274
1.22295
1.22316
1.22336
1.22355
1.22373
1.22391
1.22408
1.22424
1.22439
1.22453
1.22466
1.22479
1.22491
1.22502
1.22512
1.22522
1.22531
1.22539
1.22547
1.22554
1.22561
1.22568
1.22574
1.22579
1.22585
1.2259
1.22595
1.226
1.22605
1.22609
1.22614
1.22618
1.22623
1.22627
1.22632
1.22636
1.2264
1.22645
1.22649
1.22653
1.22658
1.22662
1.22666
1.22671
1.22675
1.22679
1.22684
1.22688
1.22692
1.22697
1.22701
1.22706
1.2271
1.22715
1.2272
1.22725
1.22731
1.22736
1.22742
1.22749
1.22756
1.22763
1.22772
1.2278
1.2279
1.228
1.22812
1.22824
1.22838
1.22853
1.22869
1.22886
1.22905
1.22925
1.22947
1.22971
1.22997
1.23024
1.23054
1.23085
1.23119
1.23156
1.23194
1.23235
1.23279
1.23325
1.23375
1.23427
1.23482
1.2354
1.23602
1.23666
1.23735
1.23806
1.23882
1.23962
1.24045
1.24134
1.24227
1.24324
1.24428
1.24537
1.24652
1.24775
1.24905
1.25044
1.25193
1.25354
1.25528
1.25718
1.25926
1.26156
1.26412
1.267
1.27023
1.27387
1.27787
1.28197
1.28564
1.28816
1.28748
1.19729
1.19677
1.19692
1.19774
1.19881
1.19998
1.20109
1.20206
1.2029
1.20362
1.20422
1.20474
1.20517
1.20554
1.20585
1.20612
1.20635
1.20655
1.20672
1.20686
1.20699
1.20709
1.20719
1.20726
1.20733
1.20738
1.20742
1.20746
1.20748
1.2075
1.20751
1.20752
1.20751
1.20751
1.20749
1.20748
1.20746
1.20743
1.2074
1.20737
1.20733
1.20729
1.20725
1.20721
1.20717
1.20712
1.20707
1.20702
1.20698
1.20693
1.20688
1.20683
1.20679
1.20675
1.20671
1.20667
1.20663
1.2066
1.20657
1.20654
1.20652
1.20651
1.2065
1.20649
1.20649
1.2065
1.20651
1.20653
1.20655
1.20658
1.20662
1.20667
1.20672
1.20678
1.20684
1.20692
1.207
1.20708
1.20718
1.20728
1.20739
1.20751
1.20763
1.20776
1.2079
1.20804
1.20819
1.20835
1.20851
1.20868
1.20885
1.20903
1.20921
1.20939
1.20959
1.20978
1.20997
1.21017
1.21037
1.21057
1.21078
1.21098
1.21118
1.21138
1.21158
1.21178
1.21198
1.21217
1.21236
1.21254
1.21272
1.2129
1.21307
1.21323
1.21339
1.21354
1.21369
1.21382
1.21395
1.21407
1.21418
1.21429
1.21438
1.21447
1.21456
1.21463
1.2147
1.21476
1.21482
1.21487
1.21491
1.21495
1.21499
1.21502
1.21504
1.21507
1.21509
1.2151
1.21512
1.21513
1.21514
1.21515
1.21516
1.21516
1.21517
1.21517
1.21517
1.21517
1.21517
1.21517
1.21517
1.21516
1.21516
1.21516
1.21515
1.21515
1.21515
1.21514
1.21513
1.21513
1.21512
1.21512
1.21511
1.2151
1.2151
1.21509
1.21508
1.21507
1.21506
1.21505
1.21504
1.21503
1.21502
1.21501
1.215
1.21499
1.21497
1.21496
1.21495
1.21493
1.21492
1.2149
1.21489
1.21487
1.21486
1.21484
1.21483
1.21481
1.21479
1.21478
1.21476
1.21474
1.21473
1.21471
1.21469
1.21468
1.21466
1.21465
1.21463
1.21462
1.2146
1.21459
1.21457
1.21456
1.21455
1.21454
1.21453
1.21452
1.21451
1.2145
1.2145
1.21449
1.21449
1.21449
1.21449
1.21449
1.2145
1.21451
1.21451
1.21452
1.21454
1.21455
1.21457
1.21459
1.21462
1.21464
1.21467
1.2147
1.21474
1.21478
1.21483
1.21487
1.21492
1.21498
1.21504
1.21511
1.21517
1.21525
1.21533
1.21541
1.2155
1.2156
1.2157
1.21581
1.21592
1.21604
1.21616
1.21629
1.21643
1.21657
1.21672
1.21688
1.21704
1.21721
1.21739
1.21757
1.21776
1.21796
1.21816
1.21836
1.21858
1.21879
1.21901
1.21924
1.21947
1.21971
1.21994
1.22018
1.22042
1.22067
1.22091
1.22115
1.22139
1.22163
1.22187
1.2221
1.22233
1.22256
1.22278
1.22299
1.2232
1.2234
1.22359
1.22378
1.22395
1.22412
1.22428
1.22443
1.22457
1.2247
1.22483
1.22494
1.22505
1.22515
1.22525
1.22533
1.22542
1.22549
1.22556
1.22563
1.22569
1.22575
1.22581
1.22586
1.22591
1.22596
1.22601
1.22606
1.2261
1.22615
1.22619
1.22623
1.22628
1.22632
1.22637
1.22641
1.22645
1.2265
1.22654
1.22658
1.22663
1.22667
1.22671
1.22676
1.2268
1.22684
1.22689
1.22693
1.22697
1.22702
1.22706
1.22711
1.22715
1.2272
1.22725
1.2273
1.22736
1.22742
1.22748
1.22755
1.22762
1.2277
1.22779
1.22788
1.22799
1.2281
1.22822
1.22836
1.2285
1.22866
1.22883
1.22902
1.22922
1.22944
1.22968
1.22993
1.23021
1.2305
1.23082
1.23116
1.23152
1.2319
1.23232
1.23275
1.23322
1.23371
1.23423
1.23478
1.23536
1.23597
1.23662
1.2373
1.23802
1.23877
1.23956
1.2404
1.24127
1.24219
1.24317
1.24419
1.24527
1.24641
1.24761
1.24889
1.25025
1.25171
1.25327
1.25494
1.25676
1.25873
1.26088
1.26323
1.26581
1.2686
1.27158
1.27463
1.2775
1.27971
1.28084
1.28057
1.19936
1.19882
1.19881
1.19922
1.19987
1.20067
1.20148
1.20225
1.20295
1.20358
1.20413
1.2046
1.20501
1.20537
1.20568
1.20595
1.20618
1.20638
1.20656
1.20671
1.20684
1.20696
1.20705
1.20714
1.20721
1.20727
1.20732
1.20735
1.20738
1.20741
1.20742
1.20743
1.20743
1.20743
1.20742
1.2074
1.20738
1.20736
1.20733
1.2073
1.20727
1.20723
1.20719
1.20715
1.20711
1.20706
1.20702
1.20697
1.20692
1.20688
1.20683
1.20679
1.20674
1.2067
1.20666
1.20662
1.20659
1.20655
1.20653
1.2065
1.20648
1.20647
1.20646
1.20645
1.20645
1.20646
1.20647
1.20649
1.20652
1.20655
1.20659
1.20664
1.20669
1.20675
1.20682
1.2069
1.20698
1.20707
1.20716
1.20727
1.20738
1.20749
1.20762
1.20775
1.20789
1.20803
1.20819
1.20834
1.20851
1.20868
1.20885
1.20903
1.20922
1.2094
1.2096
1.20979
1.20999
1.21019
1.21039
1.21059
1.2108
1.211
1.2112
1.21141
1.21161
1.21181
1.212
1.2122
1.21239
1.21257
1.21276
1.21293
1.2131
1.21327
1.21343
1.21357
1.21372
1.21385
1.21398
1.2141
1.21421
1.21431
1.21441
1.21449
1.21457
1.21464
1.21471
1.21477
1.21482
1.21487
1.21491
1.21495
1.21498
1.21501
1.21504
1.21506
1.21508
1.21509
1.21511
1.21512
1.21513
1.21513
1.21514
1.21514
1.21515
1.21515
1.21515
1.21515
1.21515
1.21515
1.21515
1.21514
1.21514
1.21514
1.21513
1.21513
1.21513
1.21512
1.21512
1.21511
1.2151
1.2151
1.21509
1.21508
1.21508
1.21507
1.21506
1.21505
1.21505
1.21504
1.21503
1.21502
1.21501
1.21499
1.21498
1.21497
1.21496
1.21495
1.21493
1.21492
1.21491
1.21489
1.21488
1.21486
1.21485
1.21483
1.21482
1.2148
1.21478
1.21477
1.21475
1.21473
1.21472
1.2147
1.21468
1.21467
1.21465
1.21463
1.21462
1.2146
1.21459
1.21458
1.21456
1.21455
1.21454
1.21453
1.21452
1.21451
1.2145
1.21449
1.21449
1.21448
1.21448
1.21448
1.21448
1.21448
1.21448
1.21449
1.2145
1.21451
1.21452
1.21454
1.21455
1.21457
1.2146
1.21462
1.21465
1.21469
1.21472
1.21476
1.21481
1.21485
1.2149
1.21496
1.21502
1.21508
1.21515
1.21523
1.21531
1.21539
1.21548
1.21558
1.21568
1.21578
1.2159
1.21602
1.21614
1.21627
1.21641
1.21655
1.21671
1.21686
1.21703
1.2172
1.21738
1.21756
1.21775
1.21795
1.21815
1.21836
1.21857
1.21879
1.21902
1.21924
1.21948
1.21971
1.21995
1.2202
1.22044
1.22069
1.22093
1.22118
1.22142
1.22167
1.22191
1.22214
1.22238
1.2226
1.22283
1.22304
1.22325
1.22345
1.22364
1.22383
1.224
1.22417
1.22433
1.22448
1.22462
1.22475
1.22487
1.22499
1.22509
1.22519
1.22528
1.22537
1.22545
1.22552
1.22559
1.22566
1.22572
1.22577
1.22583
1.22588
1.22593
1.22598
1.22602
1.22607
1.22611
1.22616
1.2262
1.22625
1.22629
1.22633
1.22638
1.22642
1.22646
1.22651
1.22655
1.22659
1.22664
1.22668
1.22672
1.22677
1.22681
1.22685
1.22689
1.22694
1.22698
1.22702
1.22706
1.22711
1.22715
1.2272
1.22725
1.2273
1.22735
1.22741
1.22747
1.22754
1.22761
1.22769
1.22777
1.22786
1.22796
1.22807
1.22819
1.22833
1.22847
1.22863
1.2288
1.22898
1.22918
1.2294
1.22963
1.22989
1.23016
1.23045
1.23077
1.2311
1.23146
1.23185
1.23226
1.23269
1.23315
1.23364
1.23416
1.23471
1.23529
1.2359
1.23654
1.23722
1.23793
1.23868
1.23947
1.24029
1.24116
1.24207
1.24303
1.24404
1.2451
1.24622
1.2474
1.24865
1.24997
1.25137
1.25287
1.25447
1.25618
1.25801
1.25999
1.2621
1.26435
1.26671
1.2691
1.27138
1.27336
1.27477
1.27532
1.27509
1.2008
1.20033
1.20023
1.20042
1.20083
1.20136
1.20195
1.20255
1.20312
1.20365
1.20413
1.20455
1.20493
1.20527
1.20557
1.20583
1.20606
1.20626
1.20643
1.20659
1.20672
1.20684
1.20694
1.20703
1.2071
1.20717
1.20722
1.20726
1.20729
1.20732
1.20734
1.20735
1.20735
1.20735
1.20735
1.20733
1.20732
1.2073
1.20727
1.20724
1.20721
1.20718
1.20714
1.2071
1.20706
1.20701
1.20697
1.20692
1.20688
1.20683
1.20678
1.20674
1.20669
1.20665
1.20661
1.20657
1.20654
1.20651
1.20648
1.20646
1.20644
1.20642
1.20642
1.20641
1.20641
1.20642
1.20644
1.20646
1.20648
1.20652
1.20656
1.20661
1.20666
1.20672
1.20679
1.20687
1.20695
1.20704
1.20714
1.20725
1.20736
1.20748
1.2076
1.20774
1.20788
1.20802
1.20818
1.20834
1.2085
1.20868
1.20885
1.20903
1.20922
1.20941
1.20961
1.2098
1.21
1.2102
1.21041
1.21061
1.21082
1.21102
1.21123
1.21143
1.21164
1.21184
1.21203
1.21223
1.21242
1.21261
1.21279
1.21297
1.21314
1.2133
1.21346
1.21361
1.21375
1.21389
1.21401
1.21413
1.21424
1.21434
1.21443
1.21452
1.21459
1.21466
1.21473
1.21478
1.21483
1.21488
1.21492
1.21495
1.21498
1.21501
1.21503
1.21505
1.21507
1.21508
1.2151
1.21511
1.21511
1.21512
1.21512
1.21513
1.21513
1.21513
1.21513
1.21513
1.21513
1.21513
1.21513
1.21512
1.21512
1.21512
1.21511
1.21511
1.21511
1.2151
1.2151
1.21509
1.21509
1.21508
1.21507
1.21507
1.21506
1.21505
1.21504
1.21504
1.21503
1.21502
1.21501
1.215
1.21499
1.21498
1.21497
1.21496
1.21494
1.21493
1.21492
1.21491
1.21489
1.21488
1.21486
1.21485
1.21483
1.21482
1.2148
1.21479
1.21477
1.21475
1.21474
1.21472
1.2147
1.21469
1.21467
1.21465
1.21464
1.21462
1.21461
1.21459
1.21458
1.21456
1.21455
1.21454
1.21452
1.21451
1.2145
1.21449
1.21449
1.21448
1.21447
1.21447
1.21446
1.21446
1.21446
1.21446
1.21447
1.21447
1.21448
1.21449
1.2145
1.21452
1.21453
1.21455
1.21458
1.2146
1.21463
1.21466
1.2147
1.21474
1.21478
1.21483
1.21488
1.21493
1.21499
1.21506
1.21513
1.2152
1.21528
1.21536
1.21545
1.21555
1.21565
1.21575
1.21587
1.21599
1.21611
1.21624
1.21638
1.21653
1.21668
1.21684
1.217
1.21717
1.21735
1.21754
1.21773
1.21793
1.21813
1.21834
1.21856
1.21878
1.21901
1.21924
1.21948
1.21972
1.21996
1.22021
1.22045
1.2207
1.22095
1.2212
1.22145
1.2217
1.22194
1.22218
1.22242
1.22265
1.22287
1.22309
1.2233
1.22351
1.2237
1.22389
1.22406
1.22423
1.22439
1.22453
1.22467
1.2248
1.22492
1.22504
1.22514
1.22524
1.22533
1.22541
1.22549
1.22556
1.22562
1.22569
1.22575
1.2258
1.22585
1.2259
1.22595
1.226
1.22604
1.22609
1.22613
1.22617
1.22622
1.22626
1.2263
1.22635
1.22639
1.22643
1.22648
1.22652
1.22656
1.22661
1.22665
1.22669
1.22673
1.22678
1.22682
1.22686
1.2269
1.22694
1.22699
1.22703
1.22707
1.22711
1.22716
1.2272
1.22725
1.2273
1.22735
1.2274
1.22746
1.22752
1.22759
1.22767
1.22775
1.22784
1.22794
1.22804
1.22816
1.22829
1.22843
1.22858
1.22875
1.22893
1.22913
1.22935
1.22958
1.22983
1.2301
1.23039
1.2307
1.23103
1.23139
1.23177
1.23218
1.23261
1.23307
1.23355
1.23407
1.23461
1.23519
1.23579
1.23643
1.2371
1.23781
1.23855
1.23933
1.24014
1.241
1.2419
1.24284
1.24383
1.24487
1.24596
1.24711
1.24832
1.24959
1.25094
1.25236
1.25387
1.25546
1.25715
1.25894
1.26081
1.26275
1.2647
1.2666
1.26831
1.2697
1.27061
1.27092
1.2706
1.20186
1.20147
1.20133
1.2014
1.20165
1.20201
1.20244
1.20289
1.20335
1.20379
1.2042
1.20457
1.20491
1.20522
1.2055
1.20575
1.20597
1.20616
1.20634
1.20649
1.20662
1.20674
1.20684
1.20693
1.20701
1.20708
1.20713
1.20718
1.20721
1.20724
1.20726
1.20727
1.20728
1.20728
1.20728
1.20727
1.20725
1.20723
1.20721
1.20718
1.20715
1.20712
1.20708
1.20704
1.207
1.20696
1.20692
1.20687
1.20683
1.20678
1.20673
1.20669
1.20665
1.20661
1.20657
1.20653
1.20649
1.20646
1.20644
1.20641
1.2064
1.20638
1.20637
1.20637
1.20637
1.20638
1.2064
1.20642
1.20645
1.20648
1.20653
1.20657
1.20663
1.20669
1.20677
1.20684
1.20693
1.20702
1.20712
1.20722
1.20734
1.20746
1.20759
1.20772
1.20786
1.20801
1.20817
1.20833
1.2085
1.20867
1.20885
1.20904
1.20923
1.20942
1.20961
1.20981
1.21002
1.21022
1.21043
1.21063
1.21084
1.21105
1.21125
1.21146
1.21166
1.21187
1.21207
1.21226
1.21246
1.21265
1.21283
1.21301
1.21318
1.21335
1.2135
1.21365
1.2138
1.21393
1.21405
1.21417
1.21428
1.21437
1.21446
1.21455
1.21462
1.21469
1.21475
1.2148
1.21485
1.21489
1.21493
1.21496
1.21499
1.21501
1.21503
1.21505
1.21506
1.21508
1.21509
1.21509
1.2151
1.21511
1.21511
1.21511
1.21511
1.21511
1.21511
1.21511
1.21511
1.21511
1.21511
1.2151
1.2151
1.2151
1.21509
1.21509
1.21509
1.21508
1.21508
1.21507
1.21507
1.21506
1.21505
1.21505
1.21504
1.21503
1.21503
1.21502
1.21501
1.215
1.21499
1.21498
1.21497
1.21496
1.21495
1.21494
1.21493
1.21492
1.2149
1.21489
1.21488
1.21486
1.21485
1.21483
1.21482
1.2148
1.21479
1.21477
1.21476
1.21474
1.21472
1.21471
1.21469
1.21467
1.21466
1.21464
1.21463
1.21461
1.21459
1.21458
1.21456
1.21455
1.21454
1.21452
1.21451
1.2145
1.21449
1.21448
1.21447
1.21446
1.21446
1.21445
1.21445
1.21445
1.21444
1.21445
1.21445
1.21445
1.21446
1.21447
1.21448
1.2145
1.21451
1.21453
1.21455
1.21458
1.21461
1.21464
1.21467
1.21471
1.21475
1.2148
1.21485
1.2149
1.21496
1.21502
1.21509
1.21517
1.21524
1.21533
1.21542
1.21551
1.21561
1.21572
1.21583
1.21595
1.21608
1.21621
1.21635
1.21649
1.21665
1.2168
1.21697
1.21714
1.21732
1.21751
1.2177
1.2179
1.21811
1.21832
1.21854
1.21877
1.219
1.21923
1.21947
1.21972
1.21996
1.22021
1.22046
1.22072
1.22097
1.22123
1.22148
1.22173
1.22198
1.22222
1.22246
1.2227
1.22293
1.22315
1.22336
1.22357
1.22376
1.22395
1.22413
1.22429
1.22445
1.2246
1.22474
1.22486
1.22498
1.22509
1.22519
1.22529
1.22538
1.22546
1.22553
1.2256
1.22566
1.22572
1.22578
1.22583
1.22588
1.22593
1.22598
1.22602
1.22606
1.22611
1.22615
1.22619
1.22623
1.22628
1.22632
1.22636
1.2264
1.22645
1.22649
1.22653
1.22658
1.22662
1.22666
1.22671
1.22675
1.22679
1.22683
1.22687
1.22692
1.22696
1.227
1.22704
1.22708
1.22712
1.22716
1.2272
1.22725
1.22729
1.22734
1.22739
1.22745
1.22751
1.22757
1.22765
1.22773
1.22781
1.22791
1.22801
1.22812
1.22825
1.22839
1.22854
1.2287
1.22888
1.22907
1.22928
1.22951
1.22976
1.23002
1.23031
1.23062
1.23095
1.2313
1.23168
1.23208
1.23251
1.23296
1.23344
1.23395
1.23449
1.23506
1.23566
1.23629
1.23695
1.23765
1.23838
1.23915
1.23995
1.2408
1.24168
1.2426
1.24357
1.24458
1.24564
1.24675
1.24791
1.24913
1.25041
1.25176
1.25316
1.25464
1.25618
1.25778
1.25942
1.26107
1.26268
1.26418
1.26548
1.26647
1.26707
1.26723
1.26688
1.20267
1.20235
1.2022
1.20221
1.20235
1.20259
1.2029
1.20325
1.20361
1.20397
1.20432
1.20464
1.20494
1.20522
1.20548
1.20571
1.20591
1.2061
1.20627
1.20641
1.20655
1.20666
1.20677
1.20685
1.20693
1.207
1.20706
1.2071
1.20714
1.20717
1.20719
1.20721
1.20722
1.20722
1.20722
1.20721
1.2072
1.20718
1.20716
1.20713
1.2071
1.20707
1.20703
1.20699
1.20696
1.20691
1.20687
1.20682
1.20678
1.20673
1.20669
1.20665
1.2066
1.20656
1.20652
1.20648
1.20645
1.20642
1.20639
1.20637
1.20635
1.20634
1.20633
1.20633
1.20633
1.20634
1.20636
1.20638
1.20641
1.20645
1.20649
1.20654
1.2066
1.20666
1.20673
1.20681
1.2069
1.20699
1.20709
1.2072
1.20732
1.20744
1.20757
1.2077
1.20785
1.208
1.20815
1.20832
1.20849
1.20866
1.20885
1.20903
1.20923
1.20942
1.20962
1.20982
1.21003
1.21023
1.21044
1.21065
1.21086
1.21107
1.21128
1.21149
1.21169
1.2119
1.2121
1.2123
1.2125
1.21269
1.21287
1.21305
1.21323
1.21339
1.21355
1.2137
1.21384
1.21397
1.2141
1.21421
1.21432
1.21441
1.2145
1.21458
1.21465
1.21471
1.21477
1.21482
1.21487
1.2149
1.21494
1.21497
1.21499
1.21501
1.21503
1.21505
1.21506
1.21507
1.21508
1.21508
1.21509
1.21509
1.2151
1.2151
1.2151
1.2151
1.2151
1.21509
1.21509
1.21509
1.21509
1.21508
1.21508
1.21508
1.21507
1.21507
1.21506
1.21506
1.21506
1.21505
1.21504
1.21504
1.21503
1.21503
1.21502
1.21501
1.21501
1.215
1.21499
1.21498
1.21497
1.21496
1.21495
1.21494
1.21493
1.21492
1.21491
1.2149
1.21489
1.21487
1.21486
1.21485
1.21483