# vtk DataFile Version 2.0
LBE mesh
ASCII
DATASET STRUCTURED_POINTS
DIMENSIONS 400 100 1
ASPECT_RATIO 1 1 1
ORIGIN 0 0 0
POINT_DATA 40000
SCALARS rho double 1
LOOKUP_TABLE default
1.16598
1.25623
1.28198
1.28651
1.28859
1.29057
1.29204
1.29299
1.29362
1.29409
1.29444
1.29472
1.29494
1.29511
1.29525
1.29536
1.29544
1.29551
1.29556
1.2956
1.29562
1.29563
1.29563
1.29563
1.29562
1.2956
1.29557
1.29554
1.2955
1.29546
1.29541
1.29536
1.29531
1.29525
1.29519
1.29513
1.29507
1.29501
1.29494
1.29488
1.29481
1.29475
1.29468
1.29462
1.29456
1.2945
1.29445
1.29439
1.29435
1.2943
1.29426
1.29422
1.29419
1.29417
1.29415
1.29414
1.29413
1.29414
1.29415
1.29416
1.29419
1.29422
1.29427
1.29432
1.29438
1.29445
1.29454
1.29463
1.29473
1.29484
1.29496
1.29509
1.29523
1.29538
1.29553
1.2957
1.29588
1.29606
1.29626
1.29646
1.29667
1.29688
1.29711
1.29734
1.29758
1.29782
1.29807
1.29833
1.29859
1.29885
1.29912
1.29939
1.29967
1.29994
1.30021
1.30049
1.30077
1.30104
1.30131
1.30158
1.30185
1.30211
1.30237
1.30262
1.30287
1.3031
1.30334
1.30356
1.30378
1.30399
1.30418
1.30437
1.30455
1.30472
1.30487
1.30501
1.30515
1.30527
1.30537
1.30547
1.30555
1.30563
1.30569
1.30574
1.30577
1.3058
1.30582
1.30583
1.30583
1.30583
1.30581
1.30579
1.30577
1.30573
1.3057
1.30565
1.30561
1.30556
1.30551
1.30545
1.3054
1.30534
1.30528
1.30522
1.30516
1.3051
1.30504
1.30498
1.30492
1.30486
1.3048
1.30474
1.30468
1.30462
1.30457
1.30451
1.30446
1.30441
1.30435
1.3043
1.30425
1.3042
1.30415
1.30411
1.30406
1.30401
1.30397
1.30392
1.30388
1.30384
1.30379
1.30375
1.30371
1.30367
1.30363
1.30358
1.30354
1.3035
1.30346
1.30342
1.30338
1.30334
1.3033
1.30326
1.30322
1.30318
1.30314
1.3031
1.30306
1.30301
1.30297
1.30293
1.30289
1.30285
1.30281
1.30277
1.30273
1.30269
1.30266
1.30262
1.30258
1.30254
1.30251
1.30247
1.30244
1.30241
1.30238
1.30235
1.30232
1.3023
1.30227
1.30225
1.30223
1.30222
1.30221
1.3022
1.30219
1.30219
1.30219
1.30219
1.3022
1.30221
1.30223
1.30225
1.30228
1.30231
1.30235
1.30239
1.30244
1.3025
1.30256
1.30263
1.30271
1.30279
1.30288
1.30298
1.30308
1.3032
1.30332
1.30345
1.30359
1.30374
1.30389
1.30406
1.30423
1.30442
1.30461
1.30481
1.30502
1.30524
1.30547
1.30571
1.30596
1.30622
1.30648
1.30676
1.30704
1.30734
1.30764
1.30794
1.30826
1.30858
1.30891
1.30924
1.30958
1.30993
1.31028
1.31063
1.31099
1.31134
1.3117
1.31206
1.31242
1.31278
1.31314
1.31349
1.31384
1.31418
1.31452
1.31486
1.31518
1.3155
1.31581
1.31611
1.3164
1.31668
1.31695
1.31722
1.31747
1.3177
1.31793
1.31815
1.31836
1.31856
1.31874
1.31892
1.31909
1.31925
1.3194
1.31954
1.31967
1.3198
1.31992
1.32004
1.32014
1.32025
1.32034
1.32044
1.32052
1.32061
1.32069
1.32076
1.32084
1.3209
1.32097
1.32103
1.32109
1.32115
1.32121
1.32126
1.32131
1.32136
1.32141
1.32146
1.3215
1.32154
1.32159
1.32163
1.32167
1.32171
1.32175
1.32179
1.32184
1.32188
1.32193
1.32198
1.32203
1.32209
1.32215
1.32222
1.32229
1.32237
1.32246
1.32255
1.32266
1.32277
1.3229
1.32303
1.32318
1.32334
1.32352
1.32371
1.32391
1.32413
1.32437
1.32463
1.32491
1.3252
1.32552
1.32586
1.32622
1.3266
1.32701
1.32745
1.32791
1.32839
1.32891
1.32946
1.33003
1.33064
1.33128
1.33196
1.33267
1.33343
1.33422
1.33506
1.33594
1.33687
1.33786
1.33891
1.34001
1.34119
1.34245
1.34379
1.34523
1.34679
1.34847
1.35031
1.35233
1.35457
1.35708
1.35994
1.36325
1.36716
1.37193
1.37809
1.38665
1.3987
1.41653
1.45306
1.24755
1.25594
1.26872
1.27999
1.28575
1.28856
1.29029
1.29153
1.29246
1.29314
1.29365
1.29404
1.29435
1.2946
1.2948
1.29496
1.29508
1.29518
1.29526
1.29533
1.29537
1.2954
1.29543
1.29543
1.29544
1.29543
1.29541
1.29539
1.29536
1.29533
1.29529
1.29524
1.2952
1.29515
1.29509
1.29504
1.29498
1.29492
1.29486
1.2948
1.29474
1.29468
1.29462
1.29456
1.2945
1.29445
1.29439
1.29434
1.2943
1.29426
1.29422
1.29419
1.29416
1.29414
1.29412
1.29411
1.29411
1.29411
1.29413
1.29415
1.29417
1.29421
1.29426
1.29431
1.29438
1.29445
1.29453
1.29463
1.29473
1.29484
1.29496
1.29509
1.29523
1.29538
1.29554
1.29571
1.29589
1.29608
1.29627
1.29647
1.29668
1.2969
1.29713
1.29736
1.2976
1.29784
1.29809
1.29835
1.29861
1.29887
1.29914
1.29941
1.29968
1.29996
1.30023
1.30051
1.30078
1.30105
1.30133
1.30159
1.30186
1.30212
1.30238
1.30263
1.30287
1.30311
1.30334
1.30356
1.30378
1.30398
1.30418
1.30437
1.30454
1.3047
1.30486
1.305
1.30513
1.30525
1.30535
1.30545
1.30553
1.3056
1.30566
1.30571
1.30575
1.30578
1.30579
1.3058
1.30581
1.3058
1.30578
1.30576
1.30574
1.3057
1.30567
1.30563
1.30558
1.30553
1.30548
1.30543
1.30537
1.30532
1.30526
1.3052
1.30514
1.30508
1.30502
1.30496
1.3049
1.30484
1.30478
1.30473
1.30467
1.30461
1.30456
1.3045
1.30445
1.30439
1.30434
1.30429
1.30424
1.30419
1.30414
1.3041
1.30405
1.304
1.30396
1.30392
1.30387
1.30383
1.30379
1.30374
1.3037
1.30366
1.30362
1.30358
1.30354
1.3035
1.30346
1.30341
1.30337
1.30333
1.30329
1.30325
1.30321
1.30317
1.30313
1.30309
1.30305
1.30301
1.30297
1.30293
1.30289
1.30285
1.30281
1.30277
1.30273
1.30269
1.30265
1.30261
1.30258
1.30254
1.30251
1.30247
1.30244
1.30241
1.30238
1.30235
1.30232
1.3023
1.30227
1.30225
1.30224
1.30222
1.30221
1.3022
1.30219
1.30219
1.30219
1.3022
1.30221
1.30222
1.30224
1.30226
1.30229
1.30232
1.30236
1.3024
1.30246
1.30251
1.30258
1.30265
1.30272
1.30281
1.3029
1.303
1.3031
1.30322
1.30334
1.30347
1.30361
1.30376
1.30392
1.30408
1.30426
1.30444
1.30464
1.30484
1.30505
1.30527
1.30551
1.30575
1.30599
1.30625
1.30652
1.3068
1.30708
1.30737
1.30767
1.30798
1.3083
1.30862
1.30895
1.30928
1.30962
1.30997
1.31031
1.31067
1.31102
1.31138
1.31174
1.31209
1.31245
1.31281
1.31316
1.31352
1.31386
1.31421
1.31454
1.31487
1.3152
1.31551
1.31582
1.31612
1.31641
1.31669
1.31696
1.31721
1.31746
1.3177
1.31793
1.31814
1.31835
1.31854
1.31873
1.31891
1.31907
1.31923
1.31938
1.31952
1.31966
1.31978
1.3199
1.32002
1.32013
1.32023
1.32033
1.32042
1.32051
1.32059
1.32067
1.32075
1.32082
1.32089
1.32095
1.32102
1.32108
1.32114
1.32119
1.32125
1.3213
1.32135
1.32139
1.32144
1.32149
1.32153
1.32157
1.32161
1.32166
1.3217
1.32174
1.32178
1.32183
1.32187
1.32192
1.32197
1.32203
1.32208
1.32215
1.32222
1.32229
1.32237
1.32246
1.32256
1.32266
1.32278
1.32291
1.32305
1.3232
1.32336
1.32354
1.32373
1.32394
1.32416
1.32441
1.32467
1.32495
1.32524
1.32556
1.32591
1.32627
1.32666
1.32707
1.32751
1.32797
1.32846
1.32899
1.32953
1.33012
1.33073
1.33138
1.33206
1.33278
1.33354
1.33434
1.33518
1.33607
1.33702
1.33801
1.33907
1.34019
1.34138
1.34266
1.34402
1.34549
1.34707
1.34879
1.35068
1.35275
1.35507
1.35768
1.36067
1.36415
1.36832
1.37347
1.37996
1.38842
1.40083
1.42247
1.45654
1.26859
1.26507
1.27301
1.27973
1.28383
1.28679
1.28893
1.29043
1.2915
1.29231
1.29294
1.29342
1.29381
1.29412
1.29437
1.29458
1.29474
1.29488
1.29498
1.29507
1.29514
1.29519
1.29522
1.29525
1.29526
1.29526
1.29526
1.29524
1.29522
1.2952
1.29517
1.29513
1.29509
1.29504
1.295
1.29494
1.29489
1.29484
1.29478
1.29472
1.29467
1.29461
1.29455
1.29449
1.29444
1.29439
1.29434
1.29429
1.29425
1.29421
1.29417
1.29414
1.29412
1.2941
1.29408
1.29408
1.29408
1.29408
1.2941
1.29412
1.29415
1.29419
1.29424
1.2943
1.29436
1.29444
1.29452
1.29462
1.29472
1.29483
1.29496
1.29509
1.29523
1.29538
1.29555
1.29572
1.29589
1.29608
1.29628
1.29648
1.29669
1.29691
1.29714
1.29737
1.29761
1.29786
1.29811
1.29837
1.29863
1.29889
1.29916
1.29943
1.2997
1.29998
1.30025
1.30052
1.3008
1.30107
1.30134
1.30161
1.30187
1.30213
1.30239
1.30264
1.30288
1.30312
1.30335
1.30357
1.30379
1.30399
1.30418
1.30437
1.30454
1.3047
1.30486
1.305
1.30512
1.30524
1.30535
1.30544
1.30552
1.30559
1.30565
1.30569
1.30573
1.30576
1.30578
1.30578
1.30578
1.30578
1.30576
1.30574
1.30571
1.30568
1.30565
1.3056
1.30556
1.30551
1.30546
1.30541
1.30535
1.3053
1.30524
1.30518
1.30512
1.30506
1.305
1.30494
1.30489
1.30483
1.30477
1.30471
1.30466
1.3046
1.30454
1.30449
1.30444
1.30438
1.30433
1.30428
1.30423
1.30418
1.30414
1.30409
1.30404
1.304
1.30395
1.30391
1.30387
1.30382
1.30378
1.30374
1.3037
1.30365
1.30361
1.30357
1.30353
1.30349
1.30345
1.30341
1.30337
1.30333
1.30329
1.30325
1.30321
1.30317
1.30313
1.30309
1.30305
1.303
1.30296
1.30292
1.30288
1.30284
1.3028
1.30276
1.30273
1.30269
1.30265
1.30261
1.30257
1.30254
1.3025
1.30247
1.30244
1.30241
1.30238
1.30235
1.30232
1.3023
1.30227
1.30225
1.30224
1.30222
1.30221
1.3022
1.3022
1.30219
1.30219
1.3022
1.30221
1.30222
1.30224
1.30227
1.30229
1.30233
1.30237
1.30241
1.30246
1.30252
1.30259
1.30266
1.30273
1.30282
1.30291
1.30301
1.30312
1.30323
1.30336
1.30349
1.30363
1.30378
1.30394
1.3041
1.30428
1.30447
1.30466
1.30486
1.30508
1.3053
1.30553
1.30577
1.30602
1.30628
1.30655
1.30682
1.30711
1.3074
1.3077
1.30801
1.30833
1.30865
1.30898
1.30931
1.30965
1.31
1.31035
1.3107
1.31106
1.31141
1.31177
1.31213
1.31248
1.31284
1.31319
1.31354
1.31389
1.31423
1.31457
1.3149
1.31522
1.31553
1.31584
1.31614
1.31642
1.3167
1.31697
1.31722
1.31747
1.31771
1.31793
1.31814
1.31835
1.31854
1.31873
1.3189
1.31907
1.31922
1.31937
1.31951
1.31965
1.31977
1.31989
1.32001
1.32011
1.32022
1.32031
1.3204
1.32049
1.32058
1.32066
1.32073
1.3208
1.32087
1.32094
1.321
1.32106
1.32112
1.32118
1.32123
1.32128
1.32133
1.32138
1.32143
1.32147
1.32152
1.32156
1.3216
1.32164
1.32168
1.32173
1.32177
1.32181
1.32186
1.32191
1.32196
1.32202
1.32208
1.32214
1.32221
1.32228
1.32237
1.32246
1.32255
1.32266
1.32278
1.32291
1.32305
1.3232
1.32337
1.32355
1.32374
1.32395
1.32418
1.32442
1.32468
1.32496
1.32527
1.32559
1.32593
1.3263
1.32669
1.32711
1.32755
1.32801
1.32851
1.32903
1.32958
1.33017
1.33079
1.33144
1.33212
1.33285
1.33361
1.33441
1.33526
1.33616
1.33711
1.33811
1.33917
1.3403
1.3415
1.34278
1.34415
1.34563
1.34722
1.34895
1.35085
1.35294
1.35528
1.3579
1.36091
1.36439
1.36851
1.37349
1.37972
1.3878
1.39795
1.40898
1.41928
1.27642
1.27526
1.27764
1.28046
1.28371
1.28635
1.28827
1.2897
1.29082
1.29169
1.29237
1.29291
1.29335
1.29371
1.294
1.29424
1.29443
1.29459
1.29472
1.29483
1.29492
1.29498
1.29503
1.29507
1.29509
1.29511
1.29511
1.29511
1.2951
1.29508
1.29505
1.29502
1.29498
1.29494
1.2949
1.29485
1.29481
1.29475
1.2947
1.29465
1.29459
1.29454
1.29448
1.29443
1.29438
1.29433
1.29428
1.29424
1.2942
1.29416
1.29413
1.2941
1.29407
1.29405
1.29404
1.29404
1.29404
1.29405
1.29406
1.29409
1.29412
1.29416
1.29421
1.29427
1.29434
1.29442
1.2945
1.2946
1.29471
1.29482
1.29495
1.29508
1.29522
1.29538
1.29554
1.29571
1.29589
1.29608
1.29628
1.29648
1.2967
1.29692
1.29714
1.29738
1.29762
1.29787
1.29812
1.29838
1.29864
1.2989
1.29917
1.29944
1.29972
1.29999
1.30027
1.30054
1.30082
1.30109
1.30136
1.30163
1.30189
1.30215
1.30241
1.30266
1.3029
1.30314
1.30337
1.30359
1.3038
1.304
1.3042
1.30438
1.30455
1.30471
1.30487
1.305
1.30513
1.30524
1.30535
1.30544
1.30552
1.30559
1.30564
1.30569
1.30572
1.30575
1.30576
1.30577
1.30577
1.30576
1.30575
1.30573
1.3057
1.30567
1.30563
1.30559
1.30554
1.30549
1.30544
1.30539
1.30534
1.30528
1.30522
1.30517
1.30511
1.30505
1.30499
1.30493
1.30487
1.30481
1.30476
1.3047
1.30464
1.30459
1.30453
1.30448
1.30443
1.30437
1.30432
1.30427
1.30422
1.30418
1.30413
1.30408
1.30404
1.30399
1.30395
1.3039
1.30386
1.30382
1.30377
1.30373
1.30369
1.30365
1.30361
1.30357
1.30353
1.30349
1.30345
1.30341
1.30337
1.30332
1.30328
1.30324
1.3032
1.30316
1.30312
1.30308
1.30304
1.303
1.30296
1.30292
1.30288
1.30284
1.3028
1.30276
1.30272
1.30268
1.30265
1.30261
1.30257
1.30254
1.3025
1.30247
1.30243
1.3024
1.30237
1.30235
1.30232
1.30229
1.30227
1.30225
1.30224
1.30222
1.30221
1.3022
1.30219
1.30219
1.30219
1.3022
1.30221
1.30222
1.30224
1.30227
1.3023
1.30233
1.30237
1.30242
1.30247
1.30253
1.30259
1.30266
1.30274
1.30282
1.30292
1.30302
1.30313
1.30324
1.30337
1.3035
1.30364
1.30379
1.30395
1.30412
1.30429
1.30448
1.30467
1.30488
1.30509
1.30532
1.30555
1.30579
1.30604
1.3063
1.30657
1.30685
1.30713
1.30743
1.30773
1.30804
1.30835
1.30868
1.30901
1.30934
1.30968
1.31003
1.31038
1.31073
1.31109
1.31144
1.3118
1.31216
1.31252
1.31287
1.31323
1.31358
1.31392
1.31426
1.3146
1.31493
1.31525
1.31556
1.31587
1.31616
1.31645
1.31672
1.31699
1.31724
1.31749
1.31772
1.31794
1.31816
1.31836
1.31855
1.31873
1.31891
1.31907
1.31923
1.31937
1.31951
1.31964
1.31977
1.31989
1.32
1.32011
1.32021
1.3203
1.3204
1.32048
1.32057
1.32065
1.32072
1.32079
1.32086
1.32093
1.32099
1.32105
1.32111
1.32117
1.32122
1.32127
1.32132
1.32137
1.32142
1.32146
1.32151
1.32155
1.32159
1.32163
1.32167
1.32172
1.32176
1.3218
1.32185
1.3219
1.32195
1.322
1.32206
1.32213
1.3222
1.32227
1.32235
1.32244
1.32254
1.32265
1.32277
1.3229
1.32304
1.32319
1.32336
1.32354
1.32373
1.32395
1.32417
1.32442
1.32468
1.32496
1.32527
1.32559
1.32594
1.32631
1.3267
1.32712
1.32756
1.32803
1.32852
1.32905
1.3296
1.33019
1.33081
1.33146
1.33215
1.33287
1.33364
1.33445
1.3353
1.33619
1.33714
1.33814
1.33921
1.34033
1.34153
1.34281
1.34418
1.34565
1.34724
1.34896
1.35084
1.35291
1.3552
1.35778
1.36069
1.36403
1.3679
1.37245
1.37778
1.38397
1.39083
1.3964
1.39653
1.281
1.28056
1.28109
1.28268
1.28471
1.28652
1.28809
1.28939
1.29044
1.29128
1.29196
1.29252
1.29298
1.29336
1.29368
1.29394
1.29416
1.29434
1.29449
1.29461
1.29471
1.29479
1.29485
1.2949
1.29494
1.29496
1.29497
1.29498
1.29497
1.29496
1.29494
1.29491
1.29488
1.29485
1.29481
1.29477
1.29472
1.29467
1.29462
1.29457
1.29452
1.29447
1.29442
1.29437
1.29432
1.29427
1.29422
1.29418
1.29414
1.2941
1.29407
1.29405
1.29402
1.29401
1.294
1.29399
1.294
1.29401
1.29402
1.29405
1.29408
1.29413
1.29418
1.29424
1.29431
1.29439
1.29448
1.29457
1.29468
1.2948
1.29493
1.29506
1.29521
1.29536
1.29553
1.2957
1.29588
1.29607
1.29627
1.29648
1.29669
1.29691
1.29714
1.29738
1.29762
1.29787
1.29812
1.29838
1.29864
1.29891
1.29918
1.29945
1.29973
1.3
1.30028
1.30056
1.30083
1.30111
1.30138
1.30165
1.30191
1.30217
1.30243
1.30268
1.30292
1.30316
1.30339
1.30361
1.30382
1.30402
1.30422
1.3044
1.30457
1.30473
1.30488
1.30502
1.30515
1.30526
1.30536
1.30545
1.30553
1.30559
1.30565
1.30569
1.30572
1.30575
1.30576
1.30577
1.30577
1.30576
1.30574
1.30572
1.30569
1.30565
1.30562
1.30557
1.30553
1.30548
1.30543
1.30538
1.30532
1.30527
1.30521
1.30515
1.30509
1.30503
1.30498
1.30492
1.30486
1.3048
1.30474
1.30469
1.30463
1.30458
1.30452
1.30447
1.30442
1.30437
1.30432
1.30427
1.30422
1.30417
1.30412
1.30408
1.30403
1.30399
1.30394
1.3039
1.30385
1.30381
1.30377
1.30373
1.30369
1.30365
1.30361
1.30356
1.30352
1.30348
1.30344
1.3034
1.30336
1.30332
1.30328
1.30324
1.3032
1.30316
1.30312
1.30308
1.30304
1.303
1.30296
1.30292
1.30288
1.30284
1.3028
1.30276
1.30272
1.30268
1.30264
1.3026
1.30257
1.30253
1.3025
1.30246
1.30243
1.3024
1.30237
1.30234
1.30232
1.30229
1.30227
1.30225
1.30223
1.30222
1.30221
1.3022
1.30219
1.30219
1.30219
1.3022
1.30221
1.30222
1.30224
1.30227
1.3023
1.30233
1.30237
1.30242
1.30247
1.30253
1.30259
1.30266
1.30274
1.30283
1.30292
1.30302
1.30313
1.30324
1.30337
1.3035
1.30364
1.30379
1.30395
1.30412
1.3043
1.30449
1.30468
1.30489
1.3051
1.30533
1.30556
1.3058
1.30605
1.30631
1.30658
1.30686
1.30715
1.30744
1.30775
1.30806
1.30837
1.3087
1.30903
1.30937
1.30971
1.31005
1.31041
1.31076
1.31112
1.31147
1.31183
1.31219
1.31255
1.31291
1.31326
1.31361
1.31396
1.3143
1.31464
1.31496
1.31528
1.3156
1.3159
1.31619
1.31648
1.31675
1.31702
1.31727
1.31751
1.31774
1.31797
1.31818
1.31838
1.31857
1.31875
1.31892
1.31908
1.31923
1.31938
1.31952
1.31965
1.31977
1.31989
1.32
1.3201
1.3202
1.3203
1.32039
1.32048
1.32056
1.32064
1.32071
1.32079
1.32086
1.32092
1.32098
1.32105
1.3211
1.32116
1.32121
1.32126
1.32131
1.32136
1.32141
1.32145
1.32149
1.32154
1.32158
1.32162
1.32166
1.3217
1.32174
1.32179
1.32183
1.32188
1.32193
1.32199
1.32204
1.32211
1.32218
1.32225
1.32233
1.32242
1.32252
1.32263
1.32275
1.32288
1.32302
1.32317
1.32334
1.32352
1.32371
1.32393
1.32415
1.3244
1.32466
1.32495
1.32525
1.32558
1.32592
1.32629
1.32668
1.3271
1.32754
1.32801
1.32851
1.32904
1.32959
1.33018
1.3308
1.33145
1.33214
1.33286
1.33363
1.33443
1.33528
1.33618
1.33712
1.33812
1.33918
1.3403
1.34149
1.34275
1.34411
1.34556
1.34712
1.34881
1.35065
1.35265
1.35487
1.35732
1.36006
1.36314
1.36661
1.37051
1.37481
1.37923
1.38319
1.38589
1.38516
1.28432
1.28374
1.28385
1.28472
1.28587
1.28712
1.28833
1.28939
1.2903
1.29107
1.29172
1.29226
1.29272
1.2931
1.29343
1.2937
1.29393
1.29412
1.29428
1.29442
1.29453
1.29462
1.29469
1.29475
1.29479
1.29482
1.29484
1.29485
1.29485
1.29485
1.29483
1.29481
1.29479
1.29475
1.29472
1.29468
1.29464
1.29459
1.29455
1.2945
1.29445
1.2944
1.29435
1.2943
1.29425
1.29421
1.29416
1.29412
1.29409
1.29405
1.29402
1.29399
1.29397
1.29396
1.29395
1.29395
1.29395
1.29396
1.29398
1.29401
1.29404
1.29409
1.29414
1.2942
1.29427
1.29435
1.29444
1.29454
1.29465
1.29477
1.2949
1.29503
1.29518
1.29534
1.2955
1.29568
1.29586
1.29605
1.29625
1.29646
1.29668
1.2969
1.29713
1.29737
1.29762
1.29787
1.29812
1.29838
1.29865
1.29892
1.29919
1.29946
1.29974
1.30002
1.30029
1.30057
1.30085
1.30112
1.3014
1.30167
1.30193
1.30219
1.30245
1.3027
1.30295
1.30318
1.30341
1.30364
1.30385
1.30405
1.30425
1.30443
1.3046
1.30476
1.30491
1.30505
1.30517
1.30528
1.30538
1.30547
1.30555
1.30561
1.30566
1.3057
1.30573
1.30576
1.30577
1.30577
1.30577
1.30575
1.30574
1.30571
1.30568
1.30565
1.30561
1.30556
1.30552
1.30547
1.30542
1.30536
1.30531
1.30525
1.3052
1.30514
1.30508
1.30502
1.30496
1.30491
1.30485
1.30479
1.30473
1.30468
1.30462
1.30457
1.30451
1.30446
1.30441
1.30436
1.30431
1.30426
1.30421
1.30416
1.30412
1.30407
1.30403
1.30398
1.30394
1.30389
1.30385
1.30381
1.30377
1.30373
1.30368
1.30364
1.3036
1.30356
1.30352
1.30348
1.30344
1.3034
1.30336
1.30332
1.30328
1.30324
1.3032
1.30316
1.30312
1.30308
1.30304
1.303
1.30296
1.30292
1.30288
1.30284
1.3028
1.30276
1.30272
1.30268
1.30264
1.3026
1.30257
1.30253
1.30249
1.30246
1.30243
1.3024
1.30237
1.30234
1.30231
1.30229
1.30227
1.30225
1.30223
1.30221
1.3022
1.30219
1.30219
1.30219
1.30219
1.30219
1.3022
1.30222
1.30224
1.30226
1.30229
1.30232
1.30236
1.30241
1.30246
1.30252
1.30259
1.30266
1.30274
1.30282
1.30291
1.30301
1.30312
1.30324
1.30337
1.3035
1.30364
1.30379
1.30395
1.30412
1.3043
1.30448
1.30468
1.30489
1.3051
1.30533
1.30556
1.3058
1.30606
1.30632
1.30659
1.30687
1.30715
1.30745
1.30776
1.30807
1.30839
1.30871
1.30905
1.30938
1.30973
1.31008
1.31043
1.31078
1.31114
1.3115
1.31186
1.31222
1.31258
1.31294
1.3133
1.31365
1.314
1.31434
1.31468
1.315
1.31533
1.31564
1.31594
1.31624
1.31652
1.31679
1.31706
1.31731
1.31755
1.31778
1.318
1.3182
1.3184
1.31859
1.31877
1.31894
1.3191
1.31925
1.31939
1.31953
1.31966
1.31978
1.31989
1.32
1.32011
1.32021
1.3203
1.32039
1.32048
1.32056
1.32064
1.32071
1.32078
1.32085
1.32092
1.32098
1.32104
1.3211
1.32115
1.32121
1.32126
1.32131
1.32135
1.3214
1.32144
1.32149
1.32153
1.32157
1.32161
1.32165
1.32169
1.32173
1.32177
1.32182
1.32186
1.32191
1.32197
1.32202
1.32209
1.32215
1.32223
1.32231
1.3224
1.3225
1.3226
1.32272
1.32285
1.32299
1.32314
1.3233
1.32348
1.32368
1.32389
1.32412
1.32436
1.32463
1.32491
1.32521
1.32554
1.32588
1.32625
1.32665
1.32706
1.32751
1.32798
1.32847
1.329
1.32955
1.33014
1.33076
1.33141
1.33209
1.33281
1.33358
1.33438
1.33522
1.33611
1.33705
1.33804
1.33908
1.34019
1.34136
1.34261
1.34394
1.34536
1.34688
1.34851
1.35028
1.3522
1.3543
1.35659
1.3591
1.36186
1.36486
1.36806
1.37133
1.37442
1.3768
1.37801
1.37772
1.28659
1.28596
1.28592
1.28635
1.28704
1.28789
1.28877
1.2896
1.29036
1.29103
1.29161
1.29211
1.29254
1.29292
1.29324
1.29351
1.29374
1.29394
1.29411
1.29425
1.29437
1.29446
1.29455
1.29461
1.29466
1.2947
1.29472
1.29474
1.29474
1.29474
1.29473
1.29472
1.29469
1.29467
1.29463
1.2946
1.29456
1.29452
1.29447
1.29443
1.29438
1.29433
1.29428
1.29424
1.29419
1.29415
1.2941
1.29406
1.29403
1.29399
1.29396
1.29394
1.29392
1.29391
1.2939
1.2939
1.2939
1.29391
1.29393
1.29396
1.294
1.29404
1.2941
1.29416
1.29423
1.29431
1.2944
1.2945
1.29461
1.29473
1.29486
1.295
1.29515
1.29531
1.29548
1.29565
1.29584
1.29603
1.29623
1.29644
1.29666
1.29689
1.29712
1.29736
1.29761
1.29786
1.29812
1.29838
1.29865
1.29892
1.29919
1.29947
1.29975
1.30003
1.30031
1.30059
1.30087
1.30114
1.30142
1.30169
1.30196
1.30222
1.30248
1.30273
1.30298
1.30321
1.30345
1.30367
1.30388
1.30409
1.30428
1.30446
1.30464
1.3048
1.30494
1.30508
1.3052
1.30531
1.30541
1.3055
1.30557
1.30563
1.30568
1.30572
1.30575
1.30577
1.30578
1.30578
1.30577
1.30576
1.30574
1.30571
1.30568
1.30564
1.3056
1.30556
1.30551
1.30546
1.30541
1.30536
1.3053
1.30524
1.30519
1.30513
1.30507
1.30501
1.30495
1.3049
1.30484
1.30478
1.30473
1.30467
1.30461
1.30456
1.30451
1.30445
1.3044
1.30435
1.3043
1.30425
1.30421
1.30416
1.30411
1.30407
1.30402
1.30398
1.30393
1.30389
1.30385
1.30381
1.30377
1.30372
1.30368
1.30364
1.3036
1.30356
1.30352
1.30348
1.30344
1.3034
1.30336
1.30332
1.30328
1.30324
1.3032
1.30316
1.30312
1.30308
1.30304
1.303
1.30296
1.30291
1.30287
1.30283
1.30279
1.30275
1.30271
1.30268
1.30264
1.3026
1.30256
1.30253
1.30249
1.30246
1.30242
1.30239
1.30236
1.30233
1.30231
1.30228
1.30226
1.30224
1.30222
1.30221
1.3022
1.30219
1.30218
1.30218
1.30218
1.30219
1.3022
1.30221
1.30223
1.30225
1.30228
1.30232
1.30236
1.3024
1.30245
1.30251
1.30258
1.30265
1.30273
1.30281
1.3029
1.303
1.30311
1.30323
1.30336
1.30349
1.30363
1.30378
1.30394
1.30411
1.30429
1.30448
1.30467
1.30488
1.30509
1.30532
1.30555
1.3058
1.30605
1.30631
1.30659
1.30687
1.30716
1.30745
1.30776
1.30807
1.30839
1.30872
1.30906
1.3094
1.30974
1.31009
1.31045
1.3108
1.31117
1.31153
1.31189
1.31225
1.31262
1.31298
1.31334
1.31369
1.31404
1.31438
1.31472
1.31505
1.31537
1.31569
1.31599
1.31628
1.31657
1.31684
1.3171
1.31735
1.31759
1.31782
1.31804
1.31824
1.31844
1.31862
1.3188
1.31896
1.31912
1.31927
1.31941
1.31954
1.31967
1.31979
1.3199
1.32001
1.32011
1.32021
1.3203
1.32039
1.32048
1.32056
1.32064
1.32071
1.32078
1.32085
1.32091
1.32098
1.32104
1.32109
1.32115
1.3212
1.32125
1.3213
1.32135
1.32139
1.32144
1.32148
1.32152
1.32156
1.3216
1.32164
1.32168
1.32172
1.32176
1.3218
1.32185
1.32189
1.32194
1.322
1.32206
1.32213
1.3222
1.32228
1.32237
1.32246
1.32257
1.32268
1.32281
1.32295
1.3231
1.32326
1.32344
1.32363
1.32384
1.32407
1.32431
1.32458
1.32486
1.32516
1.32548
1.32583
1.3262
1.32659
1.327
1.32744
1.32791
1.32841
1.32893
1.32948
1.33007
1.33068
1.33133
1.33201
1.33273
1.33348
1.33428
1.33511
1.33599
1.33692
1.3379
1.33893
1.34002
1.34116
1.34238
1.34368
1.34505
1.34652
1.34809
1.34977
1.35158
1.35353
1.35563
1.35789
1.3603
1.36282
1.36539
1.36785
1.36997
1.37149
1.37208
1.37182
1.28815
1.28761
1.28749
1.28767
1.28809
1.28866
1.28929
1.28993
1.29054
1.2911
1.29161
1.29206
1.29245
1.2928
1.29311
1.29337
1.2936
1.2938
1.29396
1.29411
1.29423
1.29433
1.29442
1.29449
1.29454
1.29458
1.29461
1.29463
1.29464
1.29464
1.29464
1.29463
1.29461
1.29458
1.29455
1.29452
1.29448
1.29444
1.2944
1.29436
1.29431
1.29427
1.29422
1.29418
1.29413
1.29409
1.29405
1.29401
1.29397
1.29394
1.29391
1.29389
1.29387
1.29385
1.29385
1.29384
1.29385
1.29386
1.29388
1.29391
1.29395
1.29399
1.29405
1.29411
1.29418
1.29427
1.29436
1.29446
1.29457
1.29469
1.29482
1.29496
1.29512
1.29527
1.29544
1.29562
1.29581
1.296
1.29621
1.29642
1.29664
1.29687
1.2971
1.29734
1.29759
1.29784
1.2981
1.29837
1.29864
1.29891
1.29919
1.29947
1.29975
1.30003
1.30032
1.3006
1.30088
1.30116
1.30144
1.30171
1.30198
1.30224
1.30251
1.30276
1.30301
1.30325
1.30348
1.3037
1.30392
1.30413
1.30432
1.3045
1.30468
1.30484
1.30499
1.30512
1.30524
1.30535
1.30545
1.30553
1.30561
1.30566
1.30571
1.30575
1.30578
1.30579
1.3058
1.3058
1.30579
1.30577
1.30575
1.30572
1.30569
1.30565
1.3056
1.30556
1.30551
1.30546
1.30541
1.30535
1.30529
1.30524
1.30518
1.30512
1.30506
1.305
1.30495
1.30489
1.30483
1.30477
1.30472
1.30466
1.30461
1.30455
1.3045
1.30445
1.3044
1.30435
1.3043
1.30425
1.3042
1.30416
1.30411
1.30406
1.30402
1.30398
1.30393
1.30389
1.30385
1.30381
1.30376
1.30372
1.30368
1.30364
1.3036
1.30356
1.30352
1.30348
1.30344
1.3034
1.30336
1.30332
1.30328
1.30324
1.3032
1.30316
1.30312
1.30308
1.30304
1.303
1.30295
1.30291
1.30287
1.30283
1.30279
1.30275
1.30271
1.30267
1.30264
1.3026
1.30256
1.30252
1.30249
1.30245
1.30242
1.30239
1.30236
1.30233
1.3023
1.30228
1.30225
1.30223
1.30222
1.3022
1.30219
1.30218
1.30217
1.30217
1.30217
1.30218
1.30219
1.3022
1.30222
1.30224
1.30227
1.3023
1.30234
1.30239
1.30244
1.3025
1.30256
1.30263
1.30271
1.3028
1.30289
1.30299
1.3031
1.30321
1.30334
1.30347
1.30361
1.30376
1.30392
1.30409
1.30427
1.30446
1.30466
1.30486
1.30508
1.3053
1.30554
1.30578
1.30604
1.3063
1.30657
1.30686
1.30715
1.30745
1.30775
1.30807
1.30839
1.30872
1.30906
1.3094
1.30975
1.3101
1.31046
1.31082
1.31118
1.31155
1.31192
1.31228
1.31265
1.31301
1.31337
1.31373
1.31408
1.31443
1.31477
1.3151
1.31542
1.31574
1.31604
1.31634
1.31662
1.31689
1.31715
1.3174
1.31764
1.31787
1.31808
1.31828
1.31848
1.31866
1.31883
1.319
1.31915
1.3193
1.31944
1.31957
1.31969
1.31981
1.31992
1.32002
1.32012
1.32022
1.32031
1.3204
1.32048
1.32056
1.32064
1.32071
1.32078
1.32085
1.32091
1.32098
1.32104
1.32109
1.32115
1.3212
1.32125
1.3213
1.32134
1.32139
1.32143
1.32147
1.32151
1.32155
1.32159
1.32162
1.32166
1.3217
1.32174
1.32178
1.32182
1.32187
1.32192
1.32197
1.32203
1.3221
1.32217
1.32224
1.32233
1.32242
1.32252
1.32264
1.32276
1.3229
1.32305
1.32321
1.32338
1.32358
1.32378
1.32401
1.32425
1.32451
1.32479
1.32509
1.32541
1.32575
1.32612
1.32651
1.32692
1.32736
1.32782
1.32832
1.32884
1.32938
1.32996
1.33057
1.33122
1.33189
1.3326
1.33335
1.33414
1.33496
1.33583
1.33674
1.3377
1.33871
1.33977
1.34089
1.34208
1.34333
1.34465
1.34606
1.34755
1.34913
1.35082
1.35261
1.35451
1.3565
1.35858
1.36067
1.36271
1.36455
1.36604
1.36702
1.36735
1.36699
1.28929
1.28885
1.28868
1.28874
1.28899
1.28937
1.28982
1.2903
1.29079
1.29125
1.29168
1.29207
1.29243
1.29275
1.29303
1.29328
1.2935
1.29369
1.29385
1.294
1.29412
1.29422
1.29431
1.29438
1.29443
1.29448
1.29451
1.29453
1.29455
1.29455
1.29455
1.29454
1.29452
1.2945
1.29448
1.29444
1.29441
1.29437
1.29433
1.29429
1.29425
1.2942
1.29416
1.29411
1.29407
1.29403
1.29399
1.29395
1.29391
1.29388
1.29385
1.29383
1.29381
1.2938
1.29379
1.29379
1.2938
1.29381
1.29383
1.29386
1.2939
1.29394
1.294
1.29406
1.29413
1.29422
1.29431
1.29441
1.29453
1.29465
1.29478
1.29492
1.29508
1.29524
1.29541
1.29559
1.29577
1.29597
1.29618
1.29639
1.29661
1.29684
1.29708
1.29732
1.29757
1.29783
1.29809
1.29836
1.29863
1.29891
1.29919
1.29947
1.29975
1.30004
1.30032
1.30061
1.30089
1.30118
1.30146
1.30173
1.302
1.30227
1.30253
1.30279
1.30304
1.30328
1.30352
1.30374
1.30396
1.30417
1.30436
1.30455
1.30472
1.30488
1.30503
1.30517
1.30529
1.3054
1.30549
1.30558
1.30565
1.3057
1.30575
1.30578
1.3058
1.30582
1.30582
1.30582
1.3058
1.30578
1.30576
1.30573
1.30569
1.30565
1.30561
1.30556
1.30551
1.30546
1.3054
1.30535
1.30529
1.30523
1.30517
1.30511
1.30506
1.305
1.30494
1.30488
1.30482
1.30477
1.30471
1.30466
1.3046
1.30455
1.3045
1.30444
1.30439
1.30434
1.30429
1.30425
1.3042
1.30415
1.30411
1.30406
1.30402
1.30397
1.30393
1.30389
1.30385
1.30381
1.30376
1.30372
1.30368
1.30364
1.3036
1.30356
1.30352
1.30348
1.30344
1.3034
1.30336
1.30332
1.30328
1.30324
1.3032
1.30316
1.30312
1.30308
1.30304
1.303
1.30295
1.30291
1.30287
1.30283
1.30279
1.30275
1.30271
1.30267
1.30263
1.30259
1.30256
1.30252
1.30248
1.30245
1.30242
1.30238
1.30235
1.30232
1.3023
1.30227
1.30225
1.30223
1.30221
1.30219
1.30218
1.30217
1.30216
1.30216
1.30216
1.30216
1.30217
1.30219
1.3022
1.30223
1.30226
1.30229
1.30233
1.30237
1.30242
1.30248
1.30254
1.30261
1.30269
1.30278
1.30287
1.30297
1.30308
1.30319
1.30332
1.30345
1.30359
1.30374
1.3039
1.30407
1.30425
1.30444
1.30463
1.30484
1.30506
1.30528
1.30552
1.30576
1.30602
1.30628
1.30656
1.30684
1.30713
1.30743
1.30774
1.30806
1.30838
1.30872
1.30905
1.3094
1.30975
1.31011
1.31047
1.31083
1.3112
1.31157
1.31194
1.31231
1.31268
1.31305
1.31341
1.31377
1.31413
1.31448
1.31482
1.31515
1.31548
1.31579
1.3161
1.3164
1.31668
1.31695
1.31721
1.31746
1.3177
1.31792
1.31813
1.31833
1.31852
1.3187
1.31887
1.31904
1.31919
1.31933
1.31946
1.31959
1.31971
1.31983
1.31994
1.32004
1.32014
1.32023
1.32032
1.32041
1.32049
1.32057
1.32064
1.32072
1.32079
1.32085
1.32092
1.32098
1.32104
1.32109
1.32115
1.3212
1.32125
1.3213
1.32134
1.32138
1.32143
1.32147
1.3215
1.32154
1.32158
1.32161
1.32165
1.32169
1.32172
1.32176
1.3218
1.32185
1.32189
1.32194
1.322
1.32206
1.32213
1.3222
1.32228
1.32238
1.32248
1.32259
1.32271
1.32284
1.32299
1.32315
1.32332
1.32351
1.32371
1.32393
1.32417
1.32443
1.32471
1.325
1.32532
1.32566
1.32602
1.32641
1.32682
1.32725
1.32771
1.3282
1.32872
1.32926
1.32984
1.33044
1.33107
1.33174
1.33245
1.33318
1.33396
1.33477
1.33562
1.33652
1.33745
1.33844
1.33947
1.34056
1.3417
1.3429
1.34417
1.3455
1.34691
1.34839
1.34994
1.35157
1.35327
1.35502
1.35678
1.35851
1.36012
1.36152
1.36259
1.36323
1.3634
1.36301
1.29017
1.2898
1.28962
1.28961
1.28975
1.29
1.29033
1.29069
1.29107
1.29144
1.2918
1.29214
1.29245
1.29274
1.293
1.29323
1.29343
1.29361
1.29377
1.29391
1.29403
1.29413
1.29421
1.29429
1.29434
1.29439
1.29442
1.29445
1.29446
1.29447
1.29447
1.29446
1.29445
1.29443
1.29441
1.29438
1.29434
1.29431
1.29427
1.29423
1.29419
1.29414
1.2941
1.29406
1.29401
1.29397
1.29393
1.29389
1.29386
1.29383
1.2938
1.29378
1.29376
1.29374
1.29374
1.29374
1.29374
1.29376
1.29378
1.29381
1.29384
1.29389
1.29394
1.29401
1.29408
1.29417
1.29426
1.29437
1.29448
1.2946
1.29474
1.29488
1.29503
1.29519
1.29537
1.29555
1.29574
1.29593
1.29614
1.29636
1.29658
1.29681
1.29705
1.29729
1.29755
1.2978
1.29807
1.29834
1.29862
1.29889
1.29918
1.29946
1.29975
1.30004
1.30033
1.30062
1.30091
1.30119
1.30147
1.30175
1.30203
1.3023
1.30256
1.30282
1.30307
1.30332
1.30356
1.30378
1.304
1.30421
1.30441
1.3046
1.30477
1.30494
1.30508
1.30522
1.30534
1.30545
1.30554
1.30562
1.30569
1.30574
1.30579
1.30582
1.30584
1.30585
1.30585
1.30584
1.30583
1.3058
1.30577
1.30574
1.3057
1.30566
1.30561
1.30556
1.30551
1.30546
1.3054
1.30534
1.30529
1.30523
1.30517
1.30511
1.30505
1.30499
1.30493
1.30488
1.30482
1.30476
1.30471
1.30465
1.3046
1.30454
1.30449
1.30444
1.30439
1.30434
1.30429
1.30424
1.3042
1.30415
1.30411
1.30406
1.30402
1.30397
1.30393
1.30389
1.30385
1.30381
1.30377
1.30372
1.30368
1.30364
1.3036
1.30356
1.30352
1.30348
1.30344
1.3034
1.30336
1.30332
1.30328
1.30324
1.3032