# vtk DataFile Version 2.0
LBE mesh
ASCII
DATASET STRUCTURED_POINTS
DIMENSIONS 400 100 1
ASPECT_RATIO 1 1 1
ORIGIN 0 0 0
POINT_DATA 40000
SCALARS rho double 1
LOOKUP_TABLE default
1.12706
1.20653
1.2295
1.23394
1.23605
1.23796
1.23935
1.24027
1.24088
1.24134
1.2417
1.24198
1.24221
1.24239
1.24254
1.24267
1.24278
1.24287
1.24295
1.24301
1.24307
1.24311
1.24315
1.24318
1.24321
1.24323
1.24325
1.24326
1.24327
1.24328
1.24328
1.24328
1.24328
1.24328
1.24328
1.24327
1.24327
1.24326
1.24326
1.24325
1.24325
1.24325
1.24324
1.24325
1.24325
1.24325
1.24326
1.24327
1.24329
1.24331
1.24333
1.24336
1.24339
1.24343
1.24347
1.24353
1.24358
1.24365
1.24372
1.2438
1.24389
1.24399
1.24409
1.24421
1.24433
1.24446
1.2446
1.24475
1.24491
1.24508
1.24526
1.24545
1.24565
1.24586
1.24607
1.2463
1.24653
1.24677
1.24703
1.24729
1.24755
1.24783
1.24811
1.2484
1.2487
1.24901
1.24932
1.24963
1.24995
1.25028
1.25061
1.25094
1.25127
1.25161
1.25194
1.25228
1.25262
1.25295
1.25329
1.25362
1.25395
1.25427
1.25459
1.2549
1.25521
1.25551
1.2558
1.25608
1.25636
1.25662
1.25687
1.25712
1.25735
1.25757
1.25778
1.25798
1.25817
1.25834
1.2585
1.25865
1.25879
1.25891
1.25902
1.25913
1.25922
1.2593
1.25937
1.25943
1.25949
1.25953
1.25957
1.2596
1.25962
1.25964
1.25965
1.25966
1.25966
1.25966
1.25966
1.25965
1.25964
1.25963
1.25962
1.2596
1.25959
1.25957
1.25956
1.25954
1.25953
1.25951
1.2595
1.25948
1.25947
1.25946
1.25945
1.25944
1.25943
1.25942
1.25942
1.25941
1.25941
1.25941
1.25941
1.25942
1.25942
1.25943
1.25944
1.25945
1.25947
1.25948
1.2595
1.25952
1.25954
1.25956
1.25959
1.25961
1.25964
1.25967
1.2597
1.25973
1.25976
1.2598
1.25983
1.25987
1.2599
1.25994
1.25998
1.26002
1.26006
1.2601
1.26014
1.26018
1.26023
1.26027
1.26031
1.26036
1.2604
1.26044
1.26049
1.26054
1.26058
1.26063
1.26067
1.26072
1.26077
1.26082
1.26087
1.26092
1.26097
1.26103
1.26108
1.26114
1.26119
1.26125
1.26131
1.26138
1.26144
1.26151
1.26158
1.26166
1.26174
1.26182
1.2619
1.26199
1.26208
1.26218
1.26228
1.26239
1.2625
1.26262
1.26275
1.26288
1.26302
1.26316
1.26331
1.26347
1.26364
1.26381
1.26399
1.26418
1.26438
1.26459
1.26481
1.26504
1.26527
1.26552
1.26577
1.26604
1.26631
1.2666
1.2669
1.2672
1.26752
1.26784
1.26818
1.26852
1.26888
1.26924
1.26962
1.27
1.27039
1.27079
1.2712
1.27162
1.27204
1.27247
1.2729
1.27334
1.27378
1.27423
1.27467
1.27513
1.27558
1.27603
1.27648
1.27693
1.27737
1.27781
1.27825
1.27868
1.2791
1.27952
1.27993
1.28033
1.28072
1.2811
1.28147
1.28183
1.28218
1.28251
1.28284
1.28315
1.28345
1.28374
1.28402
1.28429
1.28454
1.28479
1.28502
1.28524
1.28546
1.28566
1.28585
1.28604
1.28622
1.28639
1.28655
1.2867
1.28685
1.28699
1.28712
1.28724
1.28736
1.28748
1.28759
1.28769
1.28779
1.28788
1.28796
1.28805
1.28812
1.2882
1.28827
1.28833
1.28839
1.28845
1.28851
1.28856
1.28862
1.28867
1.28872
1.28876
1.28881
1.28886
1.28891
1.28897
1.28902
1.28908
1.28914
1.28921
1.28928
1.28936
1.28944
1.28954
1.28964
1.28975
1.28987
1.29
1.29014
1.29029
1.29046
1.29065
1.29084
1.29106
1.29129
1.29154
1.2918
1.29209
1.2924
1.29273
1.29308
1.29345
1.29385
1.29427
1.29472
1.2952
1.2957
1.29623
1.2968
1.29739
1.29802
1.29868
1.29938
1.30012
1.3009
1.30172
1.30258
1.30349
1.30446
1.30547
1.30656
1.3077
1.30893
1.31023
1.31163
1.31314
1.31478
1.31656
1.31852
1.32069
1.32312
1.32589
1.3291
1.33289
1.3375
1.34345
1.35182
1.36364
1.37995
1.41104
1.19634
1.20565
1.21782
1.22809
1.23339
1.23605
1.2377
1.2389
1.23978
1.24044
1.24094
1.24134
1.24165
1.24191
1.24212
1.24229
1.24244
1.24256
1.24267
1.24276
1.24283
1.2429
1.24295
1.243
1.24304
1.24307
1.2431
1.24312
1.24314
1.24316
1.24317
1.24317
1.24318
1.24318
1.24318
1.24318
1.24318
1.24318
1.24318
1.24318
1.24318
1.24318
1.24318
1.24319
1.24319
1.2432
1.24321
1.24322
1.24324
1.24326
1.24329
1.24332
1.24336
1.2434
1.24344
1.2435
1.24356
1.24363
1.2437
1.24378
1.24387
1.24397
1.24408
1.2442
1.24432
1.24446
1.2446
1.24475
1.24491
1.24508
1.24526
1.24545
1.24565
1.24586
1.24608
1.24631
1.24654
1.24679
1.24704
1.2473
1.24757
1.24785
1.24813
1.24842
1.24872
1.24902
1.24933
1.24965
1.24997
1.2503
1.25062
1.25096
1.25129
1.25163
1.25196
1.2523
1.25264
1.25297
1.2533
1.25363
1.25396
1.25428
1.2546
1.25491
1.25521
1.25551
1.2558
1.25608
1.25636
1.25662
1.25687
1.25711
1.25734
1.25756
1.25777
1.25797
1.25815
1.25832
1.25848
1.25863
1.25877
1.25889
1.259
1.2591
1.25919
1.25927
1.25934
1.25941
1.25946
1.2595
1.25954
1.25957
1.25959
1.25961
1.25962
1.25963
1.25964
1.25964
1.25963
1.25963
1.25962
1.25961
1.2596
1.25958
1.25957
1.25956
1.25954
1.25953
1.25951
1.2595
1.25948
1.25947
1.25945
1.25944
1.25943
1.25942
1.25942
1.25941
1.25941
1.2594
1.2594
1.2594
1.25941
1.25941
1.25942
1.25943
1.25944
1.25945
1.25946
1.25948
1.2595
1.25952
1.25954
1.25956
1.25958
1.25961
1.25964
1.25967
1.2597
1.25973
1.25976
1.25979
1.25983
1.25986
1.2599
1.25994
1.25998
1.26002
1.26006
1.2601
1.26014
1.26018
1.26022
1.26027
1.26031
1.26035
1.2604
1.26044
1.26049
1.26053
1.26058
1.26063
1.26067
1.26072
1.26077
1.26082
1.26087
1.26092
1.26097
1.26103
1.26108
1.26114
1.2612
1.26126
1.26132
1.26138
1.26145
1.26152
1.26159
1.26166
1.26174
1.26182
1.26191
1.262
1.26209
1.26219
1.26229
1.2624
1.26252
1.26264
1.26276
1.26289
1.26303
1.26318
1.26333
1.26349
1.26366
1.26383
1.26401
1.26421
1.26441
1.26462
1.26483
1.26506
1.2653
1.26554
1.2658
1.26607
1.26634
1.26663
1.26693
1.26723
1.26755
1.26788
1.26821
1.26856
1.26891
1.26928
1.26965
1.27004
1.27043
1.27083
1.27124
1.27165
1.27207
1.2725
1.27293
1.27337
1.27381
1.27426
1.27471
1.27516
1.27561
1.27606
1.2765
1.27695
1.27739
1.27783
1.27827
1.2787
1.27912
1.27953
1.27994
1.28034
1.28073
1.28111
1.28147
1.28183
1.28218
1.28251
1.28283
1.28314
1.28344
1.28373
1.28401
1.28427
1.28453
1.28477
1.285
1.28523
1.28544
1.28564
1.28584
1.28602
1.2862
1.28637
1.28653
1.28668
1.28683
1.28697
1.2871
1.28723
1.28735
1.28746
1.28757
1.28767
1.28777
1.28786
1.28795
1.28803
1.28811
1.28818
1.28825
1.28831
1.28838
1.28844
1.28849
1.28855
1.2886
1.28865
1.2887
1.28875
1.2888
1.28885
1.28891
1.28896
1.28902
1.28907
1.28914
1.28921
1.28928
1.28936
1.28945
1.28954
1.28964
1.28975
1.28988
1.29001
1.29015
1.29031
1.29048
1.29067
1.29087
1.29109
1.29132
1.29157
1.29184
1.29213
1.29244
1.29277
1.29313
1.29351
1.29391
1.29433
1.29479
1.29527
1.29577
1.29631
1.29688
1.29748
1.29811
1.29878
1.29949
1.30023
1.30101
1.30184
1.30271
1.30363
1.3046
1.30564
1.30673
1.30789
1.30913
1.31046
1.31188
1.31342
1.31509
1.31692
1.31893
1.32117
1.3237
1.3266
1.32997
1.33401
1.339
1.3453
1.35343
1.36522
1.38613
1.41977
1.21644
1.21405
1.22149
1.22774
1.23162
1.23441
1.23643
1.23785
1.23888
1.23966
1.24027
1.24075
1.24114
1.24145
1.24171
1.24193
1.24211
1.24227
1.2424
1.24251
1.24261
1.24269
1.24276
1.24282
1.24287
1.24292
1.24296
1.24299
1.24301
1.24303
1.24305
1.24307
1.24308
1.24308
1.24309
1.2431
1.2431
1.2431
1.2431
1.24311
1.24311
1.24311
1.24312
1.24312
1.24313
1.24314
1.24315
1.24317
1.24319
1.24322
1.24324
1.24328
1.24331
1.24336
1.24341
1.24346
1.24353
1.2436
1.24367
1.24376
1.24385
1.24395
1.24406
1.24418
1.2443
1.24444
1.24458
1.24474
1.2449
1.24507
1.24526
1.24545
1.24565
1.24586
1.24608
1.24631
1.24654
1.24679
1.24704
1.2473
1.24757
1.24785
1.24814
1.24843
1.24873
1.24904
1.24935
1.24966
1.24998
1.25031
1.25064
1.25097
1.2513
1.25164
1.25198
1.25231
1.25265
1.25298
1.25332
1.25365
1.25397
1.25429
1.25461
1.25492
1.25522
1.25552
1.25581
1.25609
1.25636
1.25662
1.25687
1.25711
1.25734
1.25756
1.25777
1.25796
1.25815
1.25832
1.25847
1.25862
1.25875
1.25888
1.25899
1.25909
1.25918
1.25926
1.25932
1.25939
1.25944
1.25948
1.25952
1.25955
1.25957
1.25959
1.2596
1.25961
1.25961
1.25962
1.25961
1.25961
1.2596
1.25959
1.25958
1.25957
1.25955
1.25954
1.25952
1.25951
1.25949
1.25948
1.25947
1.25945
1.25944
1.25943
1.25942
1.25941
1.25941
1.2594
1.2594
1.2594
1.25939
1.2594
1.2594
1.2594
1.25941
1.25942
1.25943
1.25944
1.25946
1.25947
1.25949
1.25951
1.25953
1.25956
1.25958
1.25961
1.25963
1.25966
1.25969
1.25973
1.25976
1.25979
1.25983
1.25986
1.2599
1.25994
1.25998
1.26002
1.26006
1.2601
1.26014
1.26018
1.26022
1.26027
1.26031
1.26035
1.2604
1.26044
1.26049
1.26053
1.26058
1.26063
1.26067
1.26072
1.26077
1.26082
1.26087
1.26092
1.26097
1.26103
1.26108
1.26114
1.2612
1.26126
1.26132
1.26138
1.26145
1.26152
1.26159
1.26167
1.26175
1.26183
1.26191
1.262
1.2621
1.2622
1.2623
1.26241
1.26252
1.26264
1.26277
1.2629
1.26304
1.26319
1.26334
1.2635
1.26367
1.26384
1.26403
1.26422
1.26442
1.26463
1.26485
1.26508
1.26532
1.26556
1.26582
1.26609
1.26637
1.26665
1.26695
1.26726
1.26757
1.2679
1.26824
1.26859
1.26894
1.26931
1.26968
1.27007
1.27046
1.27086
1.27127
1.27168
1.2721
1.27253
1.27297
1.2734
1.27385
1.27429
1.27474
1.27519
1.27564
1.27609
1.27653
1.27698
1.27742
1.27786
1.27829
1.27872
1.27914
1.27955
1.27996
1.28035
1.28074
1.28112
1.28148
1.28184
1.28218
1.28251
1.28283
1.28314
1.28344
1.28373
1.284
1.28427
1.28452
1.28476
1.28499
1.28521
1.28543
1.28563
1.28582
1.28601
1.28618
1.28635
1.28651
1.28667
1.28681
1.28695
1.28708
1.28721
1.28733
1.28744
1.28755
1.28765
1.28775
1.28784
1.28793
1.28801
1.28809
1.28816
1.28823
1.2883
1.28836
1.28842
1.28848
1.28853
1.28859
1.28864
1.28869
1.28874
1.28879
1.28884
1.28889
1.28895
1.289
1.28907
1.28913
1.2892
1.28927
1.28935
1.28944
1.28954
1.28964
1.28975
1.28988
1.29001
1.29016
1.29032
1.29049
1.29068
1.29088
1.2911
1.29133
1.29159
1.29186
1.29215
1.29246
1.2928
1.29316
1.29354
1.29394
1.29437
1.29482
1.29531
1.29582
1.29636
1.29693
1.29754
1.29817
1.29884
1.29955
1.3003
1.30109
1.30192
1.30279
1.30372
1.3047
1.30573
1.30683
1.308
1.30925
1.31058
1.31202
1.31356
1.31525
1.31709
1.31911
1.32137
1.32392
1.32683
1.33021
1.3342
1.33902
1.34506
1.35289
1.36267
1.37329
1.38385
1.22441
1.22339
1.22569
1.22844
1.23151
1.23399
1.2358
1.23717
1.23823
1.23907
1.23973
1.24027
1.2407
1.24106
1.24135
1.2416
1.24182
1.242
1.24215
1.24228
1.2424
1.24249
1.24258
1.24265
1.24271
1.24277
1.24281
1.24285
1.24289
1.24291
1.24294
1.24296
1.24297
1.24299
1.243
1.24301
1.24301
1.24302
1.24303
1.24303
1.24304
1.24304
1.24305
1.24306
1.24307
1.24308
1.2431
1.24312
1.24314
1.24316
1.24319
1.24323
1.24327
1.24331
1.24336
1.24342
1.24349
1.24356
1.24363
1.24372
1.24381
1.24392
1.24403
1.24415
1.24428
1.24441
1.24456
1.24472
1.24488
1.24505
1.24524
1.24543
1.24563
1.24585
1.24607
1.2463
1.24653
1.24678
1.24704
1.2473
1.24757
1.24785
1.24814
1.24843
1.24873
1.24904
1.24935
1.24967
1.24999
1.25032
1.25065
1.25098
1.25131
1.25165
1.25199
1.25233
1.25266
1.253
1.25333
1.25366
1.25399
1.25431
1.25462
1.25493
1.25524
1.25553
1.25582
1.2561
1.25637
1.25663
1.25688
1.25712
1.25735
1.25757
1.25777
1.25797
1.25815
1.25832
1.25847
1.25862
1.25875
1.25887
1.25898
1.25908
1.25917
1.25924
1.25931
1.25937
1.25942
1.25947
1.2595
1.25953
1.25955
1.25957
1.25958
1.25959
1.25959
1.2596
1.25959
1.25959
1.25958
1.25957
1.25956
1.25955
1.25953
1.25952
1.25951
1.25949
1.25948
1.25947
1.25945
1.25944
1.25943
1.25942
1.25941
1.2594
1.2594
1.25939
1.25939
1.25939
1.25939
1.25939
1.25939
1.2594
1.25941
1.25942
1.25943
1.25944
1.25945
1.25947
1.25949
1.25951
1.25953
1.25955
1.25958
1.25961
1.25963
1.25966
1.25969
1.25973
1.25976
1.25979
1.25983
1.25987
1.2599
1.25994
1.25998
1.26002
1.26006
1.2601
1.26014
1.26018
1.26023
1.26027
1.26031
1.26036
1.2604
1.26045
1.26049
1.26054
1.26058
1.26063
1.26068
1.26072
1.26077
1.26082
1.26087
1.26092
1.26098
1.26103
1.26108
1.26114
1.2612
1.26126
1.26132
1.26139
1.26145
1.26152
1.26159
1.26167
1.26175
1.26183
1.26192
1.26201
1.2621
1.2622
1.2623
1.26241
1.26253
1.26265
1.26277
1.26291
1.26305
1.26319
1.26335
1.26351
1.26368
1.26385
1.26404
1.26423
1.26443
1.26464
1.26486
1.26509
1.26533
1.26558
1.26583
1.2661
1.26638
1.26667
1.26697
1.26727
1.26759
1.26792
1.26826
1.26861
1.26896
1.26933
1.2697
1.27009
1.27048
1.27088
1.27129
1.27171
1.27213
1.27256
1.27299
1.27343
1.27387
1.27432
1.27477
1.27522
1.27567
1.27612
1.27656
1.27701
1.27745
1.27789
1.27832
1.27875
1.27917
1.27958
1.27998
1.28038
1.28076
1.28114
1.2815
1.28185
1.2822
1.28253
1.28285
1.28315
1.28345
1.28373
1.28401
1.28427
1.28452
1.28476
1.28499
1.28521
1.28542
1.28562
1.28582
1.286
1.28617
1.28634
1.2865
1.28665
1.2868
1.28694
1.28707
1.2872
1.28732
1.28743
1.28754
1.28764
1.28774
1.28783
1.28792
1.288
1.28808
1.28815
1.28822
1.28829
1.28835
1.28841
1.28846
1.28852
1.28857
1.28862
1.28867
1.28872
1.28878
1.28883
1.28888
1.28893
1.28899
1.28905
1.28912
1.28918
1.28926
1.28934
1.28943
1.28952
1.28963
1.28974
1.28987
1.29
1.29015
1.29031
1.29048
1.29067
1.29087
1.29109
1.29133
1.29159
1.29186
1.29215
1.29247
1.2928
1.29316
1.29354
1.29395
1.29438
1.29484
1.29532
1.29584
1.29638
1.29695
1.29756
1.2982
1.29887
1.29958
1.30033
1.30112
1.30195
1.30283
1.30375
1.30473
1.30577
1.30687
1.30804
1.30928
1.31061
1.31204
1.31358
1.31525
1.31708
1.31908
1.32131
1.3238
1.32662
1.32986
1.33362
1.33802
1.34319
1.34918
1.35588
1.36132
1.36154
1.22884
1.22838
1.22895
1.23049
1.23242
1.23414
1.23563
1.23687
1.23787
1.23868
1.23935
1.23989
1.24035
1.24073
1.24105
1.24132
1.24155
1.24175
1.24192
1.24207
1.2422
1.24231
1.24241
1.24249
1.24256
1.24262
1.24268
1.24272
1.24276
1.2428
1.24283
1.24285
1.24287
1.24289
1.24291
1.24292
1.24293
1.24294
1.24295
1.24296
1.24296
1.24297
1.24298
1.24299
1.243
1.24302
1.24304
1.24306
1.24308
1.24311
1.24314
1.24317
1.24322
1.24326
1.24331
1.24337
1.24344
1.24351
1.24359
1.24368
1.24377
1.24388
1.24399
1.24411
1.24424
1.24438
1.24453
1.24468
1.24485
1.24503
1.24521
1.24541
1.24561
1.24582
1.24604
1.24627
1.24651
1.24676
1.24702
1.24728
1.24756
1.24784
1.24813
1.24842
1.24872
1.24903
1.24934
1.24966
1.24999
1.25032
1.25065
1.25098
1.25132
1.25166
1.252
1.25234
1.25267
1.25301
1.25334
1.25367
1.254
1.25432
1.25464
1.25495
1.25525
1.25555
1.25584
1.25612
1.25639
1.25665
1.2569
1.25714
1.25737
1.25758
1.25779
1.25798
1.25816
1.25832
1.25848
1.25862
1.25875
1.25887
1.25898
1.25908
1.25916
1.25924
1.2593
1.25936
1.25941
1.25945
1.25949
1.25952
1.25954
1.25956
1.25957
1.25958
1.25958
1.25958
1.25958
1.25957
1.25956
1.25955
1.25954
1.25953
1.25952
1.25951
1.25949
1.25948
1.25946
1.25945
1.25944
1.25943
1.25942
1.25941
1.2594
1.25939
1.25939
1.25938
1.25938
1.25938
1.25938
1.25938
1.25939
1.25939
1.2594
1.25941
1.25942
1.25944
1.25945
1.25947
1.25949
1.25951
1.25953
1.25955
1.25958
1.25961
1.25963
1.25966
1.2597
1.25973
1.25976
1.2598
1.25983
1.25987
1.2599
1.25994
1.25998
1.26002
1.26006
1.2601
1.26014
1.26019
1.26023
1.26027
1.26031
1.26036
1.2604
1.26045
1.26049
1.26054
1.26058
1.26063
1.26068
1.26073
1.26077
1.26082
1.26087
1.26092
1.26098
1.26103
1.26109
1.26114
1.2612
1.26126
1.26132
1.26139
1.26145
1.26152
1.26159
1.26167
1.26175
1.26183
1.26192
1.26201
1.2621
1.2622
1.2623
1.26241
1.26253
1.26265
1.26278
1.26291
1.26305
1.26319
1.26335
1.26351
1.26368
1.26385
1.26404
1.26423
1.26443
1.26465
1.26487
1.26509
1.26533
1.26558
1.26584
1.26611
1.26639
1.26668
1.26697
1.26728
1.2676
1.26793
1.26827
1.26862
1.26897
1.26934
1.26972
1.2701
1.2705
1.2709
1.27131
1.27173
1.27215
1.27258
1.27302
1.27346
1.2739
1.27435
1.27479
1.27524
1.27569
1.27614
1.27659
1.27704
1.27748
1.27792
1.27835
1.27878
1.2792
1.27961
1.28001
1.28041
1.28079
1.28116
1.28153
1.28188
1.28222
1.28255
1.28286
1.28317
1.28346
1.28375
1.28402
1.28428
1.28453
1.28476
1.28499
1.28521
1.28542
1.28562
1.28581
1.286
1.28617
1.28634
1.2865
1.28665
1.28679
1.28693
1.28706
1.28719
1.28731
1.28742
1.28753
1.28763
1.28773
1.28782
1.2879
1.28799
1.28806
1.28814
1.28821
1.28827
1.28834
1.28839
1.28845
1.28851
1.28856
1.28861
1.28866
1.28871
1.28876
1.28881
1.28886
1.28892
1.28897
1.28903
1.2891
1.28917
1.28924
1.28932
1.28941
1.2895
1.28961
1.28972
1.28985
1.28998
1.29013
1.29029
1.29046
1.29065
1.29085
1.29107
1.29131
1.29157
1.29184
1.29213
1.29245
1.29279
1.29314
1.29353
1.29393
1.29437
1.29482
1.29531
1.29582
1.29637
1.29694
1.29755
1.29819
1.29886
1.29957
1.30032
1.30111
1.30194
1.30281
1.30374
1.30471
1.30574
1.30683
1.30799
1.30923
1.31054
1.31195
1.31347
1.31511
1.31689
1.31884
1.32098
1.32336
1.32602
1.329
1.33237
1.33616
1.34033
1.34462
1.34848
1.35116
1.35044
1.23197
1.23143
1.23155
1.23239
1.2335
1.2347
1.23585
1.23686
1.23774
1.23848
1.23911
1.23964
1.24009
1.24047
1.2408
1.24108
1.24133
1.24154
1.24172
1.24188
1.24202
1.24214
1.24224
1.24234
1.24242
1.24249
1.24255
1.2426
1.24265
1.24269
1.24272
1.24275
1.24277
1.2428
1.24281
1.24283
1.24284
1.24286
1.24287
1.24288
1.24289
1.2429
1.24291
1.24292
1.24294
1.24295
1.24297
1.24299
1.24302
1.24305
1.24308
1.24312
1.24316
1.24321
1.24326
1.24332
1.24339
1.24346
1.24354
1.24363
1.24372
1.24383
1.24394
1.24406
1.2442
1.24434
1.24448
1.24464
1.24481
1.24499
1.24517
1.24537
1.24557
1.24579
1.24601
1.24625
1.24649
1.24674
1.24699
1.24726
1.24754
1.24782
1.24811
1.2484
1.24871
1.24902
1.24933
1.24965
1.24998
1.25031
1.25064
1.25098
1.25132
1.25166
1.252
1.25234
1.25268
1.25302
1.25335
1.25369
1.25401
1.25434
1.25465
1.25497
1.25527
1.25557
1.25586
1.25614
1.25641
1.25667
1.25692
1.25716
1.25739
1.2576
1.2578
1.258
1.25817
1.25834
1.25849
1.25863
1.25876
1.25888
1.25899
1.25908
1.25916
1.25924
1.2593
1.25936
1.25941
1.25945
1.25948
1.25951
1.25953
1.25954
1.25955
1.25956
1.25956
1.25956
1.25956
1.25956
1.25955
1.25954
1.25953
1.25952
1.2595
1.25949
1.25948
1.25946
1.25945
1.25944
1.25943
1.25942
1.25941
1.2594
1.25939
1.25938
1.25938
1.25938
1.25937
1.25937
1.25937
1.25938
1.25938
1.25939
1.2594
1.25941
1.25942
1.25944
1.25945
1.25947
1.25949
1.25951
1.25953
1.25956
1.25958
1.25961
1.25964
1.25967
1.2597
1.25973
1.25976
1.2598
1.25983
1.25987
1.25991
1.25995
1.25999
1.26003
1.26007
1.26011
1.26015
1.26019
1.26023
1.26028
1.26032
1.26036
1.26041
1.26045
1.2605
1.26054
1.26059
1.26063
1.26068
1.26073
1.26078
1.26083
1.26088
1.26093
1.26098
1.26103
1.26109
1.26114
1.2612
1.26126
1.26132
1.26139
1.26145
1.26152
1.26159
1.26167
1.26175
1.26183
1.26192
1.26201
1.2621
1.2622
1.2623
1.26241
1.26253
1.26265
1.26277
1.26291
1.26305
1.26319
1.26335
1.26351
1.26368
1.26385
1.26404
1.26423
1.26443
1.26464
1.26486
1.26509
1.26533
1.26558
1.26584
1.26611
1.26639
1.26668
1.26697
1.26728
1.2676
1.26793
1.26827
1.26862
1.26898
1.26935
1.26973
1.27011
1.27051
1.27091
1.27132
1.27174
1.27217
1.2726
1.27303
1.27348
1.27392
1.27437
1.27482
1.27527
1.27572
1.27617
1.27662
1.27707
1.27751
1.27795
1.27839
1.27881
1.27923
1.27965
1.28005
1.28044
1.28083
1.2812
1.28156
1.28191
1.28225
1.28258
1.28289
1.28319
1.28349
1.28377
1.28403
1.28429
1.28454
1.28478
1.285
1.28522
1.28543
1.28563
1.28581
1.286
1.28617
1.28633
1.28649
1.28664
1.28679
1.28692
1.28706
1.28718
1.2873
1.28741
1.28752
1.28762
1.28772
1.28781
1.2879
1.28798
1.28805
1.28813
1.2882
1.28826
1.28832
1.28838
1.28844
1.28849
1.28854
1.28859
1.28864
1.28869
1.28874
1.28879
1.28884
1.2889
1.28895
1.28901
1.28907
1.28914
1.28921
1.28929
1.28938
1.28948
1.28958
1.28969
1.28982
1.28995
1.2901
1.29026
1.29043
1.29062
1.29082
1.29104
1.29128
1.29153
1.2918
1.2921
1.29241
1.29275
1.29311
1.29349
1.2939
1.29433
1.29478
1.29527
1.29578
1.29633
1.2969
1.2975
1.29814
1.29881
1.29952
1.30027
1.30105
1.30188
1.30275
1.30366
1.30463
1.30565
1.30673
1.30788
1.30909
1.31038
1.31176
1.31324
1.31483
1.31654
1.3184
1.32043
1.32265
1.32509
1.32777
1.33068
1.33378
1.33697
1.33998
1.3423
1.3435
1.34322
1.23411
1.23353
1.23351
1.23393
1.2346
1.23542
1.23626
1.23705
1.23778
1.23843
1.239
1.23949
1.23992
1.24029
1.24062
1.2409
1.24114
1.24136
1.24155
1.24171
1.24186
1.24199
1.2421
1.2422
1.24228
1.24236
1.24243
1.24248
1.24253
1.24258
1.24262
1.24265
1.24268
1.2427
1.24273
1.24274
1.24276
1.24278
1.24279
1.2428
1.24281
1.24283
1.24284
1.24285
1.24287
1.24289
1.24291
1.24293
1.24295
1.24298
1.24302
1.24306
1.2431
1.24315
1.2432
1.24326
1.24333
1.2434
1.24348
1.24357
1.24367
1.24378
1.24389
1.24401
1.24414
1.24429
1.24443
1.24459
1.24476
1.24494
1.24513
1.24533
1.24553
1.24575
1.24597
1.24621
1.24645
1.2467
1.24696
1.24723
1.2475
1.24779
1.24808
1.24838
1.24868
1.249
1.24931
1.24964
1.24997
1.2503
1.25063
1.25097
1.25131
1.25166
1.252
1.25234
1.25268
1.25303
1.25336
1.2537
1.25403
1.25435
1.25467
1.25498
1.25529
1.25559
1.25588
1.25616
1.25643
1.25669
1.25694
1.25718
1.25741
1.25763
1.25783
1.25802
1.2582
1.25836
1.25851
1.25865
1.25878
1.2589
1.259
1.25909
1.25917
1.25925
1.25931
1.25936
1.25941
1.25945
1.25948
1.2595
1.25952
1.25954
1.25955
1.25955
1.25955
1.25955
1.25955
1.25954
1.25953
1.25953
1.25951
1.2595
1.25949
1.25948
1.25946
1.25945
1.25944
1.25943
1.25942
1.25941
1.2594
1.25939
1.25938
1.25938
1.25937
1.25937
1.25937
1.25937
1.25937
1.25937
1.25938
1.25939
1.2594
1.25941
1.25942
1.25943
1.25945
1.25947
1.25949
1.25951
1.25953
1.25956
1.25958
1.25961
1.25964
1.25967
1.2597
1.25974
1.25977
1.2598
1.25984
1.25988
1.25991
1.25995
1.25999
1.26003
1.26007
1.26011
1.26015
1.2602
1.26024
1.26028
1.26032
1.26037
1.26041
1.26046
1.2605
1.26055
1.26059
1.26064
1.26068
1.26073
1.26078
1.26083
1.26088
1.26093
1.26098
1.26103
1.26109
1.26114
1.2612
1.26126
1.26132
1.26139
1.26145
1.26152
1.26159
1.26167
1.26175
1.26183
1.26191
1.262
1.2621
1.2622
1.2623
1.26241
1.26252
1.26264
1.26277
1.2629
1.26304
1.26319
1.26334
1.2635
1.26367
1.26384
1.26403
1.26422
1.26442
1.26463
1.26485
1.26508
1.26532
1.26557
1.26583
1.2661
1.26638
1.26667
1.26697
1.26728
1.2676
1.26793
1.26827
1.26862
1.26898
1.26935
1.26972
1.27011
1.27051
1.27091
1.27133
1.27175
1.27217
1.27261
1.27305
1.27349
1.27394
1.27439
1.27484
1.27529
1.27575
1.2762
1.27665
1.2771
1.27755
1.27799
1.27842
1.27885
1.27927
1.27969
1.28009
1.28048
1.28087
1.28124
1.2816
1.28195
1.28228
1.28261
1.28292
1.28322
1.28351
1.28379
1.28406
1.28431
1.28456
1.28479
1.28502
1.28523
1.28544
1.28563
1.28582
1.286
1.28617
1.28634
1.28649
1.28664
1.28679
1.28692
1.28705
1.28718
1.28729
1.28741
1.28751
1.28762
1.28771
1.2878
1.28789
1.28797
1.28805
1.28812
1.28819
1.28825
1.28831
1.28837
1.28843
1.28848
1.28853
1.28858
1.28863
1.28868
1.28872
1.28877
1.28882
1.28887
1.28893
1.28898
1.28905
1.28911
1.28918
1.28926
1.28935
1.28944
1.28954
1.28965
1.28978
1.28991
1.29005
1.29021
1.29038
1.29057
1.29077
1.29099
1.29123
1.29148
1.29175
1.29204
1.29236
1.29269
1.29305
1.29343
1.29383
1.29426
1.29472
1.2952
1.29572
1.29626
1.29683
1.29743
1.29806
1.29873
1.29943
1.30018
1.30095
1.30177
1.30263
1.30354
1.3045
1.3055
1.30656
1.30768
1.30887
1.31013
1.31147
1.31289
1.31442
1.31605
1.3178
1.31969
1.32173
1.32392
1.32626
1.32871
1.33121
1.3336
1.33568
1.33716
1.33774
1.33751
1.23559
1.23509
1.23498
1.23517
1.23558
1.23613
1.23674
1.23735
1.23794
1.23849
1.23898
1.23943
1.23982
1.24017
1.24048
1.24076
1.241
1.24122
1.2414
1.24157
1.24172
1.24185
1.24197
1.24207
1.24216
1.24224
1.24231
1.24237
1.24243
1.24248
1.24252
1.24255
1.24259
1.24261
1.24264
1.24266
1.24268
1.2427
1.24271
1.24273
1.24274
1.24275
1.24277
1.24278
1.2428
1.24282
1.24284
1.24286
1.24289
1.24292
1.24295
1.24299
1.24303
1.24308
1.24314
1.2432
1.24327
1.24334
1.24342
1.24351
1.24361
1.24372
1.24383
1.24395
1.24409
1.24423
1.24438
1.24454
1.24471
1.24489
1.24508
1.24528
1.24548
1.2457
1.24593
1.24616
1.24641
1.24666
1.24692
1.24719
1.24747
1.24775
1.24805
1.24835
1.24865
1.24897
1.24929
1.24961
1.24994
1.25028
1.25062
1.25096
1.25131
1.25165
1.252
1.25234
1.25269
1.25303
1.25337
1.25371
1.25404
1.25437
1.25469
1.255
1.25531
1.25561
1.2559
1.25619
1.25646
1.25672
1.25697
1.25721
1.25744
1.25766
1.25786
1.25805
1.25823
1.25839
1.25854
1.25868
1.2588
1.25892
1.25902
1.25911
1.25919
1.25926
1.25932
1.25937
1.25941
1.25945
1.25948
1.2595
1.25952
1.25953
1.25954
1.25954
1.25954
1.25954
1.25954
1.25953
1.25952
1.25951
1.2595
1.25949
1.25948
1.25946
1.25945
1.25944
1.25943
1.25942
1.25941
1.2594
1.25939
1.25938
1.25937
1.25937
1.25936
1.25936
1.25936
1.25936
1.25936
1.25937
1.25938
1.25938
1.25939
1.25941
1.25942
1.25943
1.25945
1.25947
1.25949
1.25951
1.25954
1.25956
1.25959
1.25962
1.25965
1.25968
1.25971
1.25974
1.25977
1.25981
1.25985
1.25988
1.25992
1.25996
1.26
1.26004
1.26008
1.26012
1.26016
1.2602
1.26025
1.26029
1.26033
1.26037
1.26042
1.26046
1.26051
1.26055
1.2606
1.26064
1.26069
1.26074
1.26078
1.26083
1.26088
1.26093
1.26098
1.26104
1.26109
1.26115
1.2612
1.26126
1.26132
1.26139
1.26145
1.26152
1.26159
1.26167
1.26174
1.26182
1.26191
1.262
1.26209
1.26219
1.26229
1.2624
1.26251
1.26263
1.26276
1.26289
1.26303
1.26318
1.26333
1.26349
1.26366
1.26383
1.26402
1.26421
1.26441
1.26462
1.26484
1.26507
1.26531
1.26556
1.26582
1.26609
1.26636
1.26665
1.26695
1.26726
1.26758
1.26791
1.26825
1.2686
1.26897
1.26934
1.26972
1.27011
1.2705
1.27091
1.27132
1.27175
1.27218
1.27261
1.27305
1.2735
1.27395
1.2744
1.27486
1.27531
1.27577
1.27623
1.27668
1.27713
1.27758
1.27803
1.27846
1.27889
1.27932
1.27973
1.28013
1.28053
1.28091
1.28128
1.28164
1.28199
1.28233
1.28265
1.28296
1.28326
1.28355
1.28382
1.28409
1.28434
1.28458
1.28482
1.28504
1.28525
1.28545
1.28565
1.28583
1.28601
1.28618
1.28634
1.2865
1.28665
1.28679
1.28692
1.28705
1.28718
1.28729
1.2874
1.28751
1.28761
1.28771
1.2878
1.28788
1.28796
1.28804
1.28811
1.28818
1.28824
1.2883
1.28836
1.28841
1.28847
1.28852
1.28856
1.28861
1.28866
1.2887
1.28875
1.2888
1.28885
1.2889
1.28896
1.28902
1.28908
1.28915
1.28923
1.28931
1.2894
1.2895
1.28961
1.28973
1.28986
1.29
1.29016
1.29033
1.29051
1.29071
1.29093
1.29116
1.29141
1.29168
1.29197
1.29228
1.29262
1.29297
1.29335
1.29375
1.29418
1.29463
1.29511
1.29562
1.29616
1.29673
1.29732
1.29795
1.29862
1.29931
1.30005
1.30082
1.30163
1.30248
1.30337
1.30431
1.30529
1.30633
1.30743
1.30858
1.3098
1.31108
1.31245
1.31389
1.31543
1.31707
1.31881
1.32065
1.32259
1.3246
1.32663
1.32861
1.33041
1.33186
1.33283
1.33315
1.33281
1.23668
1.23626
1.23611
1.23618
1.23642
1.23679
1.23723
1.2377
1.23817
1.23862
1.23905
1.23944
1.23979
1.24011
1.2404
1.24066
1.2409
1.2411
1.24129
1.24146
1.2416
1.24174
1.24185
1.24196
1.24205
1.24213
1.24221
1.24227
1.24233
1.24238
1.24242
1.24246
1.2425
1.24253
1.24255
1.24258
1.2426
1.24262
1.24263
1.24265
1.24267
1.24268
1.2427
1.24271
1.24273
1.24275
1.24277
1.2428
1.24282
1.24285
1.24289
1.24293
1.24297
1.24302
1.24307
1.24313
1.2432
1.24328
1.24336
1.24345
1.24355
1.24365
1.24377
1.24389
1.24402
1.24417
1.24432
1.24448
1.24465
1.24483
1.24502
1.24522
1.24543
1.24565
1.24587
1.24611
1.24636
1.24661
1.24687
1.24714
1.24742
1.24771
1.248
1.24831
1.24862
1.24893
1.24926
1.24958
1.24992
1.25026
1.2506
1.25094
1.25129
1.25164
1.25199
1.25234
1.25269
1.25303
1.25337
1.25371
1.25405
1.25438
1.2547
1.25502
1.25533
1.25564
1.25593
1.25621
1.25649
1.25675
1.25701
1.25725
1.25748
1.25769
1.25789
1.25808
1.25826
1.25842
1.25857
1.25871
1.25883
1.25894
1.25904
1.25913
1.2592
1.25927
1.25933
1.25938
1.25942
1.25945
1.25948
1.2595
1.25952
1.25953
1.25953
1.25954
1.25954
1.25953
1.25953
1.25952
1.25951
1.2595
1.25949
1.25948
1.25947
1.25945
1.25944
1.25943
1.25942
1.25941
1.2594
1.25939
1.25938
1.25937
1.25936
1.25936
1.25936
1.25936
1.25936
1.25936
1.25936
1.25937
1.25937
1.25938
1.25939
1.25941
1.25942
1.25944
1.25945
1.25947
1.25949
1.25952
1.25954
1.25957
1.25959
1.25962
1.25965
1.25968
1.25971
1.25975
1.25978
1.25982
1.25985
1.25989
1.25993
1.25997
1.26001
1.26005
1.26009
1.26013
1.26017
1.26021
1.26025
1.2603
1.26034
1.26038
1.26043
1.26047
1.26051
1.26056
1.2606
1.26065
1.2607
1.26074
1.26079
1.26084
1.26089
1.26094
1.26099
1.26104
1.26109
1.26115
1.2612
1.26126
1.26132
1.26138
1.26145
1.26152
1.26159
1.26166
1.26174
1.26182
1.2619
1.26199
1.26208
1.26218
1.26228
1.26239
1.2625
1.26262
1.26275
1.26288
1.26302
1.26316
1.26331
1.26347
1.26364
1.26381
1.264
1.26419
1.26439
1.2646
1.26482
1.26505
1.26529
1.26554
1.26579
1.26606
1.26634
1.26663
1.26693
1.26724
1.26756
1.26789
1.26823
1.26858
1.26895
1.26932
1.2697
1.27009
1.27049
1.2709
1.27131
1.27174
1.27217
1.27261
1.27305
1.2735
1.27395
1.27441
1.27487
1.27533
1.27579
1.27625
1.27671
1.27716
1.27762
1.27806
1.2785
1.27894
1.27936
1.27978
1.28018
1.28058
1.28096
1.28133
1.28169
1.28204
1.28238
1.2827
1.28301
1.2833
1.28359
1.28386
1.28412
1.28437
1.28461
1.28484
1.28506
1.28527
1.28547
1.28566
1.28585
1.28602
1.28619
1.28635
1.28651
1.28665
1.28679
1.28693
1.28705
1.28718
1.28729
1.2874
1.28751
1.28761
1.2877
1.28779
1.28788
1.28796
1.28804
1.28811
1.28817
1.28824
1.2883
1.28835
1.2884
1.28845
1.2885
1.28855
1.28859
1.28864
1.28868
1.28873
1.28877
1.28882
1.28887
1.28892
1.28898
1.28904
1.28911
1.28918
1.28927
1.28935
1.28945
1.28956
1.28967
1.2898
1.28994
1.2901
1.29026
1.29044
1.29064
1.29085
1.29109
1.29133
1.2916
1.29189
1.2922
1.29253
1.29288
1.29325
1.29365
1.29407
1.29452
1.295
1.2955
1.29604
1.2966
1.29719
1.29781
1.29847
1.29916
1.29988
1.30064
1.30144
1.30227
1.30315
1.30407
1.30503
1.30604
1.3071
1.30822
1.30939
1.31062
1.31192
1.31328
1.31472
1.31623
1.31781
1.31946
1.32115
1.32287
1.32455
1.32611
1.32747
1.32852
1.32915
1.32932
1.32895
1.2375
1.23716
1.23699
1.23699
1.23713
1.23738
1.2377
1.23805
1.23842
1.23879
1.23915
1.23949
1.2398
1.24009
1.24036
1.2406
1.24082
1.24102
1.2412
1.24136
1.24151
1.24164
1.24175
1.24186
1.24195
1.24204
1.24211
1.24218
1.24224
1.24229
1.24233
1.24238
1.24241
1.24244
1.24247
1.2425
1.24252
1.24254
1.24256
1.24258
1.24259
1.24261
1.24262
1.24264
1.24266
1.24268
1.2427
1.24273
1.24275
1.24278
1.24282
1.24286
1.2429
1.24295
1.243
1.24307
1.24313
1.24321
1.24329
1.24338
1.24348
1.24358
1.2437
1.24382
1.24396
1.2441
1.24425
1.24441
1.24458
1.24477
1.24496
1.24516
1.24537
1.24559
1.24582
1.24605
1.2463
1.24656
1.24682
1.24709
1.24737
1.24766
1.24796
1.24826
1.24857
1.24889
1.24922
1.24955
1.24989
1.25023
1.25057
1.25092
1.25127
1.25162
1.25198
1.25233
1.25268
1.25303
1.25338
1.25372
1.25406
1.25439
1.25472
1.25504
1.25535
1.25566
1.25596
1.25624
1.25652
1.25679
1.25704
1.25728
1.25751
1.25773
1.25793
1.25812
1.2583
1.25846
1.25861
1.25874
1.25886
1.25897
1.25907
1.25915
1.25923
1.25929
1.25934
1.25939
1.25943
1.25946
1.25948
1.2595
1.25952
1.25953
1.25953
1.25953
1.25953
1.25953
1.25952
1.25951
1.2595
1.25949
1.25948
1.25947
1.25945
1.25944
1.25943
1.25942
1.25941
1.2594
1.25939
1.25938
1.25937
1.25936
1.25936
1.25935
1.25935
1.25935
1.25935
1.25935
1.25936
1.25936
1.25937
1.25938
1.25939
1.25941
1.25942
1.25944
1.25946
1.25948
1.2595
1.25952
1.25955
1.25957
1.2596
1.25963
1.25966
1.25969
1.25972
1.25976
1.25979