# vtk DataFile Version 2.0
LBE mesh
ASCII
DATASET STRUCTURED_POINTS
DIMENSIONS 400 100 1
ASPECT_RATIO 1 1 1
ORIGIN 0 0 0
POINT_DATA 40000
SCALARS rho double 1
LOOKUP_TABLE default
1.15755
1.24546
1.27062
1.27514
1.27723
1.2792
1.28066
1.28161
1.28225
1.28271
1.28307
1.28336
1.28358
1.28376
1.2839
1.28402
1.28411
1.28419
1.28425
1.28429
1.28433
1.28435
1.28436
1.28437
1.28437
1.28436
1.28435
1.28433
1.28431
1.28428
1.28424
1.28421
1.28417
1.28413
1.28408
1.28403
1.28398
1.28393
1.28388
1.28383
1.28378
1.28372
1.28367
1.28362
1.28357
1.28352
1.28347
1.28343
1.28339
1.28335
1.28332
1.28328
1.28326
1.28324
1.28322
1.28321
1.28321
1.28321
1.28322
1.28324
1.28327
1.2833
1.28334
1.28339
1.28345
1.28352
1.2836
1.28368
1.28378
1.28388
1.284
1.28412
1.28426
1.2844
1.28455
1.28472
1.28489
1.28507
1.28526
1.28546
1.28567
1.28588
1.28611
1.28634
1.28657
1.28682
1.28707
1.28733
1.28759
1.28786
1.28813
1.28841
1.28869
1.28897
1.28926
1.28954
1.28983
1.29012
1.2904
1.29068
1.29096
1.29124
1.29151
1.29178
1.29205
1.29231
1.29256
1.2928
1.29304
1.29327
1.29349
1.2937
1.2939
1.29409
1.29427
1.29444
1.2946
1.29474
1.29488
1.295
1.29511
1.29521
1.2953
1.29538
1.29545
1.29551
1.29556
1.2956
1.29564
1.29566
1.29568
1.29569
1.2957
1.2957
1.2957
1.29569
1.29568
1.29567
1.29565
1.29563
1.29561
1.29558
1.29556
1.29553
1.2955
1.29547
1.29544
1.29541
1.29538
1.29535
1.29532
1.29529
1.29526
1.29523
1.2952
1.29517
1.29514
1.29511
1.29508
1.29505
1.29502
1.29499
1.29496
1.29492
1.29489
1.29486
1.29483
1.2948
1.29477
1.29474
1.29471
1.29468
1.29464
1.29461
1.29458
1.29455
1.29451
1.29448
1.29445
1.29441
1.29438
1.29435
1.29431
1.29428
1.29424
1.29421
1.29418
1.29414
1.29411
1.29408
1.29405
1.29402
1.29398
1.29395
1.29392
1.2939
1.29387
1.29384
1.29382
1.29379
1.29377
1.29375
1.29373
1.29372
1.2937
1.29369
1.29368
1.29367
1.29367
1.29367
1.29367
1.29367
1.29368
1.29369
1.2937
1.29372
1.29374
1.29376
1.29379
1.29382
1.29386
1.2939
1.29395
1.294
1.29406
1.29412
1.29419
1.29426
1.29434
1.29442
1.29451
1.29461
1.29471
1.29482
1.29494
1.29506
1.29519
1.29533
1.29548
1.29563
1.29579
1.29596
1.29613
1.29631
1.29651
1.2967
1.29691
1.29713
1.29735
1.29758
1.29782
1.29807
1.29833
1.29859
1.29887
1.29915
1.29944
1.29973
1.30004
1.30035
1.30066
1.30099
1.30131
1.30165
1.30199
1.30233
1.30268
1.30303
1.30339
1.30374
1.3041
1.30446
1.30482
1.30517
1.30553
1.30588
1.30623
1.30657
1.30691
1.30725
1.30758
1.3079
1.30821
1.30852
1.30881
1.3091
1.30938
1.30965
1.30991
1.31016
1.31039
1.31062
1.31084
1.31105
1.31125
1.31145
1.31163
1.3118
1.31197
1.31213
1.31228
1.31243
1.31257
1.3127
1.31283
1.31295
1.31307
1.31318
1.31329
1.31339
1.31349
1.31358
1.31367
1.31376
1.31384
1.31392
1.314
1.31408
1.31415
1.31421
1.31428
1.31434
1.3144
1.31446
1.31451
1.31456
1.31461
1.31466
1.31471
1.31476
1.3148
1.31485
1.31489
1.31494
1.31499
1.31504
1.31509
1.31514
1.3152
1.31527
1.31534
1.31541
1.31549
1.31558
1.31568
1.31578
1.3159
1.31602
1.31616
1.31631
1.31647
1.31665
1.31684
1.31705
1.31728
1.31752
1.31778
1.31806
1.31836
1.31868
1.31903
1.3194
1.31979
1.3202
1.32065
1.32112
1.32161
1.32214
1.3227
1.32329
1.32391
1.32457
1.32527
1.326
1.32678
1.32759
1.32846
1.32937
1.33034
1.33137
1.33246
1.33362
1.33486
1.33618
1.33761
1.33914
1.34081
1.34263
1.34463
1.34685
1.34934
1.35218
1.35547
1.35935
1.36409
1.3702
1.37872
1.39071
1.40823
1.44365
1.23646
1.24505
1.25771
1.26877
1.27443
1.27722
1.27893
1.28017
1.28109
1.28177
1.28228
1.28268
1.283
1.28325
1.28345
1.28362
1.28375
1.28386
1.28395
1.28403
1.28408
1.28412
1.28416
1.28418
1.28419
1.2842
1.28419
1.28418
1.28417
1.28415
1.28412
1.28409
1.28406
1.28402
1.28398
1.28394
1.2839
1.28385
1.2838
1.28375
1.2837
1.28366
1.28361
1.28356
1.28351
1.28347
1.28342
1.28338
1.28334
1.28331
1.28327
1.28325
1.28322
1.2832
1.28319
1.28319
1.28318
1.28319
1.2832
1.28322
1.28325
1.28329
1.28333
1.28338
1.28344
1.28351
1.28359
1.28368
1.28378
1.28389
1.284
1.28413
1.28427
1.28441
1.28457
1.28473
1.2849
1.28509
1.28528
1.28548
1.28568
1.2859
1.28612
1.28636
1.2866
1.28684
1.28709
1.28735
1.28762
1.28788
1.28816
1.28843
1.28871
1.289
1.28928
1.28956
1.28985
1.29013
1.29042
1.2907
1.29098
1.29125
1.29153
1.29179
1.29206
1.29231
1.29256
1.29281
1.29304
1.29327
1.29348
1.29369
1.29389
1.29408
1.29426
1.29442
1.29458
1.29472
1.29486
1.29498
1.29509
1.29519
1.29528
1.29536
1.29542
1.29548
1.29553
1.29557
1.29561
1.29563
1.29565
1.29566
1.29567
1.29567
1.29567
1.29566
1.29565
1.29564
1.29562
1.2956
1.29558
1.29556
1.29553
1.29551
1.29548
1.29545
1.29542
1.29539
1.29536
1.29533
1.2953
1.29527
1.29524
1.29521
1.29518
1.29515
1.29512
1.29509
1.29506
1.29503
1.295
1.29497
1.29494
1.29491
1.29488
1.29485
1.29482
1.29479
1.29476
1.29473
1.2947
1.29467
1.29463
1.2946
1.29457
1.29454
1.2945
1.29447
1.29444
1.2944
1.29437
1.29434
1.2943
1.29427
1.29424
1.2942
1.29417
1.29414
1.2941
1.29407
1.29404
1.29401
1.29398
1.29395
1.29392
1.29389
1.29386
1.29384
1.29381
1.29379
1.29377
1.29375
1.29373
1.29371
1.2937
1.29369
1.29368
1.29367
1.29367
1.29366
1.29366
1.29367
1.29368
1.29369
1.2937
1.29372
1.29374
1.29376
1.29379
1.29383
1.29387
1.29391
1.29396
1.29401
1.29407
1.29413
1.2942
1.29427
1.29435
1.29443
1.29453
1.29462
1.29473
1.29484
1.29496
1.29508
1.29521
1.29535
1.29549
1.29565
1.29581
1.29598
1.29615
1.29634
1.29653
1.29673
1.29694
1.29715
1.29738
1.29761
1.29785
1.2981
1.29836
1.29863
1.2989
1.29918
1.29947
1.29977
1.30007
1.30038
1.3007
1.30102
1.30135
1.30168
1.30202
1.30237
1.30271
1.30307
1.30342
1.30377
1.30413
1.30449
1.30484
1.3052
1.30555
1.3059
1.30625
1.3066
1.30693
1.30727
1.30759
1.30791
1.30822
1.30853
1.30882
1.30911
1.30938
1.30965
1.30991
1.31015
1.31039
1.31062
1.31084
1.31105
1.31125
1.31144
1.31162
1.31179
1.31196
1.31212
1.31227
1.31241
1.31255
1.31268
1.31281
1.31293
1.31305
1.31316
1.31327
1.31337
1.31347
1.31357
1.31366
1.31374
1.31383
1.31391
1.31399
1.31406
1.31413
1.3142
1.31426
1.31432
1.31438
1.31444
1.3145
1.31455
1.3146
1.31465
1.3147
1.31474
1.31479
1.31483
1.31488
1.31493
1.31498
1.31503
1.31508
1.31514
1.3152
1.31526
1.31533
1.31541
1.31549
1.31558
1.31568
1.31579
1.3159
1.31603
1.31617
1.31633
1.31649
1.31667
1.31687
1.31708
1.31731
1.31755
1.31781
1.3181
1.3184
1.31873
1.31908
1.31945
1.31984
1.32026
1.32071
1.32118
1.32168
1.32222
1.32278
1.32337
1.324
1.32467
1.32537
1.32611
1.32689
1.32772
1.32859
1.32952
1.33049
1.33153
1.33264
1.33381
1.33507
1.33641
1.33786
1.33943
1.34113
1.34299
1.34505
1.34735
1.34994
1.3529
1.35636
1.3605
1.36562
1.37207
1.38046
1.39273
1.41421
1.44818
1.2573
1.25403
1.26186
1.26848
1.27255
1.27547
1.27759
1.27908
1.28015
1.28096
1.28158
1.28207
1.28246
1.28278
1.28303
1.28324
1.28342
1.28356
1.28367
1.28377
1.28385
1.28391
1.28396
1.28399
1.28402
1.28403
1.28404
1.28404
1.28403
1.28402
1.284
1.28398
1.28395
1.28392
1.28388
1.28385
1.28381
1.28377
1.28372
1.28368
1.28363
1.28359
1.28354
1.28349
1.28345
1.28341
1.28336
1.28333
1.28329
1.28326
1.28323
1.2832
1.28318
1.28317
1.28315
1.28315
1.28315
1.28316
1.28317
1.2832
1.28323
1.28326
1.28331
1.28336
1.28343
1.2835
1.28358
1.28367
1.28377
1.28388
1.284
1.28413
1.28426
1.28441
1.28457
1.28473
1.28491
1.28509
1.28528
1.28548
1.28569
1.28591
1.28614
1.28637
1.28661
1.28686
1.28711
1.28737
1.28763
1.2879
1.28817
1.28845
1.28873
1.28901
1.2893
1.28958
1.28987
1.29015
1.29043
1.29072
1.29099
1.29127
1.29154
1.29181
1.29207
1.29232
1.29257
1.29281
1.29305
1.29327
1.29349
1.2937
1.29389
1.29408
1.29426
1.29442
1.29457
1.29472
1.29485
1.29497
1.29508
1.29517
1.29526
1.29534
1.2954
1.29546
1.29551
1.29555
1.29558
1.29561
1.29563
1.29564
1.29565
1.29565
1.29564
1.29564
1.29563
1.29561
1.2956
1.29558
1.29556
1.29553
1.29551
1.29548
1.29546
1.29543
1.2954
1.29537
1.29534
1.29531
1.29528
1.29525
1.29522
1.2952
1.29516
1.29514
1.29511
1.29508
1.29505
1.29502
1.29499
1.29496
1.29493
1.2949
1.29487
1.29484
1.29481
1.29478
1.29475
1.29471
1.29468
1.29465
1.29462
1.29459
1.29456
1.29452
1.29449
1.29446
1.29442
1.29439
1.29436
1.29433
1.29429
1.29426
1.29422
1.29419
1.29416
1.29413
1.29409
1.29406
1.29403
1.294
1.29397
1.29394
1.29391
1.29388
1.29385
1.29383
1.2938
1.29378
1.29376
1.29374
1.29372
1.29371
1.29369
1.29368
1.29367
1.29366
1.29366
1.29366
1.29366
1.29366
1.29367
1.29368
1.2937
1.29371
1.29374
1.29376
1.29379
1.29383
1.29386
1.29391
1.29396
1.29401
1.29407
1.29413
1.2942
1.29427
1.29435
1.29444
1.29453
1.29463
1.29473
1.29484
1.29496
1.29509
1.29522
1.29536
1.2955
1.29566
1.29582
1.29599
1.29617
1.29635
1.29654
1.29674
1.29695
1.29717
1.2974
1.29763
1.29787
1.29812
1.29838
1.29865
1.29892
1.2992
1.29949
1.29979
1.30009
1.30041
1.30072
1.30105
1.30138
1.30171
1.30205
1.3024
1.30274
1.30309
1.30345
1.3038
1.30416
1.30452
1.30487
1.30523
1.30558
1.30593
1.30628
1.30662
1.30696
1.30729
1.30761
1.30793
1.30824
1.30854
1.30884
1.30912
1.30939
1.30966
1.30991
1.31016
1.3104
1.31062
1.31084
1.31105
1.31124
1.31143
1.31161
1.31179
1.31195
1.31211
1.31226
1.3124
1.31254
1.31267
1.3128
1.31292
1.31304
1.31315
1.31326
1.31336
1.31346
1.31355
1.31364
1.31373
1.31381
1.31389
1.31397
1.31404
1.31412
1.31418
1.31425
1.31431
1.31437
1.31443
1.31448
1.31453
1.31458
1.31463
1.31468
1.31473
1.31477
1.31482
1.31486
1.31491
1.31496
1.31501
1.31507
1.31512
1.31518
1.31525
1.31532
1.3154
1.31548
1.31557
1.31567
1.31578
1.3159
1.31603
1.31617
1.31632
1.31649
1.31667
1.31687
1.31708
1.31731
1.31756
1.31783
1.31811
1.31842
1.31875
1.3191
1.31947
1.31987
1.32029
1.32074
1.32122
1.32173
1.32226
1.32283
1.32343
1.32406
1.32473
1.32543
1.32618
1.32696
1.32779
1.32867
1.3296
1.33058
1.33163
1.33274
1.33392
1.33518
1.33654
1.33799
1.33957
1.34129
1.34316
1.34524
1.34755
1.35016
1.35314
1.3566
1.36069
1.36563
1.37183
1.37985
1.38992
1.40086
1.41121
1.26517
1.26404
1.2664
1.26921
1.27243
1.27504
1.27693
1.27836
1.27947
1.28033
1.28102
1.28156
1.282
1.28236
1.28266
1.2829
1.2831
1.28327
1.28341
1.28353
1.28362
1.2837
1.28376
1.28381
1.28385
1.28388
1.28389
1.2839
1.2839
1.2839
1.28388
1.28387
1.28384
1.28382
1.28379
1.28376
1.28372
1.28368
1.28364
1.2836
1.28356
1.28351
1.28347
1.28343
1.28338
1.28334
1.28331
1.28327
1.28323
1.2832
1.28318
1.28315
1.28313
1.28312
1.28311
1.28311
1.28311
1.28312
1.28314
1.28316
1.28319
1.28323
1.28328
1.28334
1.2834
1.28347
1.28356
1.28365
1.28375
1.28386
1.28398
1.28411
1.28425
1.2844
1.28456
1.28473
1.2849
1.28509
1.28528
1.28548
1.28569
1.28591
1.28614
1.28637
1.28662
1.28686
1.28712
1.28738
1.28764
1.28791
1.28819
1.28847
1.28875
1.28903
1.28931
1.2896
1.28988
1.29017
1.29045
1.29073
1.29101
1.29129
1.29156
1.29183
1.29209
1.29234
1.29259
1.29283
1.29306
1.29329
1.2935
1.29371
1.2939
1.29409
1.29426
1.29443
1.29458
1.29472
1.29485
1.29497
1.29507
1.29517
1.29525
1.29533
1.29539
1.29545
1.2955
1.29553
1.29556
1.29559
1.29561
1.29562
1.29562
1.29562
1.29562
1.29561
1.2956
1.29559
1.29557
1.29555
1.29553
1.29551
1.29548
1.29546
1.29543
1.2954
1.29538
1.29535
1.29532
1.29529
1.29526
1.29523
1.2952
1.29517
1.29514
1.29512
1.29509
1.29506
1.29503
1.295
1.29497
1.29494
1.29491
1.29488
1.29485
1.29482
1.29479
1.29476
1.29473
1.2947
1.29467
1.29464
1.2946
1.29457
1.29454
1.29451
1.29448
1.29444
1.29441
1.29438
1.29434
1.29431
1.29428
1.29424
1.29421
1.29418
1.29414
1.29411
1.29408
1.29405
1.29402
1.29398
1.29395
1.29392
1.2939
1.29387
1.29384
1.29382
1.29379
1.29377
1.29375
1.29373
1.29371
1.2937
1.29368
1.29367
1.29366
1.29365
1.29365
1.29365
1.29365
1.29365
1.29366
1.29367
1.29369
1.29371
1.29373
1.29375
1.29378
1.29382
1.29386
1.2939
1.29395
1.294
1.29406
1.29412
1.29419
1.29427
1.29435
1.29443
1.29453
1.29463
1.29473
1.29484
1.29496
1.29509
1.29522
1.29536
1.2955
1.29566
1.29582
1.29599
1.29617
1.29635
1.29655
1.29675
1.29696
1.29718
1.2974
1.29764
1.29788
1.29813
1.29839
1.29866
1.29893
1.29922
1.29951
1.29981
1.30011
1.30042
1.30074
1.30107
1.3014
1.30173
1.30207
1.30242
1.30277
1.30312
1.30347
1.30383
1.30419
1.30454
1.3049
1.30526
1.30561
1.30596
1.30631
1.30665
1.30699
1.30732
1.30764
1.30796
1.30827
1.30857
1.30886
1.30914
1.30941
1.30968
1.30993
1.31017
1.31041
1.31063
1.31085
1.31105
1.31125
1.31144
1.31162
1.31179
1.31195
1.31211
1.31226
1.3124
1.31254
1.31267
1.31279
1.31291
1.31303
1.31314
1.31325
1.31335
1.31345
1.31354
1.31363
1.31372
1.3138
1.31388
1.31396
1.31403
1.3141
1.31417
1.31423
1.3143
1.31435
1.31441
1.31446
1.31452
1.31457
1.31462
1.31466
1.31471
1.31475
1.3148
1.31485
1.31489
1.31494
1.31499
1.31505
1.3151
1.31516
1.31523
1.3153
1.31538
1.31546
1.31555
1.31565
1.31576
1.31588
1.31601
1.31615
1.31631
1.31648
1.31666
1.31686
1.31707
1.31731
1.31755
1.31782
1.31811
1.31842
1.31875
1.3191
1.31948
1.31988
1.3203
1.32075
1.32123
1.32174
1.32227
1.32284
1.32344
1.32408
1.32475
1.32545
1.3262
1.32699
1.32782
1.3287
1.32963
1.33062
1.33166
1.33277
1.33395
1.33521
1.33656
1.33801
1.33958
1.34129
1.34315
1.3452
1.34747
1.35003
1.35292
1.35623
1.36008
1.3646
1.3699
1.37604
1.38286
1.38841
1.38855
1.26971
1.26927
1.26981
1.27139
1.2734
1.2752
1.27675
1.27804
1.27909
1.27993
1.28061
1.28117
1.28163
1.28202
1.28234
1.2826
1.28283
1.28302
1.28317
1.28331
1.28342
1.28351
1.28358
1.28364
1.28369
1.28373
1.28375
1.28377
1.28377
1.28378
1.28377
1.28376
1.28374
1.28372
1.28369
1.28366
1.28363
1.2836
1.28356
1.28352
1.28348
1.28344
1.2834
1.28336
1.28332
1.28328
1.28324
1.28321
1.28318
1.28315
1.28312
1.2831
1.28308
1.28307
1.28306
1.28306
1.28306
1.28308
1.28309
1.28312
1.28315
1.28319
1.28324
1.2833
1.28337
1.28344
1.28353
1.28362
1.28372
1.28384
1.28396
1.28409
1.28423
1.28438
1.28454
1.28471
1.28489
1.28507
1.28527
1.28547
1.28569
1.28591
1.28613
1.28637
1.28661
1.28686
1.28712
1.28738
1.28765
1.28792
1.2882
1.28848
1.28876
1.28904
1.28933
1.28961
1.2899
1.29019
1.29047
1.29075
1.29103
1.29131
1.29158
1.29185
1.29211
1.29236
1.29261
1.29285
1.29308
1.29331
1.29352
1.29373
1.29392
1.2941
1.29428
1.29444
1.29459
1.29473
1.29486
1.29497
1.29508
1.29517
1.29525
1.29533
1.29539
1.29544
1.29549
1.29552
1.29555
1.29557
1.29559
1.2956
1.2956
1.2956
1.2956
1.29559
1.29558
1.29556
1.29555
1.29553
1.29551
1.29548
1.29546
1.29543
1.29541
1.29538
1.29535
1.29532
1.29529
1.29527
1.29524
1.29521
1.29518
1.29515
1.29512
1.29509
1.29506
1.29503
1.295
1.29498
1.29495
1.29492
1.29489
1.29486
1.29483
1.2948
1.29477
1.29474
1.29471
1.29468
1.29465
1.29462
1.29459
1.29455
1.29452
1.29449
1.29446
1.29443
1.29439
1.29436
1.29433
1.29429
1.29426
1.29423
1.29419
1.29416
1.29413
1.2941
1.29406
1.29403
1.294
1.29397
1.29394
1.29391
1.29388
1.29385
1.29383
1.2938
1.29378
1.29375
1.29373
1.29371
1.2937
1.29368
1.29367
1.29366
1.29365
1.29364
1.29364
1.29363
1.29364
1.29364
1.29365
1.29366
1.29367
1.29369
1.29371
1.29374
1.29377
1.29381
1.29384
1.29389
1.29394
1.29399
1.29405
1.29411
1.29418
1.29426
1.29434
1.29442
1.29452
1.29461
1.29472
1.29483
1.29495
1.29508
1.29521
1.29535
1.2955
1.29565
1.29581
1.29598
1.29616
1.29635
1.29654
1.29675
1.29696
1.29717
1.2974
1.29764
1.29788
1.29813
1.29839
1.29866
1.29894
1.29922
1.29951
1.29981
1.30012
1.30043
1.30075
1.30108
1.30141
1.30175
1.30209
1.30244
1.30279
1.30314
1.30349
1.30385
1.30421
1.30457
1.30493
1.30528
1.30564
1.30599
1.30634
1.30668
1.30702
1.30735
1.30767
1.30799
1.3083
1.3086
1.30889
1.30917
1.30944
1.3097
1.30995
1.3102
1.31043
1.31065
1.31086
1.31107
1.31126
1.31145
1.31162
1.31179
1.31196
1.31211
1.31226
1.3124
1.31254
1.31267
1.31279
1.31291
1.31302
1.31313
1.31324
1.31334
1.31344
1.31353
1.31362
1.31371
1.31379
1.31387
1.31395
1.31402
1.31409
1.31416
1.31422
1.31428
1.31434
1.3144
1.31445
1.3145
1.31455
1.3146
1.31465
1.31469
1.31474
1.31478
1.31483
1.31487
1.31492
1.31497
1.31502
1.31508
1.31514
1.3152
1.31527
1.31535
1.31543
1.31552
1.31562
1.31573
1.31585
1.31598
1.31613
1.31628
1.31645
1.31663
1.31683
1.31705
1.31728
1.31753
1.3178
1.31808
1.31839
1.31872
1.31908
1.31945
1.31985
1.32028
1.32073
1.32121
1.32172
1.32226
1.32283
1.32343
1.32406
1.32473
1.32544
1.32618
1.32697
1.3278
1.32868
1.3296
1.33058
1.33162
1.33273
1.3339
1.33515
1.33648
1.33791
1.33946
1.34113
1.34295
1.34494
1.34713
1.34957
1.35229
1.35534
1.35879
1.36267
1.36694
1.37133
1.37527
1.37797
1.37724
1.273
1.27242
1.27253
1.2734
1.27454
1.27579
1.27699
1.27804
1.27894
1.27971
1.28036
1.2809
1.28136
1.28175
1.28208
1.28236
1.28259
1.28279
1.28296
1.28311
1.28323
1.28333
1.28341
1.28348
1.28354
1.28358
1.28361
1.28364
1.28365
1.28366
1.28366
1.28365
1.28364
1.28362
1.2836
1.28357
1.28354
1.28351
1.28348
1.28344
1.2834
1.28337
1.28333
1.28329
1.28325
1.28321
1.28318
1.28314
1.28311
1.28309
1.28306
1.28304
1.28302
1.28301
1.28301
1.28301
1.28301
1.28302
1.28304
1.28307
1.2831
1.28315
1.2832
1.28326
1.28332
1.2834
1.28349
1.28358
1.28369
1.2838
1.28393
1.28406
1.2842
1.28435
1.28451
1.28469
1.28486
1.28505
1.28525
1.28546
1.28567
1.28589
1.28612
1.28636
1.28661
1.28686
1.28712
1.28738
1.28765
1.28792
1.2882
1.28848
1.28877
1.28905
1.28934
1.28963
1.28992
1.2902
1.29049
1.29077
1.29105
1.29133
1.2916
1.29187
1.29213
1.29239
1.29264
1.29288
1.29311
1.29333
1.29355
1.29375
1.29395
1.29413
1.2943
1.29446
1.29461
1.29475
1.29487
1.29499
1.29509
1.29518
1.29526
1.29533
1.29539
1.29544
1.29548
1.29552
1.29554
1.29556
1.29558
1.29559
1.29559
1.29559
1.29558
1.29557
1.29556
1.29554
1.29552
1.2955
1.29548
1.29546
1.29543
1.29541
1.29538
1.29535
1.29532
1.2953
1.29527
1.29524
1.29521
1.29518
1.29515
1.29512
1.2951
1.29507
1.29504
1.29501
1.29498
1.29495
1.29492
1.29489
1.29486
1.29484
1.29481
1.29478
1.29475
1.29472
1.29469
1.29466
1.29463
1.2946
1.29456
1.29453
1.2945
1.29447
1.29444
1.2944
1.29437
1.29434
1.29431
1.29427
1.29424
1.29421
1.29417
1.29414
1.29411
1.29408
1.29404
1.29401
1.29398
1.29395
1.29392
1.29389
1.29386
1.29383
1.29381
1.29378
1.29376
1.29374
1.29371
1.2937
1.29368
1.29366
1.29365
1.29364
1.29363
1.29362
1.29362
1.29362
1.29362
1.29362
1.29363
1.29364
1.29366
1.29367
1.2937
1.29372
1.29375
1.29379
1.29383
1.29387
1.29392
1.29397
1.29403
1.29409
1.29416
1.29424
1.29432
1.2944
1.2945
1.2946
1.2947
1.29481
1.29493
1.29506
1.29519
1.29533
1.29548
1.29563
1.2958
1.29597
1.29615
1.29633
1.29653
1.29673
1.29694
1.29716
1.29739
1.29763
1.29787
1.29812
1.29838
1.29865
1.29893
1.29922
1.29951
1.29981
1.30012
1.30043
1.30075
1.30108
1.30142
1.30175
1.3021
1.30245
1.3028
1.30315
1.30351
1.30387
1.30423
1.30459
1.30495
1.30531
1.30567
1.30602
1.30637
1.30671
1.30705
1.30738
1.30771
1.30803
1.30833
1.30863
1.30892
1.3092
1.30947
1.30974
1.30999
1.31023
1.31046
1.31068
1.31089
1.31109
1.31128
1.31147
1.31164
1.31181
1.31197
1.31212
1.31227
1.31241
1.31254
1.31267
1.31279
1.31291
1.31302
1.31313
1.31324
1.31334
1.31343
1.31353
1.31362
1.3137
1.31378
1.31386
1.31394
1.31401
1.31408
1.31415
1.31421
1.31427
1.31433
1.31438
1.31444
1.31449
1.31454
1.31458
1.31463
1.31467
1.31472
1.31476
1.3148
1.31485
1.31489
1.31494
1.31499
1.31505
1.31511
1.31517
1.31524
1.31532
1.3154
1.31549
1.31559
1.3157
1.31581
1.31594
1.31609
1.31624
1.31641
1.31659
1.31679
1.317
1.31723
1.31748
1.31775
1.31804
1.31835
1.31868
1.31903
1.31941
1.31981
1.32023
1.32068
1.32116
1.32167
1.32221
1.32278
1.32338
1.32401
1.32468
1.32538
1.32612
1.32691
1.32773
1.3286
1.32952
1.33049
1.33152
1.33261
1.33377
1.335
1.33631
1.33771
1.33921
1.34083
1.34258
1.34448
1.34656
1.34883
1.35132
1.35406
1.35704
1.36022
1.36348
1.36655
1.36892
1.37013
1.36984
1.27523
1.27461
1.27458
1.275
1.27569
1.27654
1.27741
1.27824
1.27899
1.27966
1.28024
1.28075
1.28118
1.28156
1.28188
1.28216
1.2824
1.28261
1.28278
1.28293
1.28306
1.28317
1.28326
1.28334
1.2834
1.28345
1.28349
1.28352
1.28354
1.28355
1.28355
1.28355
1.28354
1.28353
1.28351
1.28348
1.28346
1.28343
1.2834
1.28336
1.28333
1.28329
1.28325
1.28322
1.28318
1.28315
1.28311
1.28308
1.28305
1.28302
1.283
1.28298
1.28296
1.28295
1.28295
1.28295
1.28295
1.28297
1.28299
1.28302
1.28305
1.28309
1.28315
1.28321
1.28328
1.28335
1.28344
1.28354
1.28364
1.28376
1.28388
1.28402
1.28416
1.28432
1.28448
1.28465
1.28483
1.28502
1.28522
1.28543
1.28565
1.28587
1.2861
1.28634
1.28659
1.28685
1.28711
1.28737
1.28764
1.28792
1.2882
1.28848
1.28877
1.28906
1.28935
1.28964
1.28993
1.29022
1.29051
1.29079
1.29107
1.29135
1.29163
1.2919
1.29216
1.29242
1.29266
1.29291
1.29314
1.29336
1.29358
1.29378
1.29398
1.29416
1.29433
1.29449
1.29464
1.29477
1.29489
1.29501
1.29511
1.2952
1.29527
1.29534
1.2954
1.29545
1.29548
1.29552
1.29554
1.29556
1.29557
1.29557
1.29557
1.29557
1.29556
1.29555
1.29554
1.29552
1.2955
1.29548
1.29546
1.29543
1.29541
1.29538
1.29535
1.29533
1.2953
1.29527
1.29524
1.29521
1.29518
1.29515
1.29512
1.2951
1.29507
1.29504
1.29501
1.29498
1.29495
1.29492
1.2949
1.29487
1.29484
1.29481
1.29478
1.29475
1.29472
1.29469
1.29466
1.29463
1.2946
1.29457
1.29454
1.29451
1.29448
1.29445
1.29441
1.29438
1.29435
1.29432
1.29428
1.29425
1.29422
1.29418
1.29415
1.29412
1.29409
1.29405
1.29402
1.29399
1.29396
1.29393
1.2939
1.29387
1.29384
1.29381
1.29379
1.29376
1.29374
1.29371
1.29369
1.29367
1.29366
1.29364
1.29363
1.29362
1.29361
1.2936
1.2936
1.29359
1.2936
1.2936
1.29361
1.29362
1.29363
1.29365
1.29367
1.2937
1.29373
1.29376
1.2938
1.29385
1.29389
1.29395
1.29401
1.29407
1.29414
1.29421
1.29429
1.29438
1.29447
1.29457
1.29468
1.29479
1.29491
1.29503
1.29517
1.29531
1.29545
1.29561
1.29577
1.29594
1.29612
1.29631
1.2965
1.29671
1.29692
1.29714
1.29737
1.2976
1.29785
1.2981
1.29837
1.29864
1.29891
1.2992
1.2995
1.2998
1.30011
1.30042
1.30075
1.30108
1.30141
1.30175
1.3021
1.30245
1.30281
1.30316
1.30352
1.30389
1.30425
1.30461
1.30498
1.30534
1.3057
1.30605
1.3064
1.30675
1.30709
1.30742
1.30775
1.30807
1.30837
1.30867
1.30896
1.30924
1.30951
1.30977
1.31002
1.31026
1.31049
1.31071
1.31092
1.31112
1.31131
1.31149
1.31166
1.31183
1.31198
1.31214
1.31228
1.31242
1.31255
1.31268
1.3128
1.31291
1.31302
1.31313
1.31324
1.31334
1.31343
1.31352
1.31361
1.3137
1.31378
1.31386
1.31393
1.31401
1.31407
1.31414
1.3142
1.31426
1.31432
1.31437
1.31442
1.31447
1.31452
1.31457
1.31461
1.31465
1.31469
1.31474
1.31478
1.31482
1.31487
1.31491
1.31496
1.31502
1.31507
1.31514
1.3152
1.31528
1.31536
1.31544
1.31554
1.31565
1.31577
1.31589
1.31603
1.31619
1.31635
1.31653
1.31673
1.31694
1.31717
1.31742
1.31769
1.31798
1.31828
1.31861
1.31896
1.31934
1.31974
1.32016
1.32061
1.32109
1.32159
1.32213
1.32269
1.32329
1.32392
1.32458
1.32528
1.32602
1.3268
1.32762
1.32848
1.32939
1.33035
1.33136
1.33243
1.33356
1.33476
1.33603
1.33739
1.33884
1.34039
1.34206
1.34385
1.34578
1.34787
1.35011
1.3525
1.35501
1.35756
1.36
1.36212
1.36363
1.36423
1.36397
1.27676
1.27623
1.27611
1.27629
1.27672
1.27728
1.27791
1.27855
1.27916
1.27972
1.28023
1.28068
1.28108
1.28143
1.28174
1.28201
1.28225
1.28245
1.28263
1.28278
1.28292
1.28303
1.28312
1.28321
1.28327
1.28333
1.28337
1.2834
1.28342
1.28344
1.28345
1.28345
1.28344
1.28343
1.28342
1.2834
1.28337
1.28335
1.28332
1.28329
1.28325
1.28322
1.28318
1.28315
1.28311
1.28308
1.28304
1.28301
1.28298
1.28296
1.28293
1.28292
1.2829
1.28289
1.28289
1.28289
1.28289
1.28291
1.28293
1.28296
1.28299
1.28304
1.28309
1.28315
1.28322
1.2833
1.28339
1.28349
1.28359
1.28371
1.28384
1.28397
1.28412
1.28428
1.28444
1.28461
1.2848
1.28499
1.28519
1.2854
1.28562
1.28585
1.28608
1.28632
1.28657
1.28683
1.28709
1.28736
1.28763
1.28791
1.2882
1.28848
1.28877
1.28906
1.28936
1.28965
1.28994
1.29023
1.29052
1.29081
1.2911
1.29138
1.29165
1.29192
1.29219
1.29245
1.2927
1.29294
1.29317
1.2934
1.29361
1.29382
1.29401
1.29419
1.29436
1.29452
1.29467
1.2948
1.29492
1.29503
1.29513
1.29522
1.29529
1.29535
1.29541
1.29545
1.29549
1.29552
1.29554
1.29555
1.29556
1.29556
1.29556
1.29556
1.29555
1.29553
1.29552
1.2955
1.29548
1.29545
1.29543
1.2954
1.29538
1.29535
1.29532
1.2953
1.29527
1.29524
1.29521
1.29518
1.29515
1.29512
1.29509
1.29507
1.29504
1.29501
1.29498
1.29495
1.29492
1.29489
1.29487
1.29484
1.29481
1.29478
1.29475
1.29472
1.29469
1.29466
1.29463
1.2946
1.29457
1.29454
1.29451
1.29448
1.29445
1.29442
1.29439
1.29436
1.29432
1.29429
1.29426
1.29422
1.29419
1.29416
1.29413
1.29409
1.29406
1.29403
1.294
1.29397
1.29393
1.2939
1.29387
1.29384
1.29382
1.29379
1.29376
1.29374
1.29371
1.29369
1.29367
1.29365
1.29363
1.29362
1.2936
1.29359
1.29358
1.29357
1.29357
1.29357
1.29357
1.29357
1.29358
1.29359
1.29361
1.29362
1.29365
1.29367
1.2937
1.29374
1.29377
1.29382
1.29386
1.29392
1.29397
1.29404
1.29411
1.29418
1.29426
1.29435
1.29444
1.29454
1.29464
1.29476
1.29487
1.295
1.29513
1.29527
1.29542
1.29558
1.29574
1.29591
1.29609
1.29628
1.29647
1.29667
1.29689
1.29711
1.29734
1.29757
1.29782
1.29807
1.29834
1.29861
1.29889
1.29918
1.29947
1.29978
1.30009
1.30041
1.30073
1.30106
1.3014
1.30175
1.3021
1.30245
1.30281
1.30317
1.30353
1.3039
1.30426
1.30463
1.305
1.30536
1.30572
1.30608
1.30644
1.30678
1.30713
1.30746
1.30779
1.30811
1.30842
1.30872
1.30901
1.30929
1.30956
1.30982
1.31007
1.3103
1.31053
1.31075
1.31095
1.31115
1.31134
1.31152
1.31169
1.31185
1.31201
1.31215
1.3123
1.31243
1.31256
1.31269
1.3128
1.31292
1.31303
1.31314
1.31324
1.31334
1.31343
1.31352
1.31361
1.31369
1.31378
1.31385
1.31393
1.314
1.31407
1.31413
1.31419
1.31425
1.31431
1.31436
1.31441
1.31446
1.31451
1.31455
1.31459
1.31463
1.31467
1.31471
1.31475
1.31479
1.31484
1.31488
1.31493
1.31498
1.31503
1.31509
1.31516
1.31523
1.31531
1.31539
1.31549
1.31559
1.31571
1.31583
1.31597
1.31612
1.31629
1.31647
1.31666
1.31687
1.3171
1.31735
1.31761
1.3179
1.3182
1.31853
1.31888
1.31925
1.31964
1.32007
1.32051
1.32099
1.32149
1.32202
1.32258
1.32317
1.3238
1.32446
1.32515
1.32588
1.32665
1.32746
1.32831
1.3292
1.33014
1.33113
1.33218
1.33328
1.33445
1.33568
1.33699
1.33837
1.33984
1.34141
1.34308
1.34486
1.34674
1.34872
1.35078
1.35286
1.35489
1.35672
1.3582
1.35918
1.35951
1.35916
1.27788
1.27745
1.27728
1.27734
1.2776
1.27797
1.27842
1.27891
1.27939
1.27985
1.28029
1.28068
1.28104
1.28137
1.28166
1.28191
1.28214
1.28234
1.28251
1.28266
1.28279
1.28291
1.28301
1.28309
1.28316
1.28321
1.28326
1.2833
1.28332
1.28334
1.28335
1.28336
1.28335
1.28334
1.28333
1.28331
1.28329
1.28327
1.28324
1.28321
1.28318
1.28314
1.28311
1.28308
1.28304
1.28301
1.28298
1.28295
1.28292
1.28289
1.28287
1.28285
1.28284
1.28283
1.28282
1.28282
1.28283
1.28285
1.28287
1.2829
1.28293
1.28298
1.28303
1.28309
1.28316
1.28324
1.28333
1.28343
1.28354
1.28366
1.28379
1.28392
1.28407
1.28423
1.28439
1.28457
1.28475
1.28495
1.28515
1.28536
1.28558
1.28581
1.28605
1.28629
1.28654
1.2868
1.28707
1.28734
1.28762
1.2879
1.28819
1.28848
1.28877
1.28906
1.28936
1.28966
1.28995
1.29025
1.29054
1.29083
1.29112
1.2914
1.29168
1.29195
1.29222
1.29248
1.29273
1.29297
1.29321
1.29344
1.29365
1.29386
1.29405
1.29423
1.2944
1.29456
1.29471
1.29484
1.29496
1.29507
1.29516
1.29524
1.29531
1.29537
1.29542
1.29547
1.2955
1.29552
1.29554
1.29555
1.29556
1.29556
1.29555
1.29554
1.29553
1.29551
1.2955
1.29548
1.29545
1.29543
1.2954
1.29538
1.29535
1.29532
1.29529
1.29527
1.29524
1.29521
1.29518
1.29515
1.29512
1.29509
1.29506
1.29503
1.295
1.29498
1.29495
1.29492
1.29489
1.29486
1.29483
1.29481
1.29478
1.29475
1.29472
1.29469
1.29466
1.29463
1.2946
1.29457
1.29454
1.29451
1.29448
1.29445
1.29442
1.29439
1.29436
1.29433
1.29429
1.29426
1.29423
1.2942
1.29416
1.29413
1.2941
1.29407
1.29403
1.294
1.29397
1.29394
1.29391
1.29388
1.29385
1.29382
1.29379
1.29376
1.29373
1.29371
1.29368
1.29366
1.29364
1.29362
1.2936
1.29359
1.29357
1.29356
1.29355
1.29355
1.29354
1.29354
1.29354
1.29354
1.29355
1.29356
1.29357
1.29359
1.29361
1.29364
1.29367
1.2937
1.29374
1.29378
1.29383
1.29388
1.29394
1.294
1.29407
1.29414
1.29422
1.29431
1.2944
1.2945
1.2946
1.29471
1.29483
1.29496
1.29509
1.29523
1.29538
1.29553
1.2957
1.29587
1.29604
1.29623
1.29643
1.29663
1.29684
1.29706
1.29729
1.29753
1.29778
1.29803
1.2983
1.29857
1.29885
1.29914
1.29944
1.29974
1.30006
1.30038
1.30071
1.30104
1.30138
1.30173
1.30208
1.30244
1.3028
1.30316
1.30353
1.3039
1.30427
1.30464
1.30501
1.30538
1.30575
1.30611
1.30647
1.30682
1.30717
1.3075
1.30783
1.30816
1.30847
1.30877
1.30906
1.30934
1.30961
1.30987
1.31012
1.31035
1.31058
1.31079
1.311
1.31119
1.31137
1.31155
1.31172
1.31188
1.31203
1.31218
1.31232
1.31245
1.31258
1.3127
1.31282
1.31293
1.31304
1.31314
1.31324
1.31334
1.31343
1.31352
1.31361
1.31369
1.31377
1.31385
1.31393
1.314
1.31406
1.31413
1.31419
1.31425
1.3143
1.31435
1.3144
1.31445
1.31449
1.31453
1.31457
1.31461
1.31465
1.31469
1.31473
1.31477
1.31481
1.31485
1.31489
1.31494
1.31499
1.31505
1.31511
1.31518
1.31525
1.31534
1.31543
1.31553
1.31564
1.31576
1.3159
1.31605
1.31621
1.31639
1.31658
1.31679
1.31701
1.31725
1.31752
1.3178
1.3181
1.31842
1.31877
1.31914
1.31953
1.31995
1.32039
1.32086
1.32136
1.32189
1.32244
1.32303
1.32365
1.3243
1.32498
1.3257
1.32646
1.32725
1.32809
1.32896
1.32988
1.33085
1.33187
1.33294
1.33406
1.33525
1.33649
1.33781
1.3392
1.34066
1.3422
1.34382
1.3455
1.34723
1.34899
1.3507
1.35231
1.35369
1.35476
1.3554
1.35557
1.35519
1.27873
1.27837
1.27819
1.27819
1.27833
1.27859
1.27891
1.27927
1.27965
1.28003
1.2804
1.28074
1.28105
1.28135
1.28161
1.28185
1.28206
1.28225
1.28241
1.28256
1.28269
1.2828
1.2829
1.28298
1.28305
1.28311
1.28316
1.2832
1.28323
1.28325
1.28326
1.28327
1.28326
1.28326
1.28325
1.28323
1.28321
1.28319
1.28316
1.28313
1.2831
1.28307
1.28304
1.283
1.28297
1.28294
1.28291
1.28288
1.28285
1.28282
1.2828
1.28278
1.28277
1.28276
1.28276
1.28276
1.28276
1.28278
1.2828
1.28283
1.28287
1.28291
1.28296
1.28303
1.2831
1.28318
1.28327
1.28337
1.28348
1.2836
1.28373
1.28387
1.28402
1.28418
1.28434
1.28452
1.28471
1.2849
1.28511
1.28532
1.28554
1.28577
1.28601
1.28626
1.28651
1.28677
1.28704
1.28732
1.2876
1.28788
1.28817
1.28847
1.28876
1.28906
1.28936
1.28966
1.28996
1.29026
1.29055
1.29085
1.29114
1.29142
1.2917
1.29198
1.29225
1.29251
1.29276
1.29301
1.29325
1.29348
1.29369
1.2939
1.29409
1.29428
1.29445
1.2946
1.29475
1.29488
1.295
1.2951
1.29519
1.29527
1.29534
1.2954
1.29544
1.29548
1.29551
1.29553
1.29554
1.29555
1.29555
1.29555
1.29554
1.29553
1.29551
1.2955
1.29547
1.29545
1.29543
1.2954
1.29538
1.29535
1.29532
1.29529
1.29526
1.29523
1.2952
1.29517
1.29514
1.29512
1.29509
1.29506
1.29503
1.295
1.29497
1.29494
1.29491
1.29489
1.29486
1.29483
1.2948
1.29477
1.29474
1.29472
1.29469
1.29466
1.29463
1.2946
1.29457
1.29454
1.29451
1.29448
1.29445
1.29442
1.29439
1.29436
1.29433
1.2943