# vtk DataFile Version 2.0
LBE mesh
ASCII
DATASET STRUCTURED_POINTS
DIMENSIONS 400 100 1
ASPECT_RATIO 1 1 1
ORIGIN 0 0 0
POINT_DATA 40000
SCALARS rho double 1
LOOKUP_TABLE default
1.18944
1.28623
1.31365
1.31823
1.32029
1.32232
1.32385
1.32484
1.3255
1.32599
1.32637
1.32667
1.32691
1.3271
1.32726
1.32739
1.3275
1.32759
1.32766
1.32771
1.32775
1.32779
1.32781
1.32782
1.32783
1.32782
1.32781
1.3278
1.32777
1.32775
1.32771
1.32768
1.32764
1.32759
1.32755
1.3275
1.32744
1.32739
1.32733
1.32727
1.32722
1.32716
1.3271
1.32704
1.32698
1.32693
1.32687
1.32682
1.32677
1.32672
1.32668
1.32664
1.3266
1.32657
1.32655
1.32653
1.32651
1.32651
1.32651
1.32651
1.32652
1.32655
1.32657
1.32661
1.32666
1.32671
1.32677
1.32684
1.32692
1.32701
1.32711
1.32721
1.32733
1.32745
1.32758
1.32772
1.32787
1.32803
1.32819
1.32836
1.32854
1.32873
1.32892
1.32913
1.32933
1.32955
1.32977
1.33
1.33023
1.33046
1.33071
1.33095
1.3312
1.33145
1.3317
1.33196
1.33221
1.33247
1.33272
1.33298
1.33323
1.33348
1.33373
1.33398
1.33422
1.33446
1.33469
1.33492
1.33514
1.33535
1.33556
1.33576
1.33595
1.33613
1.3363
1.33646
1.33661
1.33676
1.33689
1.33701
1.33712
1.33722
1.33731
1.33739
1.33745
1.33751
1.33756
1.33761
1.33764
1.33766
1.33768
1.33769
1.33769
1.33769
1.33768
1.33767
1.33765
1.33762
1.33759
1.33756
1.33753
1.33749
1.33745
1.33741
1.33737
1.33732
1.33727
1.33722
1.33717
1.33712
1.33707
1.33702
1.33696
1.33691
1.33686
1.3368
1.33675
1.33669
1.33663
1.33658
1.33652
1.33647
1.33641
1.33635
1.3363
1.33624
1.33619
1.33613
1.33607
1.33602
1.33596
1.3359
1.33585
1.33579
1.33573
1.33568
1.33562
1.33556
1.33551
1.33545
1.33539
1.33534
1.33528
1.33523
1.33517
1.33512
1.33506
1.33501
1.33496
1.3349
1.33485
1.3348
1.33475
1.3347
1.33465
1.33461
1.33456
1.33452
1.33448
1.33443
1.3344
1.33436
1.33432
1.33429
1.33426
1.33423
1.3342
1.33418
1.33416
1.33414
1.33412
1.33411
1.3341
1.3341
1.3341
1.3341
1.33411
1.33412
1.33413
1.33416
1.33418
1.33421
1.33424
1.33429
1.33433
1.33438
1.33444
1.3345
1.33457
1.33465
1.33473
1.33482
1.33492
1.33502
1.33513
1.33525
1.33537
1.33551
1.33565
1.3358
1.33595
1.33612
1.33629
1.33647
1.33666
1.33686
1.33707
1.33728
1.3375
1.33774
1.33797
1.33822
1.33848
1.33874
1.33901
1.33929
1.33958
1.33987
1.34017
1.34048
1.34079
1.34111
1.34144
1.34176
1.3421
1.34243
1.34277
1.34312
1.34346
1.34381
1.34415
1.3445
1.34484
1.34518
1.34552
1.34586
1.34619
1.34651
1.34683
1.34714
1.34745
1.34774
1.34803
1.34831
1.34858
1.34884
1.34909
1.34933
1.34956
1.34977
1.34998
1.35018
1.35036
1.35054
1.35071
1.35086
1.35101
1.35115
1.35129
1.35141
1.35153
1.35164
1.35174
1.35184
1.35194
1.35202
1.35211
1.35219
1.35227
1.35234
1.35241
1.35248
1.35254
1.35261
1.35267
1.35273
1.35278
1.35284
1.35289
1.35295
1.353
1.35305
1.3531
1.35315
1.3532
1.35325
1.3533
1.35335
1.3534
1.35345
1.3535
1.35355
1.3536
1.35366
1.35372
1.35378
1.35384
1.35391
1.35399
1.35406
1.35415
1.35424
1.35434
1.35444
1.35456
1.35468
1.35482
1.35497
1.35512
1.3553
1.35548
1.35568
1.35589
1.35613
1.35637
1.35664
1.35693
1.35723
1.35756
1.35791
1.35828
1.35868
1.3591
1.35955
1.36002
1.36052
1.36105
1.36162
1.36221
1.36284
1.3635
1.3642
1.36493
1.36571
1.36653
1.36739
1.3683
1.36926
1.37028
1.37136
1.3725
1.37371
1.375
1.37638
1.37786
1.37946
1.38119
1.38307
1.38514
1.38744
1.39001
1.39294
1.39633
1.40033
1.40521
1.41151
1.42026
1.43257
1.45088
1.4886
1.27844
1.28627
1.29943
1.3113
1.31734
1.32026
1.32204
1.32333
1.32429
1.32501
1.32555
1.32597
1.3263
1.32657
1.3268
1.32698
1.32713
1.32725
1.32735
1.32743
1.3275
1.32755
1.32759
1.32762
1.32764
1.32765
1.32765
1.32764
1.32763
1.32761
1.32758
1.32755
1.32752
1.32748
1.32744
1.3274
1.32735
1.3273
1.32725
1.32719
1.32714
1.32708
1.32703
1.32697
1.32692
1.32687
1.32681
1.32676
1.32672
1.32667
1.32663
1.3266
1.32656
1.32654
1.32651
1.3265
1.32648
1.32648
1.32648
1.32649
1.3265
1.32653
1.32656
1.3266
1.32664
1.3267
1.32676
1.32684
1.32692
1.32701
1.32711
1.32721
1.32733
1.32745
1.32759
1.32773
1.32788
1.32804
1.3282
1.32837
1.32856
1.32874
1.32894
1.32914
1.32935
1.32957
1.32979
1.33001
1.33025
1.33048
1.33072
1.33097
1.33121
1.33146
1.33172
1.33197
1.33223
1.33248
1.33274
1.33299
1.33324
1.33349
1.33374
1.33399
1.33423
1.33446
1.33469
1.33492
1.33514
1.33535
1.33555
1.33575
1.33594
1.33612
1.33629
1.33645
1.3366
1.33674
1.33687
1.33699
1.3371
1.3372
1.33728
1.33736
1.33743
1.33749
1.33754
1.33758
1.33761
1.33763
1.33765
1.33766
1.33766
1.33766
1.33765
1.33764
1.33762
1.33759
1.33757
1.33754
1.3375
1.33747
1.33743
1.33739
1.33734
1.3373
1.33725
1.3372
1.33715
1.3371
1.33705
1.337
1.33694
1.33689
1.33684
1.33678
1.33673
1.33667
1.33662
1.33656
1.33651
1.33645
1.3364
1.33634
1.33628
1.33623
1.33617
1.33612
1.33606
1.336
1.33595
1.33589
1.33583
1.33578
1.33572
1.33567
1.33561
1.33555
1.3355
1.33544
1.33538
1.33533
1.33527
1.33522
1.33516
1.33511
1.33505
1.335
1.33495
1.3349
1.33485
1.33479
1.33475
1.3347
1.33465
1.3346
1.33456
1.33451
1.33447
1.33443
1.33439
1.33435
1.33432
1.33429
1.33426
1.33423
1.3342
1.33418
1.33416
1.33414
1.33413
1.33411
1.33411
1.3341
1.3341
1.33411
1.33411
1.33412
1.33414
1.33416
1.33419
1.33422
1.33425
1.33429
1.33434
1.33439
1.33445
1.33452
1.33459
1.33466
1.33475
1.33484
1.33493
1.33504
1.33515
1.33527
1.33539
1.33553
1.33567
1.33582
1.33598
1.33614
1.33632
1.3365
1.33669
1.33689
1.33709
1.33731
1.33753
1.33777
1.33801
1.33825
1.33851
1.33878
1.33905
1.33933
1.33961
1.33991
1.34021
1.34052
1.34083
1.34115
1.34147
1.3418
1.34213
1.34247
1.34281
1.34315
1.34349
1.34384
1.34418
1.34453
1.34487
1.34521
1.34555
1.34588
1.34621
1.34653
1.34685
1.34716
1.34746
1.34776
1.34804
1.34832
1.34859
1.34884
1.34909
1.34933
1.34955
1.34977
1.34997
1.35017
1.35035
1.35053
1.35069
1.35085
1.351
1.35114
1.35127
1.35139
1.35151
1.35162
1.35173
1.35182
1.35192
1.35201
1.35209
1.35217
1.35225
1.35232
1.35239
1.35246
1.35253
1.35259
1.35265
1.35271
1.35277
1.35283
1.35288
1.35294
1.35299
1.35304
1.35309
1.35314
1.35319
1.35324
1.35329
1.35334
1.35339
1.35344
1.35349
1.35354
1.3536
1.35365
1.35371
1.35377
1.35384
1.35391
1.35398
1.35406
1.35415
1.35424
1.35434
1.35445
1.35457
1.35469
1.35483
1.35498
1.35514
1.35531
1.3555
1.3557
1.35592
1.35616
1.35641
1.35668
1.35697
1.35728
1.35761
1.35796
1.35834
1.35874
1.35916
1.35961
1.36009
1.3606
1.36113
1.3617
1.3623
1.36293
1.3636
1.3643
1.36504
1.36583
1.36665
1.36752
1.36844
1.36941
1.37044
1.37153
1.37268
1.37391
1.37522
1.37662
1.37813
1.37975
1.38152
1.38345
1.38558
1.38795
1.39063
1.39369
1.39725
1.40152
1.40679
1.41343
1.42209
1.43481
1.45696
1.49181
1.30005
1.29584
1.30409
1.31109
1.31534
1.31841
1.32063
1.32219
1.32331
1.32416
1.32481
1.32533
1.32575
1.32608
1.32636
1.32659
1.32678
1.32693
1.32706
1.32717
1.32725
1.32733
1.32738
1.32742
1.32745
1.32748
1.32749
1.32749
1.32749
1.32747
1.32746
1.32743
1.32741
1.32737
1.32734
1.3273
1.32725
1.32721
1.32716
1.32711
1.32706
1.32701
1.32695
1.3269
1.32685
1.3268
1.32675
1.32671
1.32666
1.32662
1.32658
1.32655
1.32652
1.32649
1.32647
1.32646
1.32645
1.32644
1.32645
1.32646
1.32648
1.3265
1.32653
1.32658
1.32662
1.32668
1.32675
1.32682
1.3269
1.327
1.3271
1.32721
1.32732
1.32745
1.32758
1.32773
1.32788
1.32804
1.3282
1.32838
1.32856
1.32875
1.32895
1.32915
1.32936
1.32958
1.3298
1.33003
1.33026
1.33049
1.33074
1.33098
1.33123
1.33148
1.33173
1.33199
1.33224
1.3325
1.33275
1.333
1.33326
1.33351
1.33375
1.334
1.33424
1.33447
1.3347
1.33493
1.33515
1.33536
1.33556
1.33576
1.33594
1.33612
1.33629
1.33645
1.3366
1.33673
1.33686
1.33698
1.33709
1.33718
1.33727
1.33735
1.33741
1.33747
1.33752
1.33756
1.33759
1.33761
1.33763
1.33764
1.33764
1.33763
1.33763
1.33761
1.33759
1.33757
1.33754
1.33751
1.33748
1.33744
1.3374
1.33736
1.33732
1.33727
1.33723
1.33718
1.33713
1.33708
1.33703
1.33698
1.33692
1.33687
1.33682
1.33676
1.33671
1.33666
1.3366
1.33655
1.33649
1.33644
1.33638
1.33633
1.33627
1.33621
1.33616
1.3361
1.33605
1.33599
1.33593
1.33588
1.33582
1.33577
1.33571
1.33565
1.3356
1.33554
1.33548
1.33543
1.33537
1.33532
1.33526
1.33521
1.33515
1.3351
1.33505
1.33499
1.33494
1.33489
1.33484
1.33479
1.33474
1.33469
1.33464
1.33459
1.33455
1.33451
1.33446
1.33442
1.33439
1.33435
1.33431
1.33428
1.33425
1.33422
1.3342
1.33417
1.33415
1.33414
1.33412
1.33411
1.3341
1.3341
1.3341
1.3341
1.33411
1.33412
1.33414
1.33416
1.33419
1.33422
1.33426
1.3343
1.33435
1.3344
1.33446
1.33452
1.33459
1.33467
1.33475
1.33485
1.33494
1.33505
1.33516
1.33528
1.33541
1.33554
1.33568
1.33583
1.33599
1.33616
1.33633
1.33652
1.33671
1.33691
1.33711
1.33733
1.33756
1.33779
1.33803
1.33828
1.33854
1.3388
1.33907
1.33935
1.33964
1.33994
1.34024
1.34054
1.34086
1.34118
1.3415
1.34183
1.34216
1.3425
1.34284
1.34318
1.34352
1.34387
1.34421
1.34456
1.3449
1.34524
1.34557
1.34591
1.34623
1.34656
1.34687
1.34718
1.34748
1.34778
1.34806
1.34833
1.3486
1.34886
1.3491
1.34934
1.34956
1.34977
1.34998
1.35017
1.35035
1.35053
1.35069
1.35085
1.35099
1.35113
1.35126
1.35138
1.3515
1.35161
1.35171
1.35181
1.35191
1.352
1.35208
1.35216
1.35224
1.35231
1.35238
1.35245
1.35252
1.35258
1.35264
1.3527
1.35276
1.35281
1.35287
1.35292
1.35298
1.35303
1.35308
1.35313
1.35318
1.35323
1.35328
1.35333
1.35338
1.35343
1.35348
1.35353
1.35359
1.35364
1.3537
1.35377
1.35383
1.3539
1.35398
1.35406
1.35414
1.35424
1.35434
1.35445
1.35457
1.35469
1.35483
1.35498
1.35514
1.35532
1.35551
1.35571
1.35593
1.35617
1.35642
1.35669
1.35699
1.3573
1.35763
1.35799
1.35836
1.35877
1.35919
1.35965
1.36013
1.36064
1.36118
1.36175
1.36235
1.36299
1.36366
1.36437
1.36511
1.3659
1.36673
1.3676
1.36853
1.3695
1.37054
1.37163
1.37279
1.37403
1.37534
1.37675
1.37827
1.37991
1.38169
1.38363
1.38578
1.38817
1.39086
1.39393
1.3975
1.40172
1.40681
1.41319
1.42146
1.43185
1.44315
1.45364
1.3078
1.30655
1.30898
1.31184
1.31521
1.31796
1.31995
1.32144
1.3226
1.32351
1.32423
1.32481
1.32527
1.32566
1.32597
1.32624
1.32645
1.32664
1.32679
1.32692
1.32703
1.32711
1.32718
1.32724
1.32728
1.32731
1.32733
1.32735
1.32735
1.32735
1.32733
1.32732
1.32729
1.32727
1.32723
1.3272
1.32716
1.32712
1.32707
1.32703
1.32698
1.32693
1.32688
1.32683
1.32678
1.32674
1.32669
1.32665
1.3266
1.32656
1.32653
1.3265
1.32647
1.32644
1.32642
1.32641
1.3264
1.3264
1.32641
1.32642
1.32644
1.32647
1.3265
1.32655
1.3266
1.32666
1.32672
1.3268
1.32688
1.32698
1.32708
1.32719
1.32731
1.32744
1.32757
1.32772
1.32787
1.32803
1.3282
1.32838
1.32856
1.32875
1.32895
1.32915
1.32936
1.32958
1.3298
1.33003
1.33027
1.3305
1.33075
1.33099
1.33124
1.33149
1.33174
1.332
1.33225
1.33251
1.33276
1.33302
1.33327
1.33352
1.33377
1.33401
1.33425
1.33449
1.33472
1.33494
1.33516
1.33537
1.33557
1.33577
1.33595
1.33613
1.3363
1.33645
1.3366
1.33674
1.33686
1.33698
1.33709
1.33718
1.33726
1.33734
1.3374
1.33746
1.33751
1.33754
1.33757
1.3376
1.33761
1.33762
1.33762
1.33761
1.3376
1.33759
1.33757
1.33755
1.33752
1.33749
1.33745
1.33742
1.33738
1.33734
1.33729
1.33725
1.3372
1.33716
1.33711
1.33706
1.33701
1.33696
1.3369
1.33685
1.3368
1.33675
1.33669
1.33664
1.33658
1.33653
1.33647
1.33642
1.33636
1.33631
1.33625
1.3362
1.33614
1.33609
1.33603
1.33598
1.33592
1.33586
1.33581
1.33575
1.3357
1.33564
1.33558
1.33553
1.33547
1.33542
1.33536
1.33531
1.33525
1.3352
1.33514
1.33509
1.33503
1.33498
1.33493
1.33488
1.33483
1.33478
1.33473
1.33468
1.33463
1.33458
1.33454
1.3345
1.33445
1.33441
1.33438
1.33434
1.3343
1.33427
1.33424
1.33421
1.33419
1.33417
1.33415
1.33413
1.33411
1.3341
1.3341
1.33409
1.33409
1.3341
1.33411
1.33412
1.33414
1.33416
1.33418
1.33422
1.33425
1.3343
1.33434
1.3344
1.33446
1.33452
1.33459
1.33467
1.33476
1.33485
1.33494
1.33505
1.33516
1.33528
1.33541
1.33555
1.33569
1.33584
1.336
1.33617
1.33634
1.33653
1.33672
1.33692
1.33713
1.33734
1.33757
1.3378
1.33804
1.33829
1.33855
1.33882
1.33909
1.33937
1.33966
1.33996
1.34026
1.34057
1.34088
1.3412
1.34153
1.34186
1.34219
1.34253
1.34287
1.34321
1.34355
1.3439
1.34424
1.34459
1.34493
1.34527
1.3456
1.34594
1.34626
1.34659
1.3469
1.34721
1.34751
1.3478
1.34809
1.34836
1.34862
1.34888
1.34912
1.34935
1.34958
1.34979
1.34999
1.35018
1.35036
1.35053
1.3507
1.35085
1.35099
1.35113
1.35126
1.35138
1.3515
1.35161
1.35171
1.35181
1.3519
1.35199
1.35207
1.35215
1.35223
1.3523
1.35237
1.35244
1.3525
1.35257
1.35263
1.35269
1.35275
1.3528
1.35286
1.35291
1.35296
1.35302
1.35307
1.35312
1.35317
1.35322
1.35327
1.35332
1.35337
1.35342
1.35347
1.35352
1.35357
1.35363
1.35369
1.35375
1.35382
1.35389
1.35396
1.35405
1.35413
1.35423
1.35433
1.35444
1.35455
1.35468
1.35482
1.35497
1.35513
1.35531
1.3555
1.35571
1.35593
1.35616
1.35642
1.35669
1.35698
1.3573
1.35763
1.35799
1.35837
1.35877
1.3592
1.35966
1.36014
1.36065
1.3612
1.36177
1.36237
1.36301
1.36368
1.36439
1.36514
1.36593
1.36676
1.36764
1.36856
1.36954
1.37057
1.37167
1.37283
1.37406
1.37538
1.37678
1.37829
1.37992
1.38169
1.38362
1.38574
1.38809
1.39073
1.39371
1.39713
1.4011
1.40575
1.41121
1.41754
1.42456
1.43026
1.43038
1.31246
1.31203
1.31254
1.31416
1.31627
1.31814
1.31976
1.32112
1.32221
1.32309
1.32381
1.3244
1.32489
1.3253
1.32564
1.32593
1.32617
1.32638
1.32655
1.32669
1.32681
1.32691
1.327
1.32707
1.32712
1.32716
1.32719
1.32721
1.32722
1.32722
1.32722
1.32721
1.32719
1.32716
1.32714
1.32711
1.32707
1.32703
1.32699
1.32695
1.3269
1.32686
1.32681
1.32676
1.32672
1.32667
1.32663
1.32658
1.32654
1.32651
1.32647
1.32644
1.32641
1.32639
1.32637
1.32636
1.32636
1.32636
1.32636
1.32638
1.3264
1.32643
1.32646
1.32651
1.32656
1.32662
1.32669
1.32677
1.32686
1.32695
1.32705
1.32717
1.32729
1.32742
1.32755
1.3277
1.32785
1.32802
1.32819
1.32837
1.32855
1.32874
1.32894
1.32915
1.32936
1.32958
1.3298
1.33003
1.33027
1.33051
1.33075
1.331
1.33125
1.3315
1.33176
1.33201
1.33227
1.33252
1.33278
1.33303
1.33329
1.33354
1.33379
1.33403
1.33427
1.33451
1.33474
1.33496
1.33518
1.33539
1.33559
1.33578
1.33597
1.33615
1.33631
1.33647
1.33661
1.33675
1.33687
1.33699
1.33709
1.33719
1.33727
1.33734
1.3374
1.33746
1.3375
1.33754
1.33756
1.33759
1.3376
1.3376
1.3376
1.3376
1.33759
1.33757
1.33755
1.33753
1.3375
1.33747
1.33743
1.3374
1.33736
1.33732
1.33727
1.33723
1.33718
1.33713
1.33709
1.33704
1.33699
1.33693
1.33688
1.33683
1.33678
1.33672
1.33667
1.33662
1.33656
1.33651
1.33645
1.3364
1.33635
1.33629
1.33624
1.33618
1.33613
1.33607
1.33601
1.33596
1.3359
1.33585
1.33579
1.33574
1.33568
1.33562
1.33557
1.33551
1.33546
1.3354
1.33535
1.33529
1.33524
1.33518
1.33513
1.33507
1.33502
1.33497
1.33492
1.33486
1.33481
1.33476
1.33471
1.33467
1.33462
1.33457
1.33453
1.33448
1.33444
1.3344
1.33436
1.33433
1.33429
1.33426
1.33423
1.3342
1.33418
1.33415
1.33413
1.33412
1.3341
1.33409
1.33409
1.33408
1.33408
1.33409
1.3341
1.33411
1.33413
1.33415
1.33418
1.33421
1.33424
1.33429
1.33433
1.33439
1.33445
1.33451
1.33459
1.33466
1.33475
1.33484
1.33494
1.33505
1.33516
1.33528
1.33541
1.33554
1.33569
1.33584
1.336
1.33617
1.33634
1.33653
1.33672
1.33692
1.33713
1.33735
1.33757
1.33781
1.33805
1.3383
1.33856
1.33883
1.3391
1.33938
1.33967
1.33997
1.34027
1.34058
1.3409
1.34122
1.34155
1.34188
1.34221
1.34255
1.34289
1.34324
1.34358
1.34393
1.34427
1.34462
1.34496
1.3453
1.34564
1.34597
1.3463
1.34662
1.34694
1.34724
1.34754
1.34784
1.34812
1.34839
1.34865
1.34891
1.34915
1.34938
1.3496
1.34981
1.35001
1.3502
1.35038
1.35055
1.35071
1.35086
1.351
1.35114
1.35127
1.35139
1.3515
1.35161
1.35171
1.3518
1.3519
1.35198
1.35207
1.35214
1.35222
1.35229
1.35236
1.35243
1.3525
1.35256
1.35262
1.35268
1.35274
1.35279
1.35285
1.3529
1.35295
1.35301
1.35306
1.35311
1.35316
1.35321
1.35325
1.3533
1.35335
1.3534
1.35345
1.35351
1.35356
1.35362
1.35367
1.35374
1.3538
1.35387
1.35395
1.35403
1.35411
1.35421
1.35431
1.35441
1.35453
1.35466
1.3548
1.35495
1.35511
1.35529
1.35548
1.35568
1.3559
1.35614
1.3564
1.35667
1.35696
1.35728
1.35761
1.35797
1.35835
1.35876
1.35919
1.35964
1.36013
1.36064
1.36118
1.36175
1.36236
1.363
1.36367
1.36438
1.36513
1.36591
1.36675
1.36762
1.36854
1.36952
1.37055
1.37164
1.37279
1.37401
1.37532
1.37671
1.3782
1.3798
1.38154
1.38342
1.38548
1.38775
1.39026
1.39307
1.39622
1.39977
1.40377
1.40817
1.41269
1.41673
1.4195
1.41875
1.3159
1.31529
1.31538
1.31628
1.31747
1.31876
1.32002
1.32112
1.32207
1.32287
1.32356
1.32413
1.32462
1.32503
1.32538
1.32568
1.32593
1.32615
1.32633
1.32649
1.32662
1.32673
1.32683
1.3269
1.32697
1.32701
1.32705
1.32708
1.32709
1.3271
1.3271
1.3271
1.32708
1.32706
1.32704
1.32701
1.32698
1.32694
1.32691
1.32687
1.32682
1.32678
1.32673
1.32669
1.32665
1.3266
1.32656
1.32652
1.32648
1.32644
1.32641
1.32638
1.32635
1.32633
1.32632
1.32631
1.3263
1.32631
1.32631
1.32633
1.32635
1.32638
1.32642
1.32647
1.32652
1.32658
1.32665
1.32673
1.32682
1.32692
1.32702
1.32714
1.32726
1.32739
1.32753
1.32768
1.32783
1.328
1.32817
1.32835
1.32853
1.32873
1.32893
1.32914
1.32935
1.32957
1.3298
1.33003
1.33027
1.33051
1.33075
1.331
1.33125
1.33151
1.33176
1.33202
1.33228
1.33254
1.33279
1.33305
1.3333
1.33356
1.33381
1.33405
1.33429
1.33453
1.33476
1.33498
1.3352
1.33541
1.33561
1.33581
1.33599
1.33617
1.33633
1.33649
1.33664
1.33677
1.33689
1.33701
1.33711
1.3372
1.33728
1.33735
1.33741
1.33746
1.3375
1.33754
1.33756
1.33758
1.33759
1.33759
1.33759
1.33759
1.33757
1.33756
1.33753
1.33751
1.33748
1.33745
1.33741
1.33738
1.33734
1.33729
1.33725
1.33721
1.33716
1.33711
1.33706
1.33701
1.33696
1.33691
1.33686
1.33681
1.33676
1.3367
1.33665
1.3366
1.33654
1.33649
1.33643
1.33638
1.33633
1.33627
1.33622
1.33616
1.33611
1.33605
1.336
1.33594
1.33589
1.33583
1.33577
1.33572
1.33566
1.33561
1.33555
1.3355
1.33544
1.33539
1.33533
1.33528
1.33522
1.33517
1.33511
1.33506
1.33501
1.33495
1.3349
1.33485
1.3348
1.33475
1.3347
1.33465
1.3346
1.33456
1.33451
1.33447
1.33443
1.33439
1.33435
1.33431
1.33428
1.33425
1.33422
1.33419
1.33416
1.33414
1.33412
1.3341
1.33409
1.33408
1.33407
1.33407
1.33407
1.33407
1.33408
1.3341
1.33411
1.33413
1.33416
1.33419
1.33423
1.33427
1.33432
1.33437
1.33443
1.3345
1.33457
1.33465
1.33474
1.33483
1.33493
1.33503
1.33515
1.33527
1.33539
1.33553
1.33568
1.33583
1.33599
1.33616
1.33633
1.33652
1.33671
1.33691
1.33712
1.33734
1.33757
1.3378
1.33805
1.3383
1.33856
1.33883
1.3391
1.33939
1.33968
1.33998
1.34028
1.34059
1.34091
1.34123
1.34156
1.34189
1.34223
1.34257
1.34291
1.34326
1.34361
1.34395
1.3443
1.34465
1.34499
1.34533
1.34567
1.34601
1.34634
1.34666
1.34698
1.34729
1.34759
1.34788
1.34816
1.34843
1.34869
1.34895
1.34919
1.34942
1.34964
1.34984
1.35004
1.35023
1.35041
1.35057
1.35073
1.35088
1.35102
1.35115
1.35128
1.3514
1.35151
1.35161
1.35171
1.35181
1.3519
1.35198
1.35206
1.35214
1.35222
1.35229
1.35236
1.35242
1.35249
1.35255
1.35261
1.35267
1.35273
1.35278
1.35284
1.35289
1.35294
1.353
1.35305
1.3531
1.35314
1.35319
1.35324
1.35329
1.35334
1.35339
1.35344
1.35349
1.35354
1.3536
1.35365
1.35372
1.35378
1.35385
1.35392
1.354
1.35409
1.35418
1.35428
1.35438
1.3545
1.35463
1.35477
1.35492
1.35508
1.35525
1.35544
1.35565
1.35587
1.3561
1.35636
1.35663
1.35692
1.35724
1.35757
1.35793
1.35831
1.35871
1.35914
1.3596
1.36008
1.36059
1.36114
1.36171
1.36231
1.36295
1.36362
1.36433
1.36507
1.36586
1.36668
1.36755
1.36847
1.36944
1.37046
1.37154
1.37268
1.37388
1.37517
1.37653
1.37799
1.37955
1.38123
1.38305
1.38502
1.38716
1.38951
1.39208
1.3949
1.39797
1.40125
1.4046
1.40776
1.4102
1.41143
1.41113
1.31823
1.31757
1.31753
1.31797
1.31868
1.31956
1.32047
1.32134
1.32213
1.32283
1.32344
1.32398
1.32444
1.32484
1.32518
1.32548
1.32574
1.32596
1.32615
1.32631
1.32645
1.32657
1.32667
1.32676
1.32683
1.32688
1.32692
1.32696
1.32698
1.32699
1.327
1.32699
1.32698
1.32697
1.32695
1.32692
1.32689
1.32686
1.32683
1.32679
1.32675
1.32671
1.32666
1.32662
1.32658
1.32653
1.32649
1.32645
1.32641
1.32638
1.32635
1.32632
1.3263
1.32628
1.32626
1.32625
1.32625
1.32625
1.32626
1.32628
1.3263
1.32633
1.32637
1.32642
1.32647
1.32654
1.32661
1.32669
1.32678
1.32688
1.32698
1.3271
1.32722
1.32736
1.3275
1.32765
1.3278
1.32797
1.32814
1.32832
1.32851
1.32871
1.32891
1.32912
1.32934
1.32956
1.32979
1.33002
1.33026
1.3305
1.33075
1.331
1.33126
1.33151
1.33177
1.33203
1.33229
1.33255
1.33281
1.33307
1.33332
1.33358
1.33383
1.33407
1.33431
1.33455
1.33478
1.33501
1.33523
1.33544
1.33564
1.33584
1.33602
1.3362
1.33636
1.33652
1.33666
1.3368
1.33692
1.33703
1.33713
1.33722
1.3373
1.33736
1.33742
1.33747
1.33751
1.33754
1.33756
1.33758
1.33759
1.33759
1.33759
1.33758
1.33756
1.33754
1.33752
1.33749
1.33746
1.33743
1.33739
1.33736
1.33731
1.33727
1.33723
1.33718
1.33714
1.33709
1.33704
1.33699
1.33694
1.33689
1.33684
1.33679
1.33673
1.33668
1.33663
1.33657
1.33652
1.33647
1.33641
1.33636
1.3363
1.33625
1.3362
1.33614
1.33609
1.33603
1.33598
1.33592
1.33587
1.33581
1.33576
1.3357
1.33565
1.33559
1.33553
1.33548
1.33542
1.33537
1.33531
1.33526
1.3352
1.33515
1.3351
1.33504
1.33499
1.33494
1.33488
1.33483
1.33478
1.33473
1.33468
1.33463
1.33459
1.33454
1.3345
1.33445
1.33441
1.33437
1.33433
1.3343
1.33426
1.33423
1.3342
1.33417
1.33414
1.33412
1.3341
1.33409
1.33407
1.33406
1.33405
1.33405
1.33405
1.33406
1.33406
1.33408
1.33409
1.33412
1.33414
1.33417
1.33421
1.33425
1.3343
1.33435
1.33441
1.33448
1.33455
1.33463
1.33471
1.33481
1.33491
1.33501
1.33513
1.33525
1.33538
1.33551
1.33566
1.33581
1.33597
1.33614
1.33631
1.3365
1.33669
1.3369
1.33711
1.33733
1.33755
1.33779
1.33803
1.33829
1.33855
1.33882
1.33909
1.33938
1.33967
1.33997
1.34028
1.34059
1.34091
1.34124
1.34157
1.3419
1.34224
1.34258
1.34293
1.34328
1.34363
1.34398
1.34433
1.34468
1.34502
1.34537
1.34571
1.34605
1.34638
1.3467
1.34702
1.34733
1.34763
1.34792
1.34821
1.34848
1.34874
1.34899
1.34923
1.34946
1.34968
1.34988
1.35008
1.35026
1.35044
1.3506
1.35076
1.35091
1.35104
1.35117
1.3513
1.35141
1.35152
1.35162
1.35172
1.35181
1.3519
1.35199
1.35207
1.35214
1.35222
1.35229
1.35235
1.35242
1.35248
1.35255
1.35261
1.35266
1.35272
1.35278
1.35283
1.35288
1.35294
1.35299
1.35304
1.35309
1.35313
1.35318
1.35323
1.35328
1.35332
1.35337
1.35342
1.35347
1.35352
1.35358
1.35363
1.35369
1.35375
1.35382
1.35389
1.35397
1.35405
1.35414
1.35424
1.35435
1.35446
1.35459
1.35472
1.35487
1.35503
1.3552
1.35539
1.35559
1.35581
1.35605
1.3563
1.35657
1.35686
1.35718
1.35751
1.35787
1.35824
1.35865
1.35908
1.35953
1.36001
1.36052
1.36106
1.36163
1.36223
1.36287
1.36353
1.36424
1.36498
1.36576
1.36658
1.36744
1.36835
1.3693
1.37031
1.37137
1.37249
1.37368
1.37493
1.37626
1.37767
1.37918
1.38079
1.38252
1.38437
1.38637
1.38852
1.39083
1.3933
1.39589
1.39851
1.40102
1.4032
1.40475
1.40536
1.40509
1.31983
1.31927
1.31914
1.31932
1.31976
1.32035
1.321
1.32167
1.32231
1.3229
1.32344
1.32392
1.32434
1.32472
1.32505
1.32533
1.32559
1.32581
1.326
1.32617
1.32631
1.32643
1.32654
1.32662
1.3267
1.32676
1.3268
1.32684
1.32687
1.32688
1.32689
1.32689
1.32689
1.32688
1.32686
1.32684
1.32681
1.32678
1.32675
1.32671
1.32667
1.32663
1.32659
1.32655
1.32651
1.32646
1.32642
1.32639
1.32635
1.32631
1.32628
1.32626
1.32623
1.32621
1.3262
1.32619
1.32619
1.32619
1.3262
1.32622
1.32624
1.32628
1.32631
1.32636
1.32642
1.32648
1.32656
1.32664
1.32673
1.32683
1.32694
1.32706
1.32718
1.32732
1.32746
1.32761
1.32777
1.32794
1.32811
1.3283
1.32849
1.32868
1.32889
1.3291
1.32932
1.32954
1.32977
1.33001
1.33025
1.3305
1.33075
1.331
1.33126
1.33151
1.33177
1.33204
1.3323
1.33256
1.33282
1.33308
1.33334
1.3336
1.33385
1.3341
1.33434
1.33458
1.33481
1.33504
1.33526
1.33547
1.33568
1.33587
1.33606
1.33623
1.3364
1.33655
1.3367
1.33683
1.33695
1.33706
1.33716
1.33724
1.33732
1.33738
1.33744
1.33749
1.33752
1.33755
1.33757
1.33758
1.33759
1.33759
1.33758
1.33757
1.33755
1.33753
1.33751
1.33748
1.33745
1.33741
1.33737
1.33734
1.33729
1.33725
1.33721
1.33716
1.33711
1.33707
1.33702
1.33697
1.33692
1.33686
1.33681
1.33676
1.33671
1.33666
1.3366
1.33655
1.3365
1.33644
1.33639
1.33634
1.33628
1.33623
1.33617
1.33612
1.33607
1.33601
1.33596
1.3359
1.33585
1.33579
1.33574
1.33568
1.33563
1.33557
1.33552
1.33546
1.33541
1.33535
1.3353
1.33524
1.33519
1.33513
1.33508
1.33502
1.33497
1.33492
1.33487
1.33481
1.33476
1.33471
1.33466
1.33462
1.33457
1.33452
1.33448
1.33443
1.33439
1.33435
1.33431
1.33428
1.33424
1.33421
1.33418
1.33415
1.33412
1.3341
1.33408
1.33406
1.33405
1.33404
1.33403
1.33403
1.33403
1.33403
1.33404
1.33405
1.33407
1.33409
1.33412
1.33415
1.33419
1.33423
1.33428
1.33433
1.33439
1.33445
1.33453
1.3346
1.33469
1.33478
1.33488
1.33499
1.3351
1.33522
1.33535
1.33548
1.33563
1.33578
1.33594
1.33611
1.33629
1.33647
1.33667
1.33687
1.33708
1.3373
1.33753
1.33777
1.33801
1.33827
1.33853
1.3388
1.33908
1.33937
1.33966
1.33996
1.34027
1.34058
1.34091
1.34123
1.34157
1.3419
1.34225
1.34259
1.34294
1.34329
1.34364
1.344
1.34435
1.3447
1.34505
1.3454
1.34575
1.34609
1.34642
1.34675
1.34707
1.34738
1.34768
1.34798
1.34826
1.34853
1.34879
1.34904
1.34928
1.34951
1.34973
1.34993
1.35012
1.35031
1.35048
1.35064
1.35079
1.35094
1.35107
1.3512
1.35132
1.35143
1.35154
1.35164
1.35173
1.35182
1.35191
1.35199
1.35207
1.35215
1.35222
1.35229
1.35235
1.35242
1.35248
1.35254
1.3526
1.35266
1.35272
1.35277
1.35282
1.35288
1.35293
1.35298
1.35303
1.35307
1.35312
1.35317
1.35322
1.35326
1.35331
1.35336
1.3534
1.35345
1.3535
1.35355
1.35361
1.35366
1.35372
1.35379
1.35386
1.35393
1.35401
1.3541
1.3542
1.3543
1.35441
1.35454
1.35467
1.35482
1.35497
1.35515
1.35533
1.35553
1.35575
1.35598
1.35623
1.3565
1.35679
1.3571
1.35743
1.35778
1.35816
1.35856
1.35899
1.35944
1.35992
1.36042
1.36096
1.36152
1.36212
1.36275
1.36341
1.36411
1.36484
1.36561
1.36642
1.36728
1.36817
1.36911
1.3701
1.37114
1.37224
1.37339
1.37461
1.3759
1.37726
1.3787
1.38023
1.38186
1.38359
1.38542
1.38737
1.38941
1.39153
1.39368
1.39576
1.39764
1.39917
1.40017
1.4005
1.40014
1.321
1.32054
1.32036
1.32042
1.32069
1.32108
1.32155
1.32206
1.32256
1.32305
1.32351
1.32393
1.32431
1.32465
1.32496
1.32524
1.32548
1.32569
1.32588
1.32604
1.32619
1.32631
1.32642
1.32651
1.32658
1.32665
1.3267
1.32674
1.32677
1.32679
1.3268
1.3268
1.3268
1.32679
1.32677
1.32675
1.32673
1.3267
1.32667
1.32663
1.3266
1.32656
1.32652
1.32648
1.32644
1.3264
1.32636
1.32632
1.32628
1.32625
1.32622
1.32619
1.32617
1.32615
1.32614
1.32613
1.32613
1.32613
1.32614
1.32616
1.32618
1.32622
1.32626
1.32631
1.32636
1.32643
1.32651
1.32659
1.32668
1.32678
1.32689
1.32701
1.32714
1.32728
1.32742
1.32757
1.32773
1.3279
1.32808
1.32826
1.32845
1.32865
1.32886
1.32907
1.32929
1.32952
1.32975
1.32999
1.33023
1.33048
1.33074
1.33099
1.33125
1.33151
1.33178
1.33204
1.33231
1.33257
1.33283
1.3331
1.33336
1.33361
1.33387
1.33412
1.33437
1.33461
1.33484
1.33507
1.33529
1.33551
1.33571
1.33591
1.3361
1.33627
1.33644
1.33659
1.33674
1.33687
1.33699
1.33709
1.33719
1.33727
1.33735
1.33741
1.33746
1.33751
1.33754
1.33756
1.33758
1.33759
1.33759
1.33759
1.33758
1.33757
1.33755
1.33752
1.3375
1.33747
1.33743
1.3374
1.33736
1.33732
1.33727
1.33723
1.33718
1.33714
1.33709
1.33704
1.33699
1.33694
1.33689
1.33684
1.33679
1.33674
1.33668
1.33663
1.33658
1.33653
1.33647
1.33642
1.33637
1.33631
1.33626
1.33621
1.33615
1.3361
1.33604
1.33599
1.33593
1.33588
1.33583
1.33577
1.33572
1.33566
1.33561
1.33555
1.3355
1.33544
1.33539
1.33533
1.33528
1.33522
1.33517
1.33511
1.33506
1.335
1.33495
1.3349
1.33485
1.33479
1.33474
1.33469
1.33464
1.3346
1.33455
1.3345
1.33446
1.33441
1.33437
1.33433
1.33429
1.33425
1.33422
1.33419
1.33416
1.33413
1.3341
1.33408
1.33406
1.33404
1.33402
1.33401
1.33401
1.334
1.334
1.33401
1.33401
1.33402
1.33404
1.33406
1.33409
1.33412
1.33416
1.3342
1.33424
1.3343
1.33436
1.33442
1.33449
1.33457
1.33466
1.33475
1.33485
1.33495
1.33506
1.33519
1.33531
1.33545
1.33559
1.33575
1.33591
1.33608
1.33625
1.33644
1.33663
1.33684
1.33705
1.33727
1.3375
1.33774
1.33798
1.33824
1.3385
1.33877
1.33905
1.33934
1.33964
1.33994
1.34025
1.34057
1.34089
1.34122
1.34156
1.3419
1.34224
1.34259
1.34294
1.3433
1.34366
1.34401
1.34437
1.34473
1.34508
1.34543
1.34578
1.34613
1.34646
1.34679
1.34712
1.34743
1.34774
1.34803
1.34832
1.34859
1.34885
1.3491
1.34934
1.34957
1.34978
1.34999
1.35018
1.35036
1.35053
1.35069
1.35083
1.35097
1.35111
1.35123
1.35135
1.35146
1.35156
1.35166
1.35175
1.35184
1.35192
1.352
1.35208
1.35215
1.35222
1.35229
1.35236
1.35242
1.35248
1.35254
1.3526
1.35266
1.35271
1.35276
1.35282
1.35287
1.35292
1.35297
1.35302
1.35306
1.35311
1.35316
1.3532
1.35325
1.35329
1.35334
1.35338
1.35343
1.35348
1.35353
1.35358
1.35363
1.35369
1.35376
1.35382
1.35389
1.35397
1.35406
1.35415
1.35425
1.35436
1.35448
1.35461
1.35475
1.35491
1.35508
1.35526
1.35545
1.35567
1.3559
1.35615
1.35641
1.3567
1.357
1.35733
1.35768
1.35805
1.35845
1.35887
1.35932
1.35979
1.3603
1.36083
1.36139
1.36198
1.3626
1.36326
1.36395
1.36467
1.36543
1.36623
1.36707
1.36795
1.36887
1.36984
1.37085
1.37192
1.37304
1.37422
1.37545
1.37675
1.37812
1.37957
1.38109
1.38268
1.38435
1.38609
1.38788
1.38969
1.39145
1.3931
1.39453
1.39562
1.39628
1.39645
1.39606
1.32189
1.32151
1.32132
1.32131
1.32146
1.32173
1.32206
1.32245
1.32285
1.32325
1.32363
1.32399
1.32433
1.32464
1.32492
1.32518
1.3254
1.32561
1.32579
1.32595
1.32609
1.32621
1.32632
1.32641
1.32648
1.32655
1.3266
1.32664
1.32667
1.32669
1.32671
1.32671
1.32671
1.3267
1.32669
1.32667
1.32665
1.32662
1.32659
1.32656
1.32652
1.32649
1.32645
1.32641
1.32637
1.32633
1.32629
1.32625
1.32622
1.32619
1.32615
1.32613
1.32611
1.32609
1.32607
1.32607
1.32606
1.32607
1.32608
1.3261
1.32612
1.32616
1.3262
1.32625
1.32631
1.32637
1.32645
1.32653
1.32663
1.32673
1.32684
1.32696
1.32709
1.32723
1.32738
1.32753
1.32769
1.32786
1.32804
1.32823
1.32842
1.32862
1.32883
1.32905
1.32927
1.3295
1.32973
1.32997
1.33022
1.33047
1.33072
1.33098
1.33125
1.33151
1.33178
1.33204
1.33231
1.33258
1.33285
1.33311
1.33337
1.33363
1.33389
1.33414
1.33439
1.33464
1.33487
1.3351
1.33533
1.33555
1.33575
1.33595
1.33614
1.33632
1.33648
1.33664
1.33678
1.33691
1.33703
1.33713
1.33723
1.33731
1.33738
1.33744
1.33749
1.33753
1.33756
1.33758
1.33759
1.3376
1.3376
1.33759
1.33758
1.33756
1.33754
1.33752
1.33749
1.33745
1.33742
1.33738
1.33734
1.3373
1.33725
1.33721
1.33716
1.33712
1.33707
1.33702
1.33697
1.33692
1.33687
1.33681
1.33676
1.33671
1.33666
1.33661
1.33655
1.3365
1.33645
1.33639
1.33634
1.33629
1.33623
1.33618
1.33613
1.33607
1.33602
1.33597
1.33591
1.33586
1.3358
1.33575
1.33569
1.33564
1.33558
1.33553
1.33547
1.33542
1.33536
1.33531