# vtk DataFile Version 2.0
LBE mesh
ASCII
DATASET STRUCTURED_POINTS
DIMENSIONS 400 100 1
ASPECT_RATIO 1 1 1
ORIGIN 0 0 0
POINT_DATA 40000
SCALARS rho double 1
LOOKUP_TABLE default
1.01914
1.06931
1.08445
1.08853
1.09073
1.09238
1.09352
1.09426
1.09476
1.09511
1.09537
1.09555
1.09568
1.09577
1.09583
1.09586
1.09587
1.09586
1.09584
1.09581
1.09576
1.09571
1.09565
1.09558
1.09551
1.09543
1.09535
1.09527
1.09518
1.09508
1.09499
1.09489
1.09479
1.09468
1.09458
1.09447
1.09435
1.09424
1.09412
1.09401
1.09388
1.09376
1.09364
1.09351
1.09338
1.09325
1.09311
1.09298
1.09284
1.09271
1.09257
1.09243
1.09229
1.09215
1.09201
1.09188
1.09174
1.09161
1.09148
1.09135
1.09122
1.0911
1.09099
1.09087
1.09077
1.09067
1.09058
1.09049
1.09041
1.09035
1.09028
1.09023
1.09019
1.09016
1.09013
1.09012
1.09012
1.09012
1.09014
1.09017
1.0902
1.09025
1.0903
1.09037
1.09044
1.09053
1.09062
1.09072
1.09083
1.09094
1.09106
1.09119
1.09132
1.09146
1.0916
1.09175
1.0919
1.09205
1.0922
1.09236
1.09251
1.09267
1.09283
1.09298
1.09314
1.09329
1.09344
1.09359
1.09374
1.09388
1.09402
1.09415
1.09428
1.09441
1.09453
1.09464
1.09475
1.09485
1.09495
1.09504
1.09512
1.0952
1.09528
1.09535
1.09541
1.09547
1.09552
1.09557
1.09562
1.09566
1.0957
1.09574
1.09577
1.0958
1.09583
1.09585
1.09587
1.09589
1.09591
1.09592
1.09593
1.09594
1.09595
1.09596
1.09596
1.09596
1.09596
1.09595
1.09594
1.09593
1.09592
1.0959
1.09589
1.09587
1.09585
1.09582
1.0958
1.09577
1.09575
1.09572
1.09569
1.09566
1.09563
1.0956
1.09557
1.09555
1.09552
1.0955
1.09547
1.09545
1.09543
1.09541
1.0954
1.09539
1.09538
1.09537
1.09536
1.09536
1.09537
1.09537
1.09538
1.09539
1.0954
1.09542
1.09543
1.09545
1.09547
1.09549
1.09552
1.09554
1.09556
1.09559
1.09561
1.09563
1.09565
1.09567
1.09569
1.0957
1.09572
1.09573
1.09573
1.09574
1.09574
1.09573
1.09572
1.09571
1.09569
1.09567
1.09565
1.09562
1.09558
1.09555
1.0955
1.09546
1.09541
1.09535
1.09529
1.09523
1.09517
1.0951
1.09503
1.09495
1.09488
1.0948
1.09472
1.09464
1.09456
1.09448
1.09439
1.09431
1.09423
1.09415
1.09406
1.09398
1.0939
1.09383
1.09375
1.09368
1.09361
1.09354
1.09347
1.09341
1.09336
1.0933
1.09326
1.09321
1.09318
1.09314
1.09312
1.0931
1.09308
1.09307
1.09307
1.09308
1.09309
1.09311
1.09314
1.09318
1.09322
1.09327
1.09333
1.0934
1.09347
1.09355
1.09364
1.09373
1.09383
1.09394
1.09405
1.09416
1.09429
1.09441
1.09454
1.09467
1.0948
1.09493
1.09507
1.0952
1.09533
1.09546
1.09559
1.09571
1.09583
1.09594
1.09605
1.09615
1.09625
1.09634
1.09643
1.0965
1.09657
1.09664
1.09669
1.09674
1.09679
1.09682
1.09685
1.09688
1.0969
1.09691
1.09693
1.09693
1.09694
1.09694
1.09693
1.09693
1.09692
1.09691
1.0969
1.09689
1.09687
1.09686
1.09684
1.09682
1.09681
1.09679
1.09677
1.09675
1.09673
1.09671
1.09668
1.09666
1.09664
1.09661
1.09658
1.09656
1.09653
1.0965
1.09647
1.09643
1.0964
1.09637
1.09633
1.0963
1.09626
1.09622
1.09619
1.09615
1.09612
1.09608
1.09605
1.09602
1.096
1.09597
1.09595
1.09594
1.09593
1.09593
1.09594
1.09595
1.09598
1.09602
1.09607
1.09614
1.09622
1.09632
1.09643
1.09657
1.09673
1.09691
1.09712
1.09736
1.09762
1.09791
1.09823
1.09859
1.09898
1.09941
1.09987
1.10038
1.10092
1.10151
1.10213
1.10281
1.10353
1.1043
1.10511
1.10598
1.10691
1.10789
1.10893
1.11004
1.11122
1.11248
1.11382
1.11525
1.11679
1.11846
1.12027
1.12226
1.12446
1.12695
1.1298
1.13314
1.13718
1.14238
1.1495
1.15947
1.17508
1.20863
1.05455
1.06656
1.07707
1.08457
1.08856
1.09074
1.09213
1.09312
1.09383
1.09434
1.09471
1.09499
1.09519
1.09534
1.09545
1.09552
1.09556
1.09558
1.09559
1.09558
1.09555
1.09552
1.09547
1.09542
1.09536
1.09529
1.09522
1.09514
1.09506
1.09497
1.09488
1.09479
1.09469
1.09459
1.09449
1.09438
1.09428
1.09417
1.09405
1.09394
1.09382
1.0937
1.09358
1.09345
1.09332
1.09319
1.09306
1.09293
1.0928
1.09266
1.09253
1.09239
1.09225
1.09212
1.09198
1.09184
1.09171
1.09158
1.09145
1.09132
1.0912
1.09108
1.09097
1.09086
1.09076
1.09066
1.09057
1.09049
1.09041
1.09035
1.09029
1.09024
1.0902
1.09016
1.09014
1.09013
1.09013
1.09014
1.09016
1.09018
1.09022
1.09027
1.09033
1.09039
1.09047
1.09055
1.09064
1.09074
1.09085
1.09097
1.09109
1.09121
1.09135
1.09148
1.09162
1.09177
1.09192
1.09207
1.09222
1.09237
1.09253
1.09268
1.09284
1.09299
1.09314
1.09329
1.09344
1.09359
1.09373
1.09387
1.09401
1.09414
1.09427
1.09439
1.09451
1.09462
1.09473
1.09483
1.09492
1.09501
1.0951
1.09517
1.09525
1.09532
1.09538
1.09544
1.09549
1.09554
1.09559
1.09563
1.09567
1.0957
1.09574
1.09577
1.09579
1.09582
1.09584
1.09586
1.09588
1.09589
1.0959
1.09591
1.09592
1.09593
1.09593
1.09593
1.09593
1.09592
1.09591
1.0959
1.09589
1.09588
1.09586
1.09584
1.09582
1.0958
1.09578
1.09575
1.09572
1.0957
1.09567
1.09564
1.09561
1.09558
1.09556
1.09553
1.0955
1.09548
1.09546
1.09544
1.09542
1.0954
1.09539
1.09537
1.09536
1.09536
1.09535
1.09535
1.09536
1.09536
1.09537
1.09538
1.09539
1.09541
1.09542
1.09544
1.09546
1.09549
1.09551
1.09553
1.09555
1.09558
1.0956
1.09562
1.09564
1.09566
1.09568
1.09569
1.09571
1.09571
1.09572
1.09572
1.09572
1.09572
1.09571
1.0957
1.09568
1.09566
1.09564
1.09561
1.09557
1.09553
1.09549
1.09545
1.0954
1.09534
1.09528
1.09522
1.09516
1.09509
1.09502
1.09495
1.09487
1.0948
1.09472
1.09464
1.09456
1.09447
1.09439
1.09431
1.09423
1.09414
1.09406
1.09398
1.0939
1.09383
1.09375
1.09368
1.09361
1.09354
1.09348
1.09342
1.09336
1.09331
1.09326
1.09322
1.09318
1.09315
1.09313
1.09311
1.09309
1.09309
1.09309
1.09309
1.09311
1.09313
1.09316
1.09319
1.09324
1.09329
1.09335
1.09341
1.09349
1.09357
1.09366
1.09375
1.09385
1.09396
1.09407
1.09419
1.09431
1.09443
1.09456
1.09469
1.09482
1.09496
1.09509
1.09522
1.09535
1.09548
1.0956
1.09573
1.09584
1.09596
1.09606
1.09617
1.09626
1.09635
1.09643
1.09651
1.09658
1.09664
1.09669
1.09674
1.09679
1.09682
1.09685
1.09688
1.0969
1.09691
1.09692
1.09693
1.09693
1.09693
1.09693
1.09692
1.09691
1.0969
1.09689
1.09688
1.09686
1.09685
1.09683
1.09681
1.0968
1.09678
1.09676
1.09674
1.09672
1.09669
1.09667
1.09665
1.09662
1.0966
1.09657
1.09654
1.09651
1.09648
1.09645
1.09642
1.09638
1.09635
1.09631
1.09628
1.09624
1.09621
1.09617
1.09614
1.0961
1.09607
1.09604
1.09601
1.09598
1.09596
1.09594
1.09593
1.09592
1.09592
1.09593
1.09595
1.09598
1.09602
1.09607
1.09614
1.09623
1.09633
1.09645
1.09659
1.09675
1.09694
1.09715
1.09739
1.09766
1.09795
1.09828
1.09864
1.09904
1.09947
1.09994
1.10045
1.101
1.10159
1.10222
1.1029
1.10363
1.1044
1.10523
1.10611
1.10704
1.10803
1.10909
1.11021
1.1114
1.11267
1.11403
1.11549
1.11706
1.11876
1.12062
1.12267
1.12495
1.12754
1.13054
1.13409
1.13844
1.1439
1.15104
1.16158
1.17967
1.20759
1.07223
1.07295
1.07901
1.08395
1.08717
1.08946
1.09108
1.09223
1.09305
1.09367
1.09413
1.09447
1.09474
1.09494
1.09509
1.09519
1.09527
1.09532
1.09534
1.09535
1.09534
1.09532
1.09529
1.09525
1.0952
1.09514
1.09508
1.09501
1.09493
1.09485
1.09477
1.09468
1.09459
1.0945
1.0944
1.0943
1.09419
1.09409
1.09398
1.09386
1.09375
1.09363
1.09351
1.09339
1.09326
1.09314
1.09301
1.09288
1.09275
1.09261
1.09248
1.09234
1.09221
1.09207
1.09194
1.09181
1.09168
1.09155
1.09142
1.09129
1.09117
1.09106
1.09095
1.09084
1.09074
1.09064
1.09056
1.09048
1.0904
1.09034
1.09028
1.09024
1.0902
1.09017
1.09015
1.09014
1.09014
1.09015
1.09017
1.0902
1.09024
1.09028
1.09034
1.09041
1.09049
1.09057
1.09066
1.09076
1.09087
1.09099
1.09111
1.09123
1.09137
1.0915
1.09164
1.09179
1.09193
1.09208
1.09223
1.09239
1.09254
1.09269
1.09285
1.093
1.09315
1.0933
1.09345
1.09359
1.09373
1.09387
1.09401
1.09414
1.09426
1.09438
1.0945
1.09461
1.09471
1.09481
1.0949
1.09499
1.09507
1.09515
1.09522
1.09529
1.09535
1.0954
1.09546
1.09551
1.09555
1.09559
1.09563
1.09567
1.0957
1.09573
1.09575
1.09578
1.0958
1.09582
1.09584
1.09585
1.09587
1.09588
1.09588
1.09589
1.09589
1.09589
1.09589
1.09589
1.09588
1.09587
1.09586
1.09585
1.09583
1.09581
1.09579
1.09577
1.09575
1.09572
1.0957
1.09567
1.09564
1.09562
1.09559
1.09556
1.09554
1.09551
1.09548
1.09546
1.09544
1.09542
1.0954
1.09538
1.09537
1.09536
1.09535
1.09535
1.09534
1.09534
1.09535
1.09535
1.09536
1.09537
1.09538
1.0954
1.09541
1.09543
1.09545
1.09548
1.0955
1.09552
1.09554
1.09557
1.09559
1.09561
1.09563
1.09565
1.09567
1.09568
1.09569
1.0957
1.09571
1.09571
1.09571
1.0957
1.0957
1.09568
1.09567
1.09565
1.09562
1.09559
1.09556
1.09552
1.09548
1.09543
1.09538
1.09533
1.09527
1.09521
1.09515
1.09508
1.09501
1.09494
1.09486
1.09479
1.09471
1.09463
1.09455
1.09447
1.09438
1.0943
1.09422
1.09414
1.09406
1.09398
1.0939
1.09382
1.09375
1.09367
1.0936
1.09354
1.09347
1.09341
1.09336
1.09331
1.09326
1.09322
1.09318
1.09315
1.09313
1.09311
1.09309
1.09309
1.09309
1.09309
1.09311
1.09313
1.09316
1.0932
1.09324
1.0933
1.09336
1.09342
1.0935
1.09358
1.09367
1.09376
1.09387
1.09397
1.09409
1.0942
1.09433
1.09445
1.09458
1.09471
1.09484
1.09497
1.09511
1.09524
1.09537
1.0955
1.09562
1.09574
1.09586
1.09597
1.09608
1.09618
1.09627
1.09636
1.09644
1.09652
1.09658
1.09664
1.0967
1.09675
1.09679
1.09682
1.09685
1.09688
1.09689
1.09691
1.09692
1.09692
1.09693
1.09693
1.09692
1.09692
1.09691
1.0969
1.09688
1.09687
1.09686
1.09684
1.09682
1.09681
1.09679
1.09677
1.09675
1.09673
1.09671
1.09668
1.09666
1.09664
1.09661
1.09658
1.09656
1.09653
1.0965
1.09647
1.09643
1.0964
1.09637
1.09633
1.0963
1.09626
1.09622
1.09619
1.09615
1.09611
1.09608
1.09605
1.09601
1.09599
1.09596
1.09594
1.09592
1.09591
1.0959
1.0959
1.09591
1.09593
1.09596
1.09601
1.09606
1.09613
1.09622
1.09632
1.09644
1.09659
1.09675
1.09694
1.09715
1.09739
1.09766
1.09796
1.09829
1.09866
1.09906
1.09949
1.09997
1.10048
1.10103
1.10163
1.10226
1.10295
1.10368
1.10446
1.10529
1.10617
1.10711
1.10811
1.10917
1.1103
1.1115
1.11277
1.11414
1.11561
1.11719
1.1189
1.12077
1.12283
1.12513
1.12773
1.13072
1.13423
1.13844
1.14369
1.15046
1.15898
1.16824
1.17641
1.08058
1.07992
1.08202
1.08455
1.08707
1.08906
1.09053
1.09164
1.09249
1.09315
1.09365
1.09405
1.09435
1.09458
1.09476
1.0949
1.095
1.09507
1.09511
1.09514
1.09515
1.09514
1.09512
1.09509
1.09505
1.095
1.09494
1.09488
1.09481
1.09474
1.09466
1.09458
1.09449
1.0944
1.09431
1.09421
1.09411
1.09401
1.0939
1.09379
1.09368
1.09356
1.09344
1.09332
1.0932
1.09307
1.09295
1.09282
1.09269
1.09256
1.09243
1.09229
1.09216
1.09203
1.09189
1.09176
1.09163
1.09151
1.09138
1.09126
1.09114
1.09103
1.09092
1.09081
1.09071
1.09062
1.09054
1.09046
1.09039
1.09033
1.09027
1.09023
1.09019
1.09016
1.09015
1.09014
1.09014
1.09015
1.09017
1.0902
1.09024
1.09029
1.09035
1.09042
1.0905
1.09059
1.09068
1.09078
1.09089
1.091
1.09113
1.09125
1.09138
1.09152
1.09166
1.0918
1.09195
1.0921
1.09225
1.0924
1.09255
1.09271
1.09286
1.09301
1.09316
1.09331
1.09345
1.0936
1.09374
1.09387
1.094
1.09413
1.09426
1.09437
1.09449
1.09459
1.0947
1.09479
1.09488
1.09497
1.09505
1.09512
1.09519
1.09526
1.09532
1.09537
1.09542
1.09547
1.09551
1.09555
1.09559
1.09562
1.09566
1.09568
1.09571
1.09574
1.09576
1.09578
1.09579
1.09581
1.09582
1.09583
1.09584
1.09585
1.09585
1.09585
1.09585
1.09584
1.09584
1.09583
1.09582
1.09581
1.09579
1.09577
1.09576
1.09573
1.09571
1.09569
1.09566
1.09564
1.09561
1.09559
1.09556
1.09553
1.09551
1.09548
1.09546
1.09544
1.09542
1.0954
1.09538
1.09537
1.09535
1.09534
1.09534
1.09533
1.09533
1.09533
1.09533
1.09534
1.09535
1.09536
1.09537
1.09538
1.0954
1.09542
1.09544
1.09546
1.09548
1.09551
1.09553
1.09555
1.09557
1.0956
1.09562
1.09563
1.09565
1.09566
1.09568
1.09568
1.09569
1.09569
1.09569
1.09569
1.09568
1.09567
1.09565
1.09563
1.0956
1.09557
1.09554
1.0955
1.09546
1.09542
1.09537
1.09531
1.09526
1.0952
1.09513
1.09507
1.095
1.09492
1.09485
1.09477
1.0947
1.09462
1.09454
1.09446
1.09437
1.09429
1.09421
1.09413
1.09405
1.09397
1.09389
1.09381
1.09374
1.09366
1.09359
1.09353
1.09346
1.0934
1.09335
1.0933
1.09325
1.09321
1.09317
1.09314
1.09312
1.0931
1.09308
1.09308
1.09308
1.09309
1.0931
1.09313
1.09316
1.09319
1.09324
1.09329
1.09335
1.09342
1.0935
1.09358
1.09367
1.09377
1.09387
1.09398
1.09409
1.09421
1.09434
1.09446
1.09459
1.09472
1.09486
1.09499
1.09512
1.09526
1.09539
1.09552
1.09564
1.09576
1.09588
1.09599
1.0961
1.0962
1.09629
1.09638
1.09646
1.09653
1.09659
1.09665
1.09671
1.09675
1.09679
1.09683
1.09685
1.09688
1.09689
1.09691
1.09692
1.09692
1.09692
1.09692
1.09692
1.09691
1.0969
1.09689
1.09688
1.09687
1.09685
1.09684
1.09682
1.0968
1.09678
1.09676
1.09674
1.09672
1.0967
1.09668
1.09665
1.09663
1.0966
1.09657
1.09654
1.09651
1.09648
1.09645
1.09642
1.09638
1.09635
1.09631
1.09628
1.09624
1.0962
1.09616
1.09613
1.09609
1.09605
1.09602
1.09599
1.09596
1.09593
1.09591
1.09589
1.09588
1.09588
1.09588
1.09589
1.09591
1.09594
1.09598
1.09603
1.0961
1.09619
1.09629
1.09642
1.09656
1.09673
1.09692
1.09713
1.09737
1.09764
1.09794
1.09828
1.09864
1.09904
1.09948
1.09995
1.10047
1.10102
1.10162
1.10226
1.10294
1.10368
1.10446
1.10529
1.10617
1.10711
1.10811
1.10917
1.1103
1.1115
1.11278
1.11414
1.1156
1.11717
1.11887
1.12072
1.12275
1.125
1.12752
1.13039
1.13369
1.13754
1.14204
1.14723
1.15294
1.15758
1.15763
1.08459
1.08408
1.08474
1.08611
1.08771
1.08914
1.09036
1.09136
1.09216
1.0928
1.0933
1.09371
1.09403
1.09428
1.09448
1.09464
1.09475
1.09484
1.0949
1.09494
1.09496
1.09496
1.09495
1.09493
1.0949
1.09486
1.09481
1.09476
1.09469
1.09463
1.09455
1.09447
1.09439
1.09431
1.09422
1.09412
1.09402
1.09392
1.09382
1.09371
1.0936
1.09349
1.09337
1.09325
1.09313
1.09301
1.09288
1.09276
1.09263
1.0925
1.09237
1.09224
1.09211
1.09197
1.09184
1.09171
1.09159
1.09146
1.09134
1.09122
1.0911
1.09099
1.09088
1.09078
1.09069
1.0906
1.09051
1.09044
1.09037
1.09031
1.09026
1.09021
1.09018
1.09015
1.09014
1.09013
1.09014
1.09015
1.09017
1.09021
1.09025
1.0903
1.09036
1.09043
1.09051
1.0906
1.09069
1.0908
1.09091
1.09102
1.09114
1.09127
1.0914
1.09154
1.09168
1.09182
1.09197
1.09212
1.09227
1.09242
1.09257
1.09272
1.09287
1.09302
1.09317
1.09331
1.09346
1.0936
1.09374
1.09387
1.094
1.09413
1.09425
1.09437
1.09448
1.09459
1.09468
1.09478
1.09487
1.09495
1.09503
1.0951
1.09516
1.09523
1.09528
1.09534
1.09539
1.09543
1.09547
1.09551
1.09555
1.09558
1.09561
1.09564
1.09566
1.09569
1.09571
1.09573
1.09574
1.09576
1.09577
1.09578
1.09579
1.0958
1.0958
1.0958
1.0958
1.0958
1.09579
1.09579
1.09578
1.09576
1.09575
1.09573
1.09571
1.0957
1.09567
1.09565
1.09563
1.0956
1.09558
1.09556
1.09553
1.09551
1.09548
1.09546
1.09543
1.09541
1.09539
1.09538
1.09536
1.09535
1.09533
1.09532
1.09532
1.09531
1.09531
1.09531
1.09532
1.09532
1.09533
1.09534
1.09536
1.09537
1.09539
1.09541
1.09543
1.09545
1.09547
1.09549
1.09551
1.09554
1.09556
1.09558
1.0956
1.09562
1.09563
1.09565
1.09566
1.09567
1.09567
1.09567
1.09567
1.09567
1.09566
1.09565
1.09563
1.09561
1.09558
1.09555
1.09552
1.09548
1.09544
1.0954
1.09535
1.09529
1.09524
1.09518
1.09511
1.09505
1.09498
1.09491
1.09483
1.09476
1.09468
1.0946
1.09452
1.09444
1.09436
1.09428
1.09419
1.09411
1.09403
1.09395
1.09387
1.0938
1.09372
1.09365
1.09358
1.09351
1.09345
1.09339
1.09333
1.09328
1.09323
1.09319
1.09316
1.09312
1.0931
1.09308
1.09307
1.09306
1.09306
1.09307
1.09309
1.09311
1.09314
1.09318
1.09323
1.09328
1.09334
1.09341
1.09349
1.09357
1.09367
1.09376
1.09387
1.09398
1.0941
1.09422
1.09434
1.09447
1.0946
1.09474
1.09487
1.095
1.09514
1.09527
1.09541
1.09553
1.09566
1.09578
1.0959
1.09601
1.09611
1.09621
1.09631
1.09639
1.09647
1.09654
1.09661
1.09666
1.09672
1.09676
1.0968
1.09683
1.09686
1.09688
1.0969
1.09691
1.09691
1.09692
1.09692
1.09692
1.09691
1.09691
1.0969
1.09689
1.09687
1.09686
1.09685
1.09683
1.09681
1.0968
1.09678
1.09676
1.09674
1.09672
1.09669
1.09667
1.09664
1.09662
1.09659
1.09656
1.09653
1.0965
1.09647
1.09644
1.0964
1.09637
1.09633
1.09629
1.09626
1.09622
1.09618
1.09614
1.0961
1.09606
1.09603
1.09599
1.09596
1.09593
1.0959
1.09588
1.09586
1.09585
1.09584
1.09584
1.09585
1.09587
1.0959
1.09594
1.09599
1.09606
1.09615
1.09625
1.09638
1.09652
1.09668
1.09687
1.09709
1.09733
1.0976
1.0979
1.09823
1.0986
1.09899
1.09943
1.0999
1.10042
1.10097
1.10157
1.10221
1.10289
1.10362
1.1044
1.10523
1.10612
1.10705
1.10805
1.1091
1.11022
1.11141
1.11268
1.11403
1.11547
1.11701
1.11867
1.12047
1.12243
1.12458
1.12696
1.12961
1.13257
1.13588
1.1395
1.14321
1.14652
1.14876
1.14818
1.08717
1.08672
1.0869
1.08761
1.08856
1.08957
1.09051
1.09133
1.09202
1.0926
1.09308
1.09347
1.09379
1.09404
1.09425
1.09441
1.09454
1.09464
1.09471
1.09476
1.09479
1.0948
1.0948
1.09478
1.09476
1.09473
1.09468
1.09463
1.09458
1.09451
1.09445
1.09437
1.09429
1.09421
1.09412
1.09403
1.09394
1.09384
1.09374
1.09363
1.09352
1.09341
1.0933
1.09318
1.09306
1.09294
1.09282
1.09269
1.09257
1.09244
1.09231
1.09218
1.09205
1.09192
1.09179
1.09166
1.09154
1.09141
1.09129
1.09117
1.09106
1.09095
1.09084
1.09074
1.09065
1.09056
1.09048
1.09041
1.09034
1.09028
1.09023
1.09019
1.09016
1.09014
1.09013
1.09012
1.09013
1.09014
1.09017
1.0902
1.09025
1.0903
1.09037
1.09044
1.09052
1.09061
1.0907
1.09081
1.09092
1.09103
1.09116
1.09128
1.09142
1.09155
1.09169
1.09184
1.09198
1.09213
1.09228
1.09243
1.09258
1.09273
1.09288
1.09303
1.09318
1.09332
1.09347
1.09361
1.09374
1.09388
1.09401
1.09413
1.09425
1.09437
1.09447
1.09458
1.09468
1.09477
1.09485
1.09493
1.09501
1.09507
1.09514
1.0952
1.09525
1.0953
1.09535
1.09539
1.09543
1.09547
1.0955
1.09553
1.09556
1.09559
1.09561
1.09563
1.09566
1.09567
1.09569
1.0957
1.09572
1.09573
1.09574
1.09574
1.09575
1.09575
1.09575
1.09575
1.09574
1.09573
1.09572
1.09571
1.0957
1.09569
1.09567
1.09565
1.09563
1.09561
1.09559
1.09556
1.09554
1.09552
1.09549
1.09547
1.09545
1.09543
1.0954
1.09538
1.09537
1.09535
1.09533
1.09532
1.09531
1.0953
1.0953
1.09529
1.09529
1.09529
1.0953
1.0953
1.09531
1.09532
1.09534
1.09535
1.09537
1.09539
1.09541
1.09543
1.09545
1.09547
1.0955
1.09552
1.09554
1.09556
1.09558
1.0956
1.09561
1.09562
1.09564
1.09564
1.09565
1.09565
1.09565
1.09564
1.09564
1.09562
1.09561
1.09559
1.09556
1.09553
1.0955
1.09546
1.09542
1.09537
1.09533
1.09527
1.09522
1.09516
1.09509
1.09503
1.09496
1.09489
1.09481
1.09474
1.09466
1.09458
1.0945
1.09442
1.09434
1.09426
1.09418
1.09409
1.09401
1.09393
1.09385
1.09378
1.0937
1.09363
1.09356
1.09349
1.09343
1.09336
1.09331
1.09326
1.09321
1.09317
1.09313
1.0931
1.09307
1.09305
1.09304
1.09303
1.09304
1.09304
1.09306
1.09308
1.09312
1.09316
1.0932
1.09326
1.09332
1.09339
1.09347
1.09356
1.09365
1.09375
1.09386
1.09397
1.09409
1.09421
1.09434
1.09447
1.0946
1.09474
1.09488
1.09501
1.09515
1.09529
1.09542
1.09555
1.09568
1.0958
1.09592
1.09603
1.09613
1.09623
1.09632
1.09641
1.09649
1.09656
1.09662
1.09668
1.09673
1.09677
1.09681
1.09684
1.09686
1.09688
1.0969
1.09691
1.09691
1.09692
1.09692
1.09691
1.09691
1.0969
1.09689
1.09688
1.09687
1.09686
1.09684
1.09683
1.09681
1.09679
1.09677
1.09675
1.09673
1.09671
1.09669
1.09666
1.09664
1.09661
1.09658
1.09656
1.09652
1.09649
1.09646
1.09642
1.09639
1.09635
1.09631
1.09627
1.09623
1.09619
1.09615
1.09611
1.09607
1.09603
1.096
1.09596
1.09593
1.09589
1.09586
1.09584
1.09582
1.09581
1.0958
1.0958
1.0958
1.09582
1.09585
1.09589
1.09594
1.09601
1.09609
1.09619
1.09632
1.09646
1.09662
1.09681
1.09702
1.09726
1.09753
1.09782
1.09815
1.09851
1.09891
1.09935
1.09982
1.10033
1.10088
1.10147
1.10211
1.10279
1.10352
1.10429
1.10512
1.10599
1.10692
1.10791
1.10895
1.11006
1.11123
1.11248
1.1138
1.11521
1.11671
1.11831
1.12004
1.1219
1.12392
1.1261
1.12848
1.13105
1.13377
1.13653
1.13913
1.14114
1.14215
1.14193
1.08896
1.08851
1.08851
1.08887
1.08944
1.09012
1.09081
1.09145
1.09203
1.09253
1.09295
1.09331
1.09361
1.09386
1.09407
1.09423
1.09436
1.09446
1.09454
1.09459
1.09463
1.09465
1.09465
1.09464
1.09463
1.0946
1.09456
1.09451
1.09446
1.0944
1.09434
1.09427
1.09419
1.09411
1.09403
1.09394
1.09385
1.09375
1.09365
1.09355
1.09345
1.09334
1.09322
1.09311
1.09299
1.09287
1.09275
1.09263
1.0925
1.09237
1.09225
1.09212
1.09199
1.09186
1.09173
1.09161
1.09148
1.09136
1.09124
1.09113
1.09101
1.09091
1.0908
1.0907
1.09061
1.09053
1.09045
1.09038
1.09031
1.09026
1.09021
1.09017
1.09014
1.09012
1.09011
1.09011
1.09012
1.09014
1.09016
1.0902
1.09025
1.0903
1.09037
1.09044
1.09052
1.09061
1.09071
1.09081
1.09093
1.09104
1.09117
1.0913
1.09143
1.09157
1.09171
1.09185
1.092
1.09214
1.09229
1.09244
1.09259
1.09274
1.09289
1.09304
1.09319
1.09333
1.09347
1.09361
1.09375
1.09388
1.09401
1.09413
1.09425
1.09436
1.09447
1.09457
1.09467
1.09475
1.09484
1.09491
1.09499
1.09505
1.09511
1.09517
1.09522
1.09527
1.09531
1.09535
1.09539
1.09542
1.09545
1.09548
1.09551
1.09553
1.09556
1.09558
1.0956
1.09562
1.09563
1.09565
1.09566
1.09567
1.09568
1.09568
1.09569
1.09569
1.09569
1.09569
1.09569
1.09568
1.09567
1.09566
1.09565
1.09564
1.09562
1.0956
1.09558
1.09556
1.09554
1.09552
1.0955
1.09548
1.09546
1.09544
1.09541
1.09539
1.09537
1.09535
1.09534
1.09532
1.09531
1.0953
1.09529
1.09528
1.09527
1.09527
1.09527
1.09527
1.09528
1.09529
1.09529
1.09531
1.09532
1.09533
1.09535
1.09537
1.09539
1.09541
1.09543
1.09545
1.09548
1.0955
1.09552
1.09554
1.09556
1.09557
1.09559
1.0956
1.09561
1.09562
1.09562
1.09563
1.09562
1.09562
1.09561
1.0956
1.09558
1.09556
1.09553
1.09551
1.09547
1.09544
1.09539
1.09535
1.0953
1.09525
1.09519
1.09513
1.09507
1.095
1.09494
1.09486
1.09479
1.09472
1.09464
1.09456
1.09448
1.0944
1.09432
1.09423
1.09415
1.09407
1.09399
1.09391
1.09383
1.09375
1.09367
1.0936
1.09353
1.09346
1.0934
1.09334
1.09328
1.09323
1.09318
1.09313
1.0931
1.09306
1.09304
1.09302
1.09301
1.093
1.093
1.09301
1.09303
1.09305
1.09308
1.09312
1.09317
1.09323
1.09329
1.09336
1.09344
1.09353
1.09363
1.09373
1.09384
1.09395
1.09408
1.0942
1.09433
1.09447
1.0946
1.09474
1.09488
1.09502
1.09516
1.0953
1.09543
1.09557
1.09569
1.09582
1.09594
1.09605
1.09615
1.09625
1.09634
1.09643
1.09651
1.09657
1.09664
1.09669
1.09674
1.09678
1.09681
1.09684
1.09687
1.09688
1.0969
1.09691
1.09691
1.09691
1.09691
1.09691
1.0969
1.0969
1.09689
1.09688
1.09686
1.09685
1.09684
1.09682
1.0968
1.09679
1.09677
1.09675
1.09673
1.09671
1.09668
1.09666
1.09663
1.09661
1.09658
1.09655
1.09652
1.09648
1.09645
1.09641
1.09637
1.09634
1.0963
1.09625
1.09621
1.09617
1.09613
1.09609
1.09604
1.096
1.09596
1.09592
1.09589
1.09585
1.09582
1.0958
1.09577
1.09576
1.09575
1.09575
1.09575
1.09577
1.09579
1.09583
1.09588
1.09594
1.09603
1.09612
1.09624
1.09638
1.09654
1.09672
1.09693
1.09717
1.09743
1.09772
1.09805
1.09841
1.0988
1.09923
1.0997
1.1002
1.10075
1.10134
1.10197
1.10264
1.10336
1.10413
1.10495
1.10581
1.10673
1.1077
1.10873
1.10982
1.11097
1.11219
1.11347
1.11484
1.11628
1.11782
1.11945
1.12119
1.12304
1.12502
1.12711
1.12928
1.13147
1.13355
1.13535
1.13664
1.13715
1.13695
1.09021
1.08981
1.08972
1.08989
1.09023
1.09068
1.09118
1.09167
1.09213
1.09255
1.09292
1.09323
1.09351
1.09374
1.09393
1.09409
1.09422
1.09432
1.09439
1.09445
1.09449
1.09451
1.09452
1.09452
1.0945
1.09448
1.09445
1.0944
1.09436
1.0943
1.09424
1.09417
1.0941
1.09402
1.09394
1.09385
1.09377
1.09367
1.09357
1.09347
1.09337
1.09326
1.09315
1.09304
1.09292
1.0928
1.09268
1.09256
1.09243
1.09231
1.09218
1.09206
1.09193
1.0918
1.09168
1.09155
1.09143
1.09131
1.09119
1.09107
1.09096
1.09086
1.09076
1.09066
1.09057
1.09049
1.09041
1.09034
1.09028
1.09023
1.09018
1.09015
1.09012
1.0901
1.09009
1.09009
1.0901
1.09012
1.09015
1.09019
1.09024
1.0903
1.09036
1.09044
1.09052
1.09061
1.09071
1.09082
1.09093
1.09105
1.09117
1.0913
1.09144
1.09157
1.09172
1.09186
1.09201
1.09215
1.0923
1.09245
1.0926
1.09275
1.0929
1.09305
1.0932
1.09334
1.09348
1.09362
1.09376
1.09389
1.09401
1.09414
1.09425
1.09436
1.09447
1.09457
1.09466
1.09474
1.09482
1.0949
1.09497
1.09503
1.09509
1.09514
1.09519
1.09523
1.09527
1.09531
1.09534
1.09537
1.0954
1.09543
1.09545
1.09548
1.0955
1.09552
1.09554
1.09555
1.09557
1.09558
1.0956
1.09561
1.09561
1.09562
1.09563
1.09563
1.09563
1.09563
1.09562
1.09562
1.09561
1.0956
1.09559
1.09558
1.09557
1.09555
1.09553
1.09551
1.0955
1.09548
1.09546
1.09544
1.09541
1.09539
1.09537
1.09536
1.09534
1.09532
1.0953
1.09529
1.09528
1.09527
1.09526
1.09525
1.09525
1.09525
1.09525
1.09525
1.09525
1.09526
1.09527
1.09528
1.0953
1.09531
1.09533
1.09535
1.09537
1.09539
1.09541
1.09543
1.09545
1.09547
1.09549
1.09551
1.09553
1.09555
1.09556
1.09557
1.09558
1.09559
1.0956
1.0956
1.09559
1.09559
1.09558
1.09557
1.09555
1.09553
1.0955
1.09548
1.09544
1.09541
1.09537
1.09532
1.09527
1.09522
1.09516
1.0951
1.09504
1.09498
1.09491
1.09484
1.09476
1.09469
1.09461
1.09453
1.09445
1.09437
1.09429
1.09421
1.09412
1.09404
1.09396
1.09388
1.0938
1.09372
1.09364
1.09357
1.0935
1.09343
1.09336
1.0933
1.09324
1.09319
1.09314
1.09309
1.09306
1.09302
1.093
1.09298
1.09296
1.09296
1.09296
1.09297
1.09298
1.09301
1.09304
1.09308
1.09313
1.09319
1.09325
1.09332
1.09341
1.0935
1.09359
1.0937
1.09381
1.09393
1.09405
1.09418
1.09432
1.09445
1.09459
1.09474
1.09488
1.09502
1.09516
1.09531
1.09544
1.09558
1.09571
1.09583
1.09595
1.09607
1.09617
1.09627
1.09636
1.09645
1.09652
1.09659
1.09665
1.09671
1.09675
1.09679
1.09682
1.09685
1.09687
1.09689
1.0969
1.09691
1.09691
1.09691
1.09691
1.09691
1.0969
1.09689
1.09688
1.09687
1.09686
1.09684
1.09683
1.09682
1.0968
1.09678
1.09677
1.09675
1.09673
1.0967
1.09668
1.09666
1.09663
1.0966
1.09657
1.09654
1.09651
1.09648
1.09644
1.0964
1.09636
1.09632
1.09628
1.09624
1.09619
1.09615
1.0961
1.09606
1.09601
1.09597
1.09593
1.09589
1.09585
1.09581
1.09578
1.09575
1.09573
1.09571
1.09569
1.09569
1.09569
1.0957
1.09572
1.09576
1.09581
1.09587
1.09594
1.09604
1.09615
1.09629
1.09644
1.09662
1.09682
1.09705
1.09731
1.0976
1.09792
1.09827
1.09866
1.09908
1.09954
1.10004
1.10058
1.10116
1.10178
1.10245
1.10316
1.10391
1.10472
1.10557
1.10647
1.10743
1.10844
1.1095
1.11062
1.1118
1.11305
1.11435
1.11573
1.11719
1.11872
1.12033
1.12201
1.12377
1.12558
1.12739
1.12914
1.13071
1.13199
1.13283
1.13313
1.13286
1.09112
1.09078
1.09065
1.09071
1.09091
1.09121
1.09155
1.09192
1.09228
1.09262
1.09293
1.09321
1.09345
1.09366
1.09383
1.09398
1.0941
1.0942
1.09427
1.09433
1.09437
1.09439
1.0944
1.0944
1.09439
1.09437
1.09433
1.0943
1.09425
1.0942
1.09414
1.09407
1.09401
1.09393
1.09385
1.09377
1.09368
1.09359
1.09349
1.09339
1.09329
1.09318
1.09308
1.09296
1.09285
1.09273
1.09261
1.09249
1.09237
1.09224
1.09212
1.09199
1.09187
1.09174
1.09162
1.0915
1.09137
1.09125
1.09114
1.09103
1.09092
1.09081
1.09071
1.09062
1.09053
1.09045
1.09038
1.09031
1.09025
1.0902
1.09016
1.09012
1.0901
1.09008
1.09007
1.09008
1.09009
1.09011
1.09014
1.09018
1.09023
1.09029
1.09036
1.09043
1.09052
1.09061
1.09071
1.09082
1.09093
1.09105
1.09118
1.09131
1.09145
1.09158
1.09173
1.09187
1.09202
1.09216
1.09231
1.09246
1.09261
1.09276
1.09291
1.09306
1.0932
1.09335
1.09349
1.09363
1.09376
1.09389
1.09402
1.09414
1.09425
1.09436
1.09447
1.09456
1.09465
1.09473
1.09481
1.09488
1.09495
1.095
1.09506
1.09511
1.09515
1.09519
1.09523
1.09526
1.09529
1.09532
1.09535
1.09537
1.0954
1.09542
1.09544
1.09546
1.09547
1.09549
1.0955
1.09552
1.09553
1.09554
1.09555
1.09556
1.09556
1.09556
1.09557
1.09556
1.09556
1.09556
1.09555
1.09554
1.09553
1.09552
1.09551
1.0955
1.09548
1.09546
1.09545
1.09543
1.09541
1.09539
1.09537
1.09535
1.09534
1.09532
1.0953
1.09529
1.09527
1.09526
1.09525
1.09524
1.09523
1.09523
1.09522
1.09522
1.09522
1.09523
1.09523
1.09524
1.09525
1.09526
1.09527
1.09529
1.09531
1.09532
1.09534
1.09536
1.09538
1.09541
1.09543
1.09545
1.09547
1.09548
1.0955
1.09552
1.09553
1.09554
1.09555
1.09556
1.09556
1.09557
1.09556
1.09556
1.09555
1.09554
1.09552
1.0955
1.09547
1.09544
1.09541
1.09537
1.09533
1.09529
1.09524
1.09519
1.09513
1.09507
1.09501
1.09495
1.09488
1.09481
1.09474
1.09466
1.09458
1.0945
1.09442
1.09434
1.09426
1.09418
1.09409
1.09401
1.09393
1.09384
1.09376
1.09368
1.09361
1.09353
1.09346
1.09339
1.09332
1.09326
1.0932
1.09314
1.09309
1.09305
1.09301
1.09298
1.09295
1.09293
1.09291
1.09291
1.09291
1.09291
1.09293
1.09295
1.09299
1.09303
1.09308
1.09314
1.0932
1.09328
1.09336
1.09345
1.09355
1.09366
1.09378
1.0939
1.09402
1.09416
1.09429
1.09443
1.09458
1.09472
1.09487
1.09502
1.09517
1.09531
1.09545
1.09559
1.09572
1.09585
1.09597
1.09608
1.09619
1.09629
1.09638
1.09647
1.09654
1.09661
1.09667
1.09672
1.09676
1.0968
1.09683
1.09686
1.09688
1.09689
1.0969
1.09691
1.09691
1.09691
1.0969
1.0969
1.09689
1.09688
1.09687
1.09686
1.09685
1.09684
1.09682
1.09681
1.09679
1.09678
1.09676
1.09674
1.09672
1.0967
1.09668
1.09665
1.09663
1.0966
1.09657
1.09654
1.0965
1.09647
1.09643
1.09639
1.09635
1.09631
1.09626
1.09622
1.09617
1.09612
1.09608
1.09603
1.09598
1.09594
1.09589
1.09585
1.09581
1.09577
1.09573
1.0957
1.09567
1.09565
1.09563
1.09563
1.09563
1.09563
1.09565
1.09568
1.09573
1.09578
1.09586
1.09595
1.09605
1.09618
1.09633
1.09651
1.0967
1.09693
1.09718
1.09746
1.09777
1.09812
1.0985
1.09891
1.09936
1.09985
1.10038
1.10095
1.10156
1.10222
1.10291
1.10366
1.10445
1.10528
1.10617
1.1071
1.10808
1.10912
1.1102
1.11134
1.11254
1.11379
1.11509
1.11646
1.11788
1.11936
1.12088
1.12243
1.12398
1.12548
1.12688
1.12809
1.12901
1.12958
1.12975
1.12945
1.09181
1.09152
1.09138
1.09137
1.09148
1.09167
1.09192
1.09219
1.09247
1.09274
1.093
1.09323
1.09343
1.09362
1.09377
1.0939
1.09401
1.0941
1.09417
1.09423
1.09426
1.09429
1.0943
1.0943
1.09429
1.09427
1.09424
1.0942
1.09416
1.0941
1.09405
1.09399
1.09392
1.09385
1.09377
1.09369
1.0936
1.09351
1.09342
1.09332
1.09322
1.09311
1.093
1.09289
1.09278
1.09266
1.09255
1.09243
1.09231
1.09218
1.09206
1.09193
1.09181
1.09168
1.09156
1.09144
1.09132
1.0912
1.09109
1.09098
1.09087
1.09077
1.09067
1.09058
1.09049
1.09041
1.09034
1.09027
1.09021
1.09017
1.09012
1.09009
1.09007
1.09006
1.09005
1.09005
1.09007
1.09009
1.09012
1.09017
1.09022
1.09028
1.09035
1.09043
1.09051
1.09061
1.09071
1.09082
1.09093
1.09105
1.09118
1.09131
1.09145
1.09159
1.09173
1.09188
1.09202
1.09217
1.09232
1.09247
1.09262
1.09277
1.09292
1.09306
1.09321
1.09335
1.09349
1.09363
1.09376
1.09389
1.09402
1.09414
1.09425
1.09436
1.09446
1.09456
1.09464
1.09472
1.0948
1.09486
1.09492
1.09498
1.09503
1.09507
1.09511
1.09515
1.09518
1.09521
1.09524
1.09527
1.09529
1.09532
1.09534
1.09536
1.09537
1.09539
1.09541
1.09542
1.09544
1.09545
1.09546
1.09547
1.09548
1.09549
1.09549
1.0955
1.0955
1.0955
1.0955
1.09549
1.09549
1.09548
1.09547
1.09546
1.09545
1.09544
1.09542
1.09541
1.09539
1.09538
1.09536
1.09534
1.09533
1.09531
1.09529
1.09528
1.09526
1.09525
1.09523
1.09522
1.09521
1.09521
1.0952
1.09519