# vtk DataFile Version 2.0
LBE mesh
ASCII
DATASET STRUCTURED_POINTS
DIMENSIONS 400 100 1
ASPECT_RATIO 1 1 1
ORIGIN 0 0 0
POINT_DATA 40000
SCALARS rho double 1
LOOKUP_TABLE default
1.00472
1.05115
1.06533
1.06943
1.0717
1.07334
1.07443
1.07512
1.07556
1.07583
1.076
1.07608
1.07609
1.07606
1.07598
1.07586
1.07572
1.07555
1.07535
1.07514
1.07492
1.07467
1.07442
1.07416
1.07388
1.0736
1.07331
1.07302
1.07272
1.07241
1.07211
1.0718
1.07149
1.07119
1.07088
1.07058
1.07027
1.06998
1.06968
1.06939
1.0691
1.06882
1.06855
1.06828
1.06802
1.06777
1.06753
1.06729
1.06707
1.06685
1.06665
1.06645
1.06627
1.06609
1.06593
1.06578
1.06564
1.06551
1.06539
1.06529
1.0652
1.06512
1.06506
1.065
1.06497
1.06494
1.06493
1.06493
1.06494
1.06497
1.065
1.06506
1.06512
1.0652
1.06528
1.06538
1.0655
1.06562
1.06575
1.0659
1.06605
1.06622
1.06639
1.06657
1.06676
1.06695
1.06716
1.06737
1.06758
1.0678
1.06802
1.06825
1.06848
1.06871
1.06894
1.06917
1.0694
1.06962
1.06985
1.07007
1.07029
1.0705
1.0707
1.07091
1.0711
1.07128
1.07146
1.07163
1.07179
1.07193
1.07207
1.0722
1.07231
1.07241
1.07251
1.07258
1.07265
1.07271
1.07275
1.07279
1.07281
1.07282
1.07283
1.07282
1.07281
1.07278
1.07275
1.07272
1.07268
1.07263
1.07258
1.07252
1.07246
1.0724
1.07233
1.07226
1.07219
1.07212
1.07204
1.07197
1.07189
1.07181
1.07174
1.07166
1.07158
1.07151
1.07143
1.07135
1.07128
1.07121
1.07114
1.07107
1.07101
1.07094
1.07089
1.07083
1.07078
1.07073
1.07069
1.07065
1.07062
1.07059
1.07057
1.07056
1.07055
1.07055
1.07055
1.07056
1.07057
1.0706
1.07063
1.07066
1.0707
1.07075
1.0708
1.07086
1.07092
1.07099
1.07106
1.07113
1.07121
1.07129
1.07137
1.07146
1.07154
1.07163
1.07171
1.0718
1.07188
1.07197
1.07205
1.07212
1.0722
1.07227
1.07233
1.0724
1.07245
1.07251
1.07255
1.07259
1.07263
1.07266
1.07268
1.0727
1.07271
1.07271
1.07271
1.0727
1.07268
1.07266
1.07263
1.07259
1.07254
1.07249
1.07244
1.07238
1.07231
1.07223
1.07215
1.07207
1.07198
1.07188
1.07179
1.07168
1.07157
1.07146
1.07135
1.07123
1.07111
1.07099
1.07087
1.07075
1.07062
1.0705
1.07037
1.07025
1.07013
1.07
1.06988
1.06977
1.06966
1.06955
1.06944
1.06934
1.06925
1.06916
1.06907
1.069
1.06893
1.06887
1.06882
1.06878
1.06875
1.06873
1.06872
1.06873
1.06874
1.06877
1.06881
1.06886
1.06893
1.06901
1.0691
1.06921
1.06933
1.06946
1.06961
1.06977
1.06995
1.07013
1.07033
1.07054
1.07076
1.07099
1.07122
1.07146
1.07171
1.07197
1.07223
1.07249
1.07276
1.07302
1.07329
1.07355
1.07382
1.07408
1.07433
1.07458
1.07483
1.07507
1.07531
1.07554
1.07576
1.07598
1.07618
1.07638
1.07658
1.07676
1.07694
1.07711
1.07727
1.07743
1.07757
1.07771
1.07784
1.07797
1.07808
1.07819
1.07829
1.07839
1.07848
1.07855
1.07863
1.07869
1.07875
1.0788
1.07884
1.07887
1.0789
1.07892
1.07894
1.07894
1.07894
1.07894
1.07892
1.0789
1.07888
1.07885
1.07881
1.07877
1.07872
1.07868
1.07862
1.07856
1.0785
1.07844
1.07837
1.0783
1.07823
1.07815
1.07808
1.078
1.07792
1.07785
1.07777
1.07769
1.07762
1.07755
1.07748
1.07742
1.07736
1.0773
1.07726
1.07722
1.07719
1.07717
1.07716
1.07717
1.07719
1.07723
1.07728
1.07736
1.07745
1.07757
1.07772
1.07789
1.07809
1.07832
1.07859
1.07888
1.07922
1.07959
1.08001
1.08047
1.08098
1.08153
1.08214
1.0828
1.08351
1.08429
1.08514
1.08605
1.08704
1.08811
1.08927
1.09053
1.09191
1.09341
1.09507
1.09691
1.09897
1.10132
1.10403
1.10723
1.11113
1.11617
1.1231
1.13281
1.14833
1.18213
1.03571
1.04818
1.05856
1.06575
1.06959
1.07172
1.07307
1.074
1.07464
1.07507
1.07535
1.07552
1.07561
1.07563
1.0756
1.07552
1.07541
1.07527
1.0751
1.07492
1.07471
1.07448
1.07424
1.07399
1.07373
1.07346
1.07318
1.0729
1.07261
1.07231
1.07202
1.07172
1.07142
1.07111
1.07081
1.07051
1.07022
1.06992
1.06963
1.06935
1.06907
1.06879
1.06852
1.06826
1.068
1.06775
1.06751
1.06728
1.06706
1.06684
1.06664
1.06645
1.06627
1.06609
1.06593
1.06579
1.06565
1.06552
1.06541
1.06531
1.06522
1.06514
1.06508
1.06503
1.06499
1.06497
1.06496
1.06496
1.06497
1.065
1.06504
1.0651
1.06516
1.06524
1.06533
1.06543
1.06554
1.06567
1.0658
1.06595
1.0661
1.06626
1.06644
1.06662
1.06681
1.06701
1.06721
1.06742
1.06763
1.06785
1.06807
1.0683
1.06853
1.06875
1.06898
1.06921
1.06944
1.06967
1.06989
1.07011
1.07032
1.07053
1.07074
1.07094
1.07113
1.07131
1.07149
1.07165
1.07181
1.07195
1.07209
1.07221
1.07232
1.07242
1.07251
1.07259
1.07265
1.07271
1.07275
1.07278
1.0728
1.07282
1.07282
1.07281
1.0728
1.07278
1.07275
1.07271
1.07267
1.07262
1.07257
1.07251
1.07245
1.07239
1.07232
1.07226
1.07219
1.07211
1.07204
1.07197
1.07189
1.07181
1.07174
1.07166
1.07158
1.07151
1.07143
1.07136
1.07129
1.07122
1.07115
1.07108
1.07102
1.07096
1.0709
1.07084
1.07079
1.07075
1.07071
1.07067
1.07064
1.07061
1.07059
1.07058
1.07057
1.07057
1.07057
1.07058
1.0706
1.07062
1.07065
1.07069
1.07073
1.07078
1.07083
1.07088
1.07095
1.07101
1.07108
1.07116
1.07123
1.07131
1.07139
1.07148
1.07156
1.07165
1.07173
1.07182
1.0719
1.07198
1.07206
1.07214
1.07221
1.07228
1.07234
1.0724
1.07246
1.07251
1.07256
1.0726
1.07263
1.07266
1.07268
1.0727
1.07271
1.07271
1.07271
1.0727
1.07268
1.07266
1.07263
1.07259
1.07254
1.0725
1.07244
1.07238
1.07231
1.07224
1.07216
1.07207
1.07198
1.07189
1.07179
1.07169
1.07158
1.07147
1.07136
1.07124
1.07113
1.071
1.07088
1.07076
1.07064
1.07051
1.07039
1.07027
1.07014
1.07002
1.0699
1.06979
1.06968
1.06957
1.06946
1.06937
1.06927
1.06918
1.0691
1.06903
1.06896
1.0689
1.06886
1.06882
1.06879
1.06877
1.06876
1.06876
1.06878
1.06881
1.06885
1.0689
1.06897
1.06905
1.06915
1.06925
1.06938
1.06951
1.06966
1.06982
1.07
1.07018
1.07038
1.07059
1.07081
1.07104
1.07127
1.07151
1.07176
1.07202
1.07227
1.07254
1.0728
1.07306
1.07333
1.07359
1.07385
1.07411
1.07436
1.07462
1.07486
1.0751
1.07533
1.07556
1.07578
1.076
1.0762
1.0764
1.07659
1.07678
1.07695
1.07712
1.07728
1.07744
1.07758
1.07772
1.07785
1.07797
1.07809
1.0782
1.0783
1.07839
1.07848
1.07856
1.07863
1.07869
1.07875
1.07879
1.07883
1.07887
1.0789
1.07891
1.07893
1.07893
1.07893
1.07892
1.07891
1.07889
1.07886
1.07883
1.0788
1.07876
1.07871
1.07866
1.07861
1.07855
1.07849
1.07842
1.07836
1.07829
1.07822
1.07814
1.07807
1.07799
1.07792
1.07784
1.07777
1.07769
1.07762
1.07755
1.07748
1.07742
1.07736
1.07731
1.07727
1.07723
1.0772
1.07719
1.07718
1.07719
1.07722
1.07726
1.07732
1.0774
1.0775
1.07762
1.07777
1.07794
1.07815
1.07839
1.07865
1.07896
1.0793
1.07968
1.0801
1.08057
1.08108
1.08165
1.08226
1.08293
1.08366
1.08445
1.0853
1.08623
1.08723
1.08832
1.0895
1.09079
1.09219
1.09374
1.09544
1.09734
1.09948
1.10193
1.10478
1.10818
1.11238
1.11768
1.12464
1.13498
1.15269
1.17986
1.05318
1.05437
1.0603
1.0651
1.06827
1.07049
1.07206
1.07314
1.07389
1.07442
1.07478
1.07502
1.07517
1.07524
1.07525
1.07521
1.07513
1.07502
1.07487
1.0747
1.07451
1.07431
1.07408
1.07384
1.07359
1.07333
1.07306
1.07279
1.07251
1.07222
1.07193
1.07164
1.07134
1.07105
1.07075
1.07046
1.07017
1.06988
1.06959
1.06931
1.06903
1.06876
1.0685
1.06824
1.06798
1.06774
1.0675
1.06727
1.06705
1.06684
1.06664
1.06645
1.06627
1.0661
1.06595
1.0658
1.06566
1.06554
1.06543
1.06533
1.06524
1.06517
1.06511
1.06506
1.06503
1.065
1.06499
1.065
1.06501
1.06504
1.06508
1.06514
1.0652
1.06528
1.06537
1.06548
1.06559
1.06572
1.06585
1.066
1.06615
1.06632
1.06649
1.06668
1.06687
1.06706
1.06727
1.06748
1.06769
1.06791
1.06813
1.06836
1.06858
1.06881
1.06904
1.06927
1.0695
1.06972
1.06995
1.07016
1.07038
1.07059
1.07079
1.07099
1.07118
1.07136
1.07153
1.07169
1.07185
1.07199
1.07212
1.07224
1.07235
1.07245
1.07254
1.07261
1.07268
1.07273
1.07277
1.0728
1.07282
1.07283
1.07283
1.07282
1.07281
1.07278
1.07275
1.07272
1.07267
1.07263
1.07258
1.07252
1.07246
1.0724
1.07233
1.07226
1.07219
1.07212
1.07205
1.07197
1.0719
1.07182
1.07175
1.07167
1.0716
1.07152
1.07145
1.07138
1.0713
1.07123
1.07117
1.0711
1.07104
1.07098
1.07092
1.07087
1.07082
1.07078
1.07074
1.0707
1.07067
1.07065
1.07063
1.07061
1.07061
1.07061
1.07061
1.07062
1.07064
1.07066
1.07069
1.07073
1.07077
1.07082
1.07087
1.07093
1.07099
1.07105
1.07112
1.0712
1.07127
1.07135
1.07143
1.07151
1.0716
1.07168
1.07177
1.07185
1.07193
1.07201
1.07209
1.07216
1.07223
1.0723
1.07237
1.07243
1.07248
1.07253
1.07258
1.07262
1.07265
1.07268
1.0727
1.07272
1.07273
1.07273
1.07272
1.07271
1.0727
1.07267
1.07264
1.0726
1.07256
1.07251
1.07246
1.07239
1.07233
1.07225
1.07217
1.07209
1.072
1.07191
1.07181
1.07171
1.0716
1.07149
1.07138
1.07127
1.07115
1.07103
1.07091
1.07078
1.07066
1.07054
1.07041
1.07029
1.07017
1.07005
1.06993
1.06982
1.06971
1.0696
1.06949
1.0694
1.0693
1.06922
1.06913
1.06906
1.069
1.06894
1.06889
1.06885
1.06882
1.06881
1.0688
1.0688
1.06882
1.06885
1.06889
1.06895
1.06902
1.0691
1.06919
1.0693
1.06943
1.06956
1.06971
1.06988
1.07005
1.07024
1.07044
1.07064
1.07086
1.07109
1.07133
1.07157
1.07182
1.07207
1.07233
1.07259
1.07285
1.07311
1.07338
1.07364
1.0739
1.07416
1.07441
1.07466
1.0749
1.07514
1.07537
1.0756
1.07582
1.07603
1.07623
1.07643
1.07662
1.07681
1.07698
1.07715
1.07731
1.07746
1.0776
1.07774
1.07787
1.07799
1.07811
1.07822
1.07832
1.07841
1.07849
1.07857
1.07864
1.0787
1.07876
1.07881
1.07885
1.07888
1.0789
1.07892
1.07893
1.07894
1.07894
1.07893
1.07891
1.07889
1.07886
1.07883
1.0788
1.07875
1.07871
1.07866
1.0786
1.07855
1.07849
1.07842
1.07835
1.07829
1.07821
1.07814
1.07807
1.07799
1.07792
1.07784
1.07777
1.07769
1.07762
1.07755
1.07749
1.07743
1.07737
1.07732
1.07728
1.07724
1.07722
1.0772
1.0772
1.07721
1.07724
1.07728
1.07734
1.07742
1.07753
1.07765
1.07781
1.07798
1.07819
1.07843
1.0787
1.07901
1.07936
1.07974
1.08017
1.08064
1.08116
1.08172
1.08234
1.08302
1.08375
1.08455
1.08541
1.08634
1.08736
1.08845
1.08964
1.09094
1.09235
1.09391
1.09562
1.09754
1.09969
1.10215
1.10499
1.10836
1.11242
1.11751
1.12409
1.13241
1.14146
1.14932
1.06164
1.06105
1.06316
1.06571
1.06817
1.0701
1.07152
1.07257
1.07334
1.07391
1.07432
1.07461
1.07479
1.0749
1.07494
1.07493
1.07487
1.07478
1.07466
1.07451
1.07433
1.07414
1.07393
1.0737
1.07347
1.07322
1.07296
1.07269
1.07242
1.07214
1.07186
1.07157
1.07128
1.07099
1.0707
1.07042
1.07013
1.06984
1.06956
1.06929
1.06901
1.06874
1.06848
1.06823
1.06798
1.06774
1.0675
1.06728
1.06706
1.06685
1.06665
1.06647
1.06629
1.06612
1.06597
1.06582
1.06569
1.06557
1.06546
1.06536
1.06528
1.0652
1.06514
1.0651
1.06506
1.06504
1.06503
1.06504
1.06506
1.06509
1.06513
1.06519
1.06525
1.06533
1.06543
1.06553
1.06564
1.06577
1.06591
1.06605
1.06621
1.06638
1.06655
1.06674
1.06693
1.06713
1.06733
1.06754
1.06776
1.06798
1.0682
1.06842
1.06865
1.06888
1.06911
1.06934
1.06957
1.06979
1.07001
1.07023
1.07045
1.07066
1.07086
1.07105
1.07124
1.07142
1.07159
1.07176
1.07191
1.07205
1.07218
1.0723
1.07241
1.07251
1.07259
1.07266
1.07272
1.07277
1.07281
1.07284
1.07286
1.07286
1.07286
1.07285
1.07284
1.07281
1.07278
1.07274
1.0727
1.07265
1.07259
1.07254
1.07248
1.07241
1.07235
1.07228
1.07221
1.07214
1.07207
1.07199
1.07192
1.07184
1.07177
1.07169
1.07162
1.07155
1.07147
1.0714
1.07133
1.07126
1.0712
1.07113
1.07107
1.07101
1.07096
1.07091
1.07086
1.07082
1.07078
1.07074
1.07071
1.07069
1.07067
1.07066
1.07066
1.07066
1.07066
1.07067
1.07069
1.07072
1.07075
1.07078
1.07082
1.07087
1.07092
1.07098
1.07104
1.07111
1.07118
1.07125
1.07133
1.0714
1.07148
1.07157
1.07165
1.07173
1.07181
1.0719
1.07198
1.07206
1.07213
1.07221
1.07228
1.07234
1.07241
1.07247
1.07252
1.07257
1.07262
1.07265
1.07269
1.07271
1.07274
1.07275
1.07276
1.07276
1.07276
1.07275
1.07273
1.0727
1.07267
1.07264
1.07259
1.07254
1.07249
1.07243
1.07236
1.07229
1.07221
1.07212
1.07204
1.07194
1.07185
1.07174
1.07164
1.07153
1.07142
1.0713
1.07118
1.07107
1.07094
1.07082
1.0707
1.07058
1.07045
1.07033
1.07021
1.07009
1.06997
1.06986
1.06974
1.06964
1.06953
1.06943
1.06934
1.06925
1.06917
1.0691
1.06903
1.06898
1.06893
1.06889
1.06886
1.06885
1.06884
1.06885
1.06886
1.06889
1.06894
1.06899
1.06906
1.06915
1.06924
1.06935
1.06948
1.06962
1.06977
1.06993
1.07011
1.0703
1.07049
1.0707
1.07092
1.07115
1.07139
1.07163
1.07188
1.07213
1.07239
1.07265
1.07291
1.07318
1.07344
1.0737
1.07396
1.07421
1.07446
1.07471
1.07495
1.07519
1.07542
1.07565
1.07586
1.07607
1.07628
1.07647
1.07666
1.07684
1.07702
1.07718
1.07734
1.07749
1.07764
1.07778
1.0779
1.07803
1.07814
1.07825
1.07835
1.07844
1.07852
1.0786
1.07867
1.07873
1.07879
1.07883
1.07887
1.0789
1.07893
1.07894
1.07895
1.07896
1.07895
1.07894
1.07893
1.07891
1.07888
1.07885
1.07881
1.07876
1.07872
1.07867
1.07861
1.07855
1.07849
1.07843
1.07836
1.07829
1.07822
1.07815
1.07808
1.078
1.07793
1.07785
1.07778
1.0777
1.07763
1.07757
1.0775
1.07744
1.07738
1.07734
1.07729
1.07726
1.07724
1.07722
1.07722
1.07723
1.07726
1.0773
1.07737
1.07745
1.07755
1.07768
1.07783
1.07801
1.07822
1.07846
1.07873
1.07904
1.07939
1.07978
1.0802
1.08068
1.0812
1.08177
1.08239
1.08307
1.0838
1.0846
1.08546
1.0864
1.08741
1.08851
1.08969
1.09098
1.09239
1.09393
1.09563
1.09752
1.09962
1.10201
1.10473
1.10789
1.1116
1.11595
1.12099
1.12654
1.13104
1.13104
1.06564
1.06515
1.06585
1.06722
1.06879
1.07019
1.07136
1.0723
1.07303
1.07358
1.07399
1.07429
1.07449
1.07461
1.07468
1.07469
1.07465
1.07458
1.07447
1.07433
1.07417
1.07399
1.07379
1.07358
1.07335
1.07311
1.07286
1.0726
1.07234
1.07207
1.07179
1.07151
1.07123
1.07095
1.07066
1.07038
1.0701
1.06982
1.06954
1.06927
1.069
1.06874
1.06848
1.06822
1.06798
1.06774
1.06751
1.06729
1.06707
1.06687
1.06667
1.06649
1.06631
1.06615
1.06599
1.06585
1.06572
1.0656
1.06549
1.0654
1.06531
1.06524
1.06518
1.06514
1.06511
1.06509
1.06508
1.06509
1.0651
1.06514
1.06518
1.06524
1.06531
1.06539
1.06548
1.06558
1.0657
1.06583
1.06597
1.06611
1.06627
1.06644
1.06662
1.0668
1.06699
1.06719
1.0674
1.06761
1.06783
1.06805
1.06827
1.0685
1.06873
1.06896
1.06919
1.06942
1.06965
1.06987
1.0701
1.07032
1.07053
1.07074
1.07094
1.07114
1.07133
1.07151
1.07168
1.07184
1.07199
1.07213
1.07226
1.07238
1.07248
1.07258
1.07266
1.07273
1.07279
1.07284
1.07287
1.0729
1.07291
1.07292
1.07291
1.0729
1.07288
1.07285
1.07282
1.07278
1.07273
1.07268
1.07263
1.07257
1.07251
1.07245
1.07238
1.07231
1.07224
1.07217
1.0721
1.07202
1.07195
1.07187
1.0718
1.07172
1.07165
1.07158
1.07151
1.07144
1.07137
1.0713
1.07123
1.07117
1.07111
1.07105
1.071
1.07095
1.07091
1.07086
1.07083
1.0708
1.07077
1.07075
1.07073
1.07072
1.07072
1.07072
1.07072
1.07074
1.07076
1.07078
1.07081
1.07085
1.07089
1.07094
1.07099
1.07105
1.07111
1.07118
1.07125
1.07132
1.07139
1.07147
1.07155
1.07163
1.07171
1.0718
1.07188
1.07196
1.07204
1.07212
1.07219
1.07226
1.07233
1.0724
1.07246
1.07252
1.07257
1.07262
1.07267
1.07271
1.07274
1.07276
1.07278
1.0728
1.07281
1.07281
1.0728
1.07279
1.07277
1.07275
1.07272
1.07268
1.07264
1.07259
1.07254
1.07247
1.07241
1.07233
1.07226
1.07217
1.07208
1.07199
1.07189
1.07179
1.07169
1.07158
1.07147
1.07135
1.07123
1.07111
1.07099
1.07087
1.07075
1.07062
1.0705
1.07038
1.07025
1.07013
1.07001
1.0699
1.06979
1.06968
1.06958
1.06948
1.06938
1.0693
1.06921
1.06914
1.06908
1.06902
1.06897
1.06893
1.06891
1.06889
1.06888
1.06889
1.06891
1.06894
1.06898
1.06904
1.06911
1.0692
1.06929
1.06941
1.06953
1.06967
1.06982
1.06999
1.07017
1.07036
1.07056
1.07077
1.07099
1.07122
1.07146
1.0717
1.07195
1.0722
1.07246
1.07272
1.07298
1.07324
1.07351
1.07377
1.07402
1.07428
1.07453
1.07478
1.07502
1.07525
1.07548
1.0757
1.07592
1.07613
1.07633
1.07653
1.07671
1.07689
1.07707
1.07723
1.07739
1.07754
1.07768
1.07782
1.07795
1.07807
1.07818
1.07829
1.07839
1.07848
1.07857
1.07864
1.07871
1.07877
1.07883
1.07887
1.07891
1.07894
1.07897
1.07898
1.07899
1.07899
1.07899
1.07898
1.07896
1.07893
1.07891
1.07887
1.07883
1.07879
1.07874
1.07869
1.07863
1.07857
1.07851
1.07845
1.07838
1.07831
1.07824
1.07816
1.07809
1.07802
1.07794
1.07787
1.07779
1.07772
1.07765
1.07758
1.07752
1.07746
1.0774
1.07735
1.07731
1.07728
1.07725
1.07724
1.07724
1.07725
1.07728
1.07732
1.07738
1.07746
1.07757
1.07769
1.07784
1.07802
1.07823
1.07847
1.07875
1.07905
1.0794
1.07979
1.08021
1.08069
1.0812
1.08177
1.08239
1.08307
1.0838
1.0846
1.08546
1.08638
1.08739
1.08848
1.08965
1.09092
1.09231
1.09381
1.09547
1.09728
1.09929
1.10154
1.10405
1.10688
1.11006
1.11356
1.11715
1.12035
1.1225
1.12189
1.06818
1.06776
1.06796
1.06868
1.06962
1.0706
1.0715
1.07227
1.07289
1.07339
1.07377
1.07406
1.07426
1.07439
1.07447
1.07449
1.07446
1.0744
1.0743
1.07418
1.07403
1.07386
1.07367
1.07347
1.07325
1.07302
1.07278
1.07253
1.07227
1.072
1.07173
1.07146
1.07119
1.07091
1.07063
1.07035
1.07008
1.0698
1.06953
1.06926
1.06899
1.06873
1.06848
1.06823
1.06799
1.06775
1.06752
1.0673
1.06709
1.06689
1.0667
1.06651
1.06634
1.06618
1.06603
1.06588
1.06576
1.06564
1.06553
1.06544
1.06536
1.06529
1.06523
1.06519
1.06515
1.06514
1.06513
1.06514
1.06516
1.06519
1.06524
1.06529
1.06536
1.06545
1.06554
1.06565
1.06576
1.06589
1.06603
1.06618
1.06634
1.06651
1.06668
1.06687
1.06706
1.06727
1.06747
1.06769
1.0679
1.06813
1.06835
1.06858
1.06881
1.06904
1.06928
1.06951
1.06974
1.06996
1.07019
1.07041
1.07062
1.07083
1.07104
1.07123
1.07142
1.0716
1.07178
1.07194
1.07209
1.07223
1.07236
1.07247
1.07258
1.07267
1.07275
1.07282
1.07287
1.07292
1.07295
1.07297
1.07299
1.07299
1.07298
1.07296
1.07294
1.07291
1.07287
1.07283
1.07278
1.07273
1.07268
1.07262
1.07255
1.07249
1.07242
1.07235
1.07228
1.07221
1.07213
1.07206
1.07199
1.07191
1.07184
1.07177
1.07169
1.07162
1.07155
1.07148
1.07141
1.07135
1.07128
1.07122
1.07116
1.07111
1.07106
1.07101
1.07096
1.07092
1.07089
1.07086
1.07083
1.07081
1.0708
1.07079
1.07079
1.07079
1.0708
1.07081
1.07083
1.07086
1.07089
1.07093
1.07097
1.07102
1.07107
1.07113
1.07119
1.07126
1.07133
1.0714
1.07147
1.07155
1.07163
1.07171
1.07179
1.07187
1.07195
1.07203
1.07211
1.07219
1.07226
1.07234
1.07241
1.07247
1.07253
1.07259
1.07264
1.07269
1.07273
1.07277
1.0728
1.07283
1.07285
1.07286
1.07287
1.07287
1.07287
1.07286
1.07284
1.07281
1.07278
1.07275
1.0727
1.07265
1.0726
1.07254
1.07247
1.0724
1.07232
1.07224
1.07215
1.07205
1.07196
1.07185
1.07175
1.07164
1.07153
1.07141
1.07129
1.07117
1.07105
1.07093
1.0708
1.07068
1.07055
1.07043
1.07031
1.07019
1.07007
1.06995
1.06984
1.06973
1.06963
1.06953
1.06943
1.06934
1.06926
1.06919
1.06912
1.06907
1.06902
1.06898
1.06895
1.06894
1.06893
1.06894
1.06896
1.06899
1.06903
1.06909
1.06916
1.06925
1.06935
1.06946
1.06959
1.06973
1.06988
1.07005
1.07023
1.07042
1.07062
1.07084
1.07106
1.07129
1.07153
1.07177
1.07202
1.07228
1.07254
1.0728
1.07306
1.07332
1.07358
1.07384
1.0741
1.07435
1.0746
1.07485
1.07509
1.07532
1.07555
1.07577
1.07599
1.07619
1.07639
1.07659
1.07677
1.07695
1.07713
1.07729
1.07745
1.0776
1.07774
1.07788
1.078
1.07813
1.07824
1.07835
1.07845
1.07854
1.07862
1.0787
1.07877
1.07883
1.07888
1.07893
1.07896
1.07899
1.07902
1.07903
1.07904
1.07904
1.07903
1.07902
1.079
1.07898
1.07894
1.07891
1.07887
1.07882
1.07877
1.07872
1.07866
1.0786
1.07854
1.07847
1.0784
1.07833
1.07826
1.07819
1.07811
1.07804
1.07796
1.07789
1.07782
1.07774
1.07767
1.0776
1.07754
1.07748
1.07742
1.07737
1.07733
1.0773
1.07727
1.07726
1.07726
1.07727
1.07729
1.07733
1.07739
1.07747
1.07758
1.0777
1.07785
1.07803
1.07823
1.07847
1.07874
1.07905
1.07939
1.07977
1.0802
1.08067
1.08118
1.08175
1.08236
1.08303
1.08376
1.08455
1.0854
1.08631
1.0873
1.08837
1.08952
1.09077
1.09211
1.09356
1.09515
1.09687
1.09875
1.10081
1.10306
1.10551
1.10812
1.11078
1.11328
1.11521
1.11616
1.11589
1.06995
1.06954
1.06956
1.06993
1.0705
1.07115
1.07181
1.0724
1.07291
1.07333
1.07367
1.07393
1.07412
1.07424
1.07431
1.07433
1.07431
1.07426
1.07417
1.07405
1.07391
1.07375
1.07357
1.07338
1.07316
1.07294
1.07271
1.07246
1.07221
1.07195
1.07169
1.07142
1.07115
1.07088
1.07061
1.07034
1.07006
1.06979
1.06953
1.06926
1.069
1.06874
1.06849
1.06825
1.06801
1.06777
1.06755
1.06733
1.06712
1.06692
1.06673
1.06655
1.06638
1.06622
1.06607
1.06593
1.0658
1.06568
1.06558
1.06549
1.0654
1.06534
1.06528
1.06524
1.06521
1.06519
1.06519
1.06519
1.06521
1.06525
1.06529
1.06535
1.06542
1.06551
1.0656
1.06571
1.06583
1.06596
1.0661
1.06625
1.06641
1.06658
1.06676
1.06694
1.06714
1.06734
1.06755
1.06777
1.06799
1.06821
1.06844
1.06867
1.0689
1.06914
1.06937
1.0696
1.06983
1.07006
1.07029
1.07051
1.07073
1.07094
1.07115
1.07134
1.07153
1.07172
1.07189
1.07205
1.0722
1.07234
1.07247
1.07258
1.07269
1.07278
1.07286
1.07292
1.07298
1.07302
1.07305
1.07307
1.07308
1.07307
1.07306
1.07305
1.07302
1.07299
1.07295
1.0729
1.07285
1.07279
1.07274
1.07267
1.07261
1.07254
1.07247
1.0724
1.07233
1.07226
1.07218
1.07211
1.07204
1.07196
1.07189
1.07182
1.07174
1.07167
1.0716
1.07153
1.07147
1.0714
1.07134
1.07128
1.07122
1.07117
1.07112
1.07107
1.07103
1.07099
1.07096
1.07093
1.07091
1.07089
1.07088
1.07087
1.07087
1.07087
1.07088
1.0709
1.07092
1.07095
1.07098
1.07102
1.07106
1.07111
1.07117
1.07122
1.07129
1.07135
1.07142
1.07149
1.07157
1.07165
1.07172
1.0718
1.07188
1.07197
1.07205
1.07212
1.0722
1.07228
1.07235
1.07242
1.07249
1.07256
1.07262
1.07267
1.07273
1.07277
1.07281
1.07285
1.07288
1.07291
1.07293
1.07294
1.07295
1.07295
1.07294
1.07293
1.07291
1.07289
1.07286
1.07282
1.07278
1.07273
1.07267
1.07261
1.07255
1.07247
1.07239
1.07231
1.07222
1.07213
1.07203
1.07193
1.07182
1.07171
1.0716
1.07148
1.07136
1.07124
1.07112
1.071
1.07087
1.07075
1.07062
1.0705
1.07037
1.07025
1.07013
1.07001
1.0699
1.06979
1.06968
1.06958
1.06949
1.0694
1.06931
1.06924
1.06917
1.06912
1.06907
1.06903
1.069
1.06898
1.06898
1.06898
1.069
1.06904
1.06908
1.06914
1.06921
1.0693
1.0694
1.06952
1.06965
1.06979
1.06994
1.07011
1.07029
1.07049
1.07069
1.07091
1.07113
1.07136
1.0716
1.07185
1.0721
1.07236
1.07262
1.07288
1.07314
1.07341
1.07367
1.07393
1.07418
1.07444
1.07469
1.07493
1.07517
1.0754
1.07563
1.07585
1.07606
1.07627
1.07647
1.07666
1.07684
1.07702
1.07719
1.07736
1.07751
1.07766
1.07781
1.07794
1.07807
1.07819
1.0783
1.07841
1.07851
1.0786
1.07869
1.07876
1.07883
1.07889
1.07895
1.07899
1.07903
1.07906
1.07908
1.07909
1.0791
1.0791
1.07909
1.07908
1.07905
1.07903
1.079
1.07896
1.07891
1.07887
1.07882
1.07876
1.0787
1.07864
1.07857
1.07851
1.07844
1.07837
1.07829
1.07822
1.07815
1.07807
1.078
1.07792
1.07785
1.07777
1.0777
1.07763
1.07757
1.07751
1.07745
1.0774
1.07736
1.07732
1.07729
1.07728
1.07727
1.07728
1.07731
1.07735
1.0774
1.07748
1.07758
1.0777
1.07785
1.07802
1.07822
1.07846
1.07872
1.07902
1.07936
1.07974
1.08016
1.08062
1.08113
1.08169
1.0823
1.08296
1.08367
1.08445
1.08528
1.08618
1.08715
1.08819
1.08931
1.09051
1.09181
1.09319
1.09469
1.0963
1.09803
1.09988
1.10186
1.10392
1.10602
1.10802
1.10974
1.11097
1.11143
1.11118
1.07122
1.07085
1.07078
1.07095
1.07129
1.07172
1.07218
1.07262
1.07302
1.07337
1.07365
1.07387
1.07403
1.07414
1.0742
1.07422
1.0742
1.07415
1.07406
1.07395
1.07382
1.07366
1.07349
1.0733
1.07309
1.07288
1.07265
1.07241
1.07217
1.07191
1.07166
1.0714
1.07113
1.07086
1.0706
1.07033
1.07006
1.0698
1.06953
1.06927
1.06901
1.06876
1.06851
1.06827
1.06803
1.0678
1.06758
1.06737
1.06716
1.06696
1.06677
1.06659
1.06642
1.06627
1.06612
1.06598
1.06585
1.06574
1.06563
1.06554
1.06546
1.0654
1.06534
1.0653
1.06527
1.06525
1.06525
1.06526
1.06528
1.06531
1.06536
1.06542
1.06549
1.06558
1.06567
1.06578
1.0659
1.06603
1.06617
1.06632
1.06648
1.06665
1.06683
1.06702
1.06722
1.06742
1.06763
1.06785
1.06807
1.0683
1.06853
1.06876
1.069
1.06923
1.06947
1.06971
1.06994
1.07017
1.0704
1.07062
1.07084
1.07106
1.07126
1.07146
1.07165
1.07184
1.07201
1.07217
1.07232
1.07246
1.07259
1.07271
1.07281
1.0729
1.07298
1.07304
1.07309
1.07313
1.07316
1.07317
1.07318
1.07317
1.07316
1.07314
1.07311
1.07307
1.07303
1.07298
1.07293
1.07287
1.07281
1.07274
1.07268
1.07261
1.07254
1.07247
1.07239
1.07232
1.07224
1.07217
1.0721
1.07202
1.07195
1.07188
1.0718
1.07173
1.07166
1.0716
1.07153
1.07147
1.07141
1.07135
1.07129
1.07124
1.07119
1.07115
1.07111
1.07107
1.07104
1.07102
1.071
1.07098
1.07097
1.07096
1.07096
1.07097
1.07098
1.071
1.07102
1.07105
1.07108
1.07112
1.07117
1.07122
1.07127
1.07133
1.07139
1.07146
1.07153
1.0716
1.07168
1.07175
1.07183
1.07191
1.07199
1.07207
1.07215
1.07223
1.07231
1.07238
1.07245
1.07252
1.07259
1.07265
1.07271
1.07277
1.07282
1.07287
1.07291
1.07295
1.07298
1.073
1.07302
1.07303
1.07304
1.07304
1.07303
1.07302
1.07301
1.07298
1.07295
1.07291
1.07287
1.07282
1.07276
1.0727
1.07264
1.07256
1.07248
1.0724
1.07231
1.07222
1.07212
1.07202
1.07191
1.0718
1.07168
1.07157
1.07145
1.07132
1.0712
1.07108
1.07095
1.07082
1.0707
1.07057
1.07044
1.07032
1.0702
1.07008
1.06996
1.06985
1.06974
1.06964
1.06955
1.06946
1.06937
1.0693
1.06923
1.06917
1.06912
1.06908
1.06905
1.06904
1.06903
1.06904
1.06906
1.06909
1.06914
1.0692
1.06927
1.06936
1.06946
1.06958
1.06971
1.06985
1.07001
1.07018
1.07036
1.07056
1.07076
1.07098
1.07121
1.07144
1.07168
1.07193
1.07219
1.07245
1.07271
1.07297
1.07323
1.0735
1.07376
1.07402
1.07427
1.07453
1.07478
1.07502
1.07526
1.07549
1.07571
1.07593
1.07614
1.07635
1.07655
1.07674
1.07692
1.0771
1.07727
1.07743
1.07759
1.07774
1.07788
1.07801
1.07814
1.07826
1.07838
1.07848
1.07858
1.07868
1.07876
1.07884
1.07891
1.07897
1.07902
1.07907
1.0791
1.07913
1.07915
1.07917
1.07917
1.07917
1.07916
1.07914
1.07912
1.07909
1.07905
1.07901
1.07897
1.07892
1.07887
1.07881
1.07875
1.07869
1.07862
1.07855
1.07848
1.07841
1.07834
1.07826
1.07819
1.07811
1.07803
1.07796
1.07788
1.07781
1.07774
1.07767
1.0776
1.07754
1.07748
1.07743
1.07739
1.07735
1.07732
1.0773
1.0773
1.0773
1.07732
1.07736
1.07741
1.07749
1.07758
1.0777
1.07784
1.07801
1.07821
1.07843
1.07869
1.07899
1.07932
1.07969
1.0801
1.08056
1.08106
1.08161
1.0822
1.08285
1.08355
1.08431
1.08513
1.08601
1.08695
1.08796
1.08904
1.09019
1.09142
1.09273
1.09413
1.09561
1.09718
1.09883
1.10054
1.10226
1.10393
1.10543
1.10665
1.10744
1.10768
1.10736
1.07215
1.07184
1.07173
1.07179
1.07199
1.07227
1.07258
1.07291
1.07321
1.07347
1.0737
1.07388
1.07401
1.0741
1.07415
1.07416
1.07413
1.07408
1.07399
1.07388
1.07375
1.0736
1.07343
1.07324
1.07304
1.07283
1.07261
1.07238
1.07214
1.07189
1.07164
1.07138
1.07112
1.07086
1.0706
1.07034
1.07007
1.06981
1.06955
1.06929
1.06904
1.06879
1.06854
1.06831
1.06807
1.06785
1.06762
1.06741
1.06721
1.06701
1.06683
1.06665
1.06648
1.06632
1.06618
1.06604
1.06591
1.0658
1.0657
1.06561
1.06553
1.06546
1.06541
1.06537
1.06534
1.06532
1.06532
1.06533
1.06535
1.06539
1.06543
1.06549
1.06556
1.06565
1.06574
1.06585
1.06597
1.0661
1.06624
1.0664
1.06656
1.06673
1.06691
1.0671
1.0673
1.06751
1.06772
1.06794
1.06816
1.06839
1.06862
1.06886
1.0691
1.06934
1.06957
1.06981
1.07005
1.07028
1.07051
1.07074
1.07096
1.07118
1.07139
1.07159
1.07178
1.07197
1.07214
1.0723
1.07246
1.0726
1.07273
1.07284
1.07294
1.07303
1.07311
1.07317
1.07322
1.07326
1.07328
1.07329
1.07329
1.07329
1.07327
1.07324
1.07321
1.07317
1.07312
1.07307
1.07301
1.07295
1.07289
1.07282
1.07276
1.07268
1.07261
1.07254
1.07246
1.07239
1.07232
1.07224
1.07217
1.07209
1.07202
1.07195
1.07187
1.0718
1.07174
1.07167
1.0716
1.07154
1.07148
1.07143
1.07137
1.07132
1.07128
1.07124
1.0712
1.07116
1.07113
1.07111
1.07109
1.07108
1.07107
1.07107
1.07107
1.07108
1.07109
1.07111
1.07113
1.07116
1.0712
1.07124
1.07128
1.07133
1.07139
1.07145
1.07151
1.07158
1.07165
1.07172
1.0718
1.07187
1.07195
1.07203
1.07211
1.07219
1.07227
1.07234
1.07242
1.07249
1.07257
1.07264
1.0727
1.07277
1.07282
1.07288
1.07293
1.07298
1.07302
1.07305
1.07308
1.07311
1.07313
1.07314
1.07314
1.07314
1.07314
1.07313
1.07311
1.07308
1.07305
1.07302
1.07297
1.07292
1.07287
1.07281
1.07274
1.07266
1.07258
1.0725
1.07241
1.07232
1.07222
1.07211
1.07201
1.07189
1.07178
1.07166
1.07154
1.07142
1.07129
1.07116
1.07104
1.07091
1.07078
1.07065
1.07052
1.0704
1.07027
1.07015
1.07004
1.06992
1.06981
1.06971
1.06961
1.06952
1.06943
1.06936
1.06929
1.06923
1.06918
1.06914
1.06911
1.06909
1.06908
1.06909
1.06911
1.06914
1.06919
1.06925
1.06932
1.06941
1.06952
1.06963
1.06977
1.06991
1.07007
1.07024
1.07043
1.07063
1.07084
1.07106
1.07128
1.07152
1.07177
1.07202
1.07227
1.07253
1.0728
1.07306
1.07333
1.07359
1.07385
1.07411
1.07437
1.07462
1.07487
1.07511
1.07535
1.07558
1.0758
1.07602
1.07623
1.07643
1.07663
1.07682
1.077
1.07718
1.07735
1.07751
1.07767
1.07782
1.07796
1.07809
1.07822
1.07834
1.07846
1.07857
1.07867
1.07876
1.07884
1.07892
1.07899
1.07905
1.07911
1.07915
1.07919
1.07922
1.07924
1.07925
1.07925
1.07925
1.07924
1.07922
1.07919
1.07916
1.07912
1.07908
1.07904
1.07898
1.07893
1.07887
1.07881
1.07874
1.07867
1.0786
1.07853
1.07846
1.07839
1.07831
1.07823
1.07816
1.07808
1.078
1.07793
1.07785
1.07778
1.07771
1.07764
1.07758
1.07752
1.07747
1.07742
1.07738
1.07735
1.07733
1.07732
1.07732
1.07734
1.07737
1.07742
1.07749
1.07758
1.07769
1.07783
1.07799
1.07818
1.0784
1.07865
1.07894
1.07926
1.07963
1.08003
1.08047
1.08096
1.08149
1.08208
1.08271
1.0834
1.08413
1.08493
1.08578
1.08669
1.08766
1.0887
1.08979
1.09096
1.09219
1.09349
1.09484
1.09626
1.09771
1.09917
1.1006
1.10194
1.10309
1.10396
1.10449
1.1046
1.10426
1.07288
1.07261
1.07249
1.07249
1.07259
1.07276
1.07297
1.0732
1.07342
1.07362
1.07379
1.07393
1.07403
1.07409
1.07413
1.07412
1.07409
1.07403
1.07394
1.07383
1.0737
1.07355
1.07339
1.0732
1.07301
1.0728
1.07258
1.07235
1.07212
1.07188
1.07163
1.07138
1.07112
1.07087
1.07061
1.07035
1.07009
1.06983
1.06958
1.06932
1.06907
1.06883
1.06859
1.06835
1.06812
1.0679
1.06768
1.06747
1.06727
1.06707
1.06689
1.06671
1.06655
1.06639
1.06625
1.06611
1.06599
1.06587
1.06577
1.06568
1.06561
1.06554
1.06549
1.06545
1.06542
1.0654
1.0654
1.06541
1.06543
1.06547
1.06551
1.06557
1.06565
1.06573
1.06583
1.06594
1.06606
1.06619
1.06633
1.06648
1.06665
1.06682
1.067
1.06719
1.06739
1.0676
1.06781
1.06803
1.06826
1.06849
1.06872
1.06896
1.0692
1.06944
1.06968
1.06992
1.07016
1.0704
1.07063
1.07086
1.07108
1.0713
1.07151
1.07172
1.07191
1.0721
1.07227
1.07244
1.07259
1.07274
1.07286
1.07298
1.07308
1.07317
1.07325
1.07331
1.07335
1.07339
1.07341
1.07342
1.07342
1.07341
1.07339
1.07336
1.07332
1.07328
1.07323
1.07317
1.07311
1.07305
1.07298
1.07291
1.07284
1.07277
1.0727
1.07262
1.07255
1.07247
1.0724
1.07232
1.07224
1.07217
1.0721
1.07202
1.07195
1.07188
1.07182
1.07175
1.07169
1.07163
1.07157
1.07151
1.07146
1.07142
1.07137
1.07133
1.0713
1.07126
1.07124
1.07121
1.0712
1.07119
1.07118
1.07118
1.07118
1.07119
1.07121
1.07123
1.07125
1.07129
1.07132
1.07136
1.07141
1.07146
1.07152
1.07158
1.07164