# vtk DataFile Version 2.0
LBE mesh
ASCII
DATASET STRUCTURED_POINTS
DIMENSIONS 400 100 1
ASPECT_RATIO 1 1 1
ORIGIN 0 0 0
POINT_DATA 40000
SCALARS rho double 1
LOOKUP_TABLE default
1.17025
1.2617
1.28776
1.29231
1.2944
1.2964
1.29789
1.29886
1.29951
1.29999
1.30036
1.30066
1.30089
1.30108
1.30124
1.30137
1.30148
1.30156
1.30163
1.30169
1.30174
1.30177
1.3018
1.30182
1.30182
1.30183
1.30182
1.30181
1.30179
1.30177
1.30175
1.30172
1.30168
1.30164
1.3016
1.30156
1.30151
1.30146
1.30141
1.30136
1.3013
1.30125
1.30119
1.30113
1.30108
1.30102
1.30097
1.30091
1.30086
1.30081
1.30077
1.30073
1.30069
1.30065
1.30062
1.3006
1.30057
1.30056
1.30055
1.30055
1.30055
1.30056
1.30058
1.30061
1.30065
1.30069
1.30074
1.3008
1.30087
1.30095
1.30103
1.30113
1.30123
1.30135
1.30147
1.3016
1.30174
1.30189
1.30205
1.30221
1.30239
1.30257
1.30276
1.30296
1.30317
1.30338
1.3036
1.30383
1.30406
1.3043
1.30454
1.30479
1.30504
1.3053
1.30556
1.30582
1.30608
1.30634
1.30661
1.30687
1.30714
1.3074
1.30766
1.30791
1.30816
1.30841
1.30866
1.30889
1.30912
1.30935
1.30957
1.30978
1.30998
1.31017
1.31035
1.31052
1.31068
1.31084
1.31098
1.31111
1.31123
1.31133
1.31143
1.31152
1.31159
1.31166
1.31172
1.31177
1.31181
1.31184
1.31186
1.31188
1.31189
1.31189
1.31189
1.31188
1.31186
1.31185
1.31183
1.3118
1.31177
1.31174
1.31171
1.31167
1.31163
1.31159
1.31154
1.3115
1.31145
1.31141
1.31136
1.31131
1.31125
1.3112
1.31115
1.31109
1.31104
1.31098
1.31093
1.31087
1.31081
1.31075
1.31069
1.31063
1.31057
1.31051
1.31044
1.31038
1.31032
1.31025
1.31019
1.31012
1.31006
1.30999
1.30992
1.30986
1.30979
1.30972
1.30965
1.30958
1.30951
1.30945
1.30938
1.30931
1.30924
1.30917
1.3091
1.30904
1.30897
1.3089
1.30884
1.30877
1.30871
1.30864
1.30858
1.30852
1.30846
1.3084
1.30835
1.30829
1.30824
1.30819
1.30814
1.30809
1.30804
1.308
1.30796
1.30792
1.30789
1.30786
1.30783
1.3078
1.30778
1.30776
1.30775
1.30774
1.30773
1.30772
1.30773
1.30773
1.30774
1.30776
1.30778
1.3078
1.30783
1.30787
1.30791
1.30795
1.308
1.30806
1.30813
1.3082
1.30828
1.30836
1.30845
1.30855
1.30865
1.30876
1.30888
1.30901
1.30914
1.30928
1.30943
1.30959
1.30976
1.30993
1.31011
1.3103
1.3105
1.31071
1.31092
1.31114
1.31137
1.31161
1.31186
1.31211
1.31237
1.31264
1.31292
1.3132
1.31349
1.31378
1.31408
1.31439
1.3147
1.31501
1.31533
1.31565
1.31597
1.3163
1.31662
1.31695
1.31727
1.3176
1.31792
1.31824
1.31855
1.31886
1.31917
1.31947
1.31976
1.32004
1.32032
1.32059
1.32085
1.3211
1.32134
1.32157
1.32179
1.32201
1.32221
1.3224
1.32258
1.32276
1.32292
1.32308
1.32323
1.32337
1.3235
1.32363
1.32375
1.32386
1.32397
1.32407
1.32417
1.32427
1.32436
1.32444
1.32452
1.3246
1.32468
1.32476
1.32483
1.3249
1.32496
1.32503
1.32509
1.32515
1.32521
1.32527
1.32533
1.32538
1.32544
1.32549
1.32554
1.32559
1.32564
1.32569
1.32574
1.32579
1.32584
1.32589
1.32595
1.326
1.32606
1.32612
1.32618
1.32625
1.32632
1.3264
1.32648
1.32657
1.32667
1.32677
1.32689
1.32701
1.32714
1.32729
1.32745
1.32762
1.32781
1.32801
1.32822
1.32845
1.3287
1.32897
1.32926
1.32957
1.3299
1.33025
1.33062
1.33102
1.33144
1.33189
1.33236
1.33287
1.3334
1.33396
1.33455
1.33517
1.33583
1.33653
1.33726
1.33803
1.33884
1.33969
1.34059
1.34155
1.34255
1.34361
1.34474
1.34594
1.34721
1.34857
1.35003
1.35161
1.35331
1.35516
1.3572
1.35946
1.36199
1.36487
1.36821
1.37214
1.37693
1.38312
1.39172
1.40381
1.42177
1.45869
1.25318
1.26147
1.27433
1.28572
1.29154
1.29438
1.29612
1.29739
1.29833
1.29903
1.29956
1.29997
1.3003
1.30057
1.30079
1.30097
1.30112
1.30124
1.30134
1.30142
1.30149
1.30155
1.30159
1.30162
1.30164
1.30166
1.30166
1.30166
1.30166
1.30164
1.30162
1.3016
1.30157
1.30154
1.3015
1.30146
1.30142
1.30137
1.30133
1.30128
1.30123
1.30117
1.30112
1.30107
1.30102
1.30096
1.30091
1.30086
1.30081
1.30077
1.30073
1.30069
1.30065
1.30062
1.30059
1.30057
1.30055
1.30054
1.30053
1.30053
1.30054
1.30055
1.30057
1.3006
1.30064
1.30068
1.30074
1.3008
1.30087
1.30095
1.30104
1.30113
1.30124
1.30136
1.30148
1.30161
1.30175
1.30191
1.30206
1.30223
1.30241
1.30259
1.30278
1.30298
1.30319
1.3034
1.30362
1.30385
1.30408
1.30432
1.30457
1.30481
1.30507
1.30532
1.30558
1.30584
1.3061
1.30636
1.30663
1.30689
1.30715
1.30741
1.30767
1.30792
1.30817
1.30842
1.30866
1.3089
1.30913
1.30935
1.30957
1.30977
1.30997
1.31016
1.31034
1.31051
1.31067
1.31082
1.31096
1.31109
1.3112
1.31131
1.31141
1.31149
1.31157
1.31163
1.31169
1.31174
1.31178
1.31181
1.31183
1.31185
1.31185
1.31186
1.31186
1.31185
1.31183
1.31182
1.3118
1.31177
1.31174
1.31171
1.31168
1.31164
1.3116
1.31156
1.31152
1.31148
1.31143
1.31138
1.31134
1.31129
1.31123
1.31118
1.31113
1.31108
1.31102
1.31097
1.31091
1.31085
1.31079
1.31074
1.31068
1.31062
1.31055
1.31049
1.31043
1.31037
1.3103
1.31024
1.31018
1.31011
1.31004
1.30998
1.30991
1.30984
1.30978
1.30971
1.30964
1.30957
1.3095
1.30944
1.30937
1.3093
1.30923
1.30916
1.3091
1.30903
1.30896
1.3089
1.30883
1.30877
1.3087
1.30864
1.30858
1.30852
1.30846
1.3084
1.30834
1.30829
1.30823
1.30818
1.30813
1.30809
1.30804
1.308
1.30796
1.30792
1.30789
1.30786
1.30783
1.3078
1.30778
1.30776
1.30775
1.30774
1.30773
1.30773
1.30773
1.30774
1.30775
1.30776
1.30778
1.30781
1.30784
1.30788
1.30792
1.30796
1.30802
1.30808
1.30814
1.30821
1.30829
1.30838
1.30847
1.30856
1.30867
1.30878
1.3089
1.30903
1.30916
1.30931
1.30946
1.30962
1.30978
1.30996
1.31014
1.31033
1.31053
1.31074
1.31095
1.31117
1.31141
1.31164
1.31189
1.31215
1.31241
1.31268
1.31295
1.31323
1.31352
1.31382
1.31412
1.31442
1.31473
1.31505
1.31536
1.31569
1.31601
1.31633
1.31666
1.31698
1.3173
1.31763
1.31795
1.31826
1.31858
1.31889
1.31919
1.31949
1.31978
1.32006
1.32033
1.3206
1.32086
1.32111
1.32134
1.32157
1.32179
1.322
1.3222
1.3224
1.32258
1.32275
1.32291
1.32307
1.32322
1.32336
1.32349
1.32362
1.32374
1.32385
1.32396
1.32406
1.32416
1.32425
1.32434
1.32443
1.32451
1.32459
1.32467
1.32474
1.32481
1.32488
1.32495
1.32502
1.32508
1.32514
1.3252
1.32526
1.32532
1.32537
1.32542
1.32548
1.32553
1.32558
1.32563
1.32568
1.32573
1.32578
1.32583
1.32589
1.32594
1.32599
1.32605
1.32611
1.32618
1.32624
1.32632
1.3264
1.32648
1.32657
1.32667
1.32678
1.32689
1.32702
1.32716
1.3273
1.32746
1.32764
1.32783
1.32803
1.32825
1.32848
1.32874
1.32901
1.3293
1.32961
1.32994
1.3303
1.33067
1.33107
1.3315
1.33195
1.33243
1.33294
1.33347
1.33404
1.33463
1.33526
1.33593
1.33663
1.33736
1.33814
1.33896
1.33982
1.34073
1.34169
1.3427
1.34378
1.34492
1.34613
1.34742
1.3488
1.35029
1.35189
1.35363
1.35553
1.35763
1.35996
1.36259
1.3656
1.36911
1.3733
1.37847
1.385
1.39351
1.40598
1.42771
1.46188
1.27433
1.27069
1.27869
1.28547
1.28961
1.2926
1.29476
1.29628
1.29738
1.29821
1.29885
1.29936
1.29977
1.3001
1.30037
1.30059
1.30078
1.30093
1.30106
1.30117
1.30126
1.30133
1.30139
1.30144
1.30147
1.3015
1.30151
1.30152
1.30152
1.30152
1.3015
1.30149
1.30146
1.30144
1.30141
1.30137
1.30133
1.30129
1.30125
1.3012
1.30115
1.30111
1.30106
1.30101
1.30096
1.30091
1.30086
1.30081
1.30076
1.30072
1.30068
1.30064
1.30061
1.30058
1.30055
1.30053
1.30052
1.30051
1.3005
1.3005
1.30051
1.30053
1.30055
1.30058
1.30062
1.30067
1.30072
1.30079
1.30086
1.30094
1.30103
1.30113
1.30124
1.30136
1.30148
1.30162
1.30176
1.30191
1.30207
1.30224
1.30242
1.3026
1.3028
1.303
1.30321
1.30342
1.30364
1.30387
1.3041
1.30434
1.30459
1.30483
1.30509
1.30534
1.3056
1.30586
1.30612
1.30638
1.30665
1.30691
1.30717
1.30743
1.30769
1.30794
1.30819
1.30843
1.30867
1.30891
1.30914
1.30936
1.30957
1.30978
1.30998
1.31016
1.31034
1.31051
1.31067
1.31082
1.31095
1.31108
1.31119
1.3113
1.31139
1.31148
1.31155
1.31161
1.31167
1.31172
1.31175
1.31178
1.31181
1.31182
1.31183
1.31183
1.31183
1.31182
1.31181
1.31179
1.31177
1.31175
1.31172
1.31169
1.31165
1.31162
1.31158
1.31154
1.3115
1.31145
1.31141
1.31136
1.31131
1.31126
1.31121
1.31116
1.31111
1.31106
1.311
1.31095
1.31089
1.31083
1.31078
1.31072
1.31066
1.3106
1.31054
1.31048
1.31042
1.31035
1.31029
1.31023
1.31016
1.3101
1.31003
1.30997
1.3099
1.30983
1.30977
1.3097
1.30963
1.30956
1.30949
1.30943
1.30936
1.30929
1.30922
1.30915
1.30909
1.30902
1.30895
1.30889
1.30882
1.30876
1.30869
1.30863
1.30857
1.30851
1.30845
1.30839
1.30834
1.30828
1.30823
1.30818
1.30813
1.30808
1.30804
1.308
1.30796
1.30792
1.30789
1.30785
1.30783
1.3078
1.30778
1.30776
1.30775
1.30774
1.30773
1.30773
1.30773
1.30774
1.30775
1.30777
1.30779
1.30781
1.30784
1.30788
1.30792
1.30797
1.30802
1.30808
1.30815
1.30822
1.3083
1.30838
1.30848
1.30858
1.30868
1.30879
1.30891
1.30904
1.30918
1.30932
1.30947
1.30963
1.3098
1.30998
1.31016
1.31035
1.31055
1.31076
1.31097
1.3112
1.31143
1.31167
1.31192
1.31217
1.31243
1.3127
1.31298
1.31326
1.31355
1.31385
1.31415
1.31446
1.31477
1.31508
1.3154
1.31572
1.31604
1.31636
1.31669
1.31701
1.31734
1.31766
1.31798
1.31829
1.31861
1.31891
1.31922
1.31951
1.3198
1.32008
1.32035
1.32062
1.32087
1.32112
1.32136
1.32159
1.3218
1.32201
1.32221
1.3224
1.32258
1.32275
1.32292
1.32307
1.32322
1.32335
1.32349
1.32361
1.32373
1.32384
1.32395
1.32405
1.32415
1.32424
1.32433
1.32442
1.3245
1.32458
1.32466
1.32473
1.3248
1.32487
1.32494
1.32501
1.32507
1.32513
1.32519
1.32525
1.32531
1.32536
1.32542
1.32547
1.32552
1.32557
1.32562
1.32567
1.32572
1.32577
1.32582
1.32588
1.32593
1.32599
1.32604
1.3261
1.32617
1.32624
1.32631
1.32639
1.32647
1.32657
1.32667
1.32677
1.32689
1.32702
1.32716
1.32731
1.32747
1.32764
1.32783
1.32804
1.32826
1.3285
1.32875
1.32903
1.32932
1.32963
1.32997
1.33032
1.3307
1.33111
1.33154
1.33199
1.33247
1.33298
1.33352
1.33409
1.33469
1.33532
1.33599
1.33669
1.33743
1.33821
1.33903
1.3399
1.34081
1.34178
1.3428
1.34388
1.34503
1.34624
1.34754
1.34893
1.35043
1.35204
1.35379
1.35571
1.35782
1.36017
1.36282
1.36584
1.36935
1.37349
1.37849
1.38476
1.39287
1.40307
1.41415
1.42446
1.28215
1.28098
1.28338
1.28621
1.2895
1.29216
1.2941
1.29556
1.29669
1.29758
1.29829
1.29885
1.29931
1.29968
1.29999
1.30025
1.30047
1.30065
1.3008
1.30093
1.30104
1.30113
1.3012
1.30126
1.30131
1.30134
1.30137
1.30139
1.30139
1.3014
1.30139
1.30138
1.30136
1.30134
1.30131
1.30128
1.30125
1.30121
1.30117
1.30113
1.30108
1.30104
1.30099
1.30094
1.30089
1.30085
1.3008
1.30076
1.30071
1.30067
1.30063
1.3006
1.30056
1.30054
1.30051
1.30049
1.30048
1.30047
1.30047
1.30047
1.30048
1.3005
1.30053
1.30056
1.3006
1.30065
1.30071
1.30077
1.30085
1.30093
1.30102
1.30112
1.30123
1.30135
1.30148
1.30161
1.30176
1.30191
1.30207
1.30225
1.30242
1.30261
1.3028
1.30301
1.30322
1.30343
1.30365
1.30388
1.30412
1.30436
1.3046
1.30485
1.30511
1.30536
1.30562
1.30588
1.30614
1.30641
1.30667
1.30693
1.30719
1.30745
1.30771
1.30796
1.30821
1.30845
1.30869
1.30893
1.30916
1.30938
1.30959
1.30979
1.30999
1.31018
1.31035
1.31052
1.31067
1.31082
1.31096
1.31108
1.31119
1.3113
1.31139
1.31147
1.31154
1.3116
1.31166
1.3117
1.31174
1.31177
1.31179
1.3118
1.31181
1.31181
1.31181
1.3118
1.31179
1.31177
1.31175
1.31172
1.31169
1.31166
1.31163
1.31159
1.31156
1.31152
1.31147
1.31143
1.31139
1.31134
1.31129
1.31124
1.31119
1.31114
1.31109
1.31104
1.31098
1.31093
1.31087
1.31082
1.31076
1.3107
1.31064
1.31058
1.31052
1.31046
1.3104
1.31034
1.31028
1.31021
1.31015
1.31008
1.31002
1.30995
1.30989
1.30982
1.30975
1.30969
1.30962
1.30955
1.30948
1.30942
1.30935
1.30928
1.30921
1.30914
1.30908
1.30901
1.30894
1.30888
1.30881
1.30875
1.30868
1.30862
1.30856
1.3085
1.30844
1.30838
1.30833
1.30827
1.30822
1.30817
1.30812
1.30807
1.30803
1.30799
1.30795
1.30791
1.30788
1.30785
1.30782
1.3078
1.30777
1.30776
1.30774
1.30773
1.30773
1.30773
1.30773
1.30774
1.30775
1.30776
1.30778
1.30781
1.30784
1.30788
1.30792
1.30797
1.30802
1.30808
1.30815
1.30822
1.3083
1.30839
1.30848
1.30858
1.30868
1.3088
1.30892
1.30905
1.30919
1.30933
1.30948
1.30964
1.30981
1.30999
1.31017
1.31036
1.31056
1.31077
1.31099
1.31121
1.31145
1.31169
1.31193
1.31219
1.31245
1.31273
1.313
1.31329
1.31358
1.31387
1.31418
1.31448
1.31479
1.31511
1.31543
1.31575
1.31607
1.3164
1.31672
1.31705
1.31737
1.31769
1.31801
1.31833
1.31864
1.31895
1.31925
1.31954
1.31983
1.32011
1.32038
1.32065
1.3209
1.32115
1.32138
1.32161
1.32183
1.32203
1.32223
1.32242
1.32259
1.32276
1.32292
1.32308
1.32322
1.32336
1.32349
1.32361
1.32373
1.32384
1.32395
1.32405
1.32415
1.32424
1.32433
1.32441
1.3245
1.32458
1.32465
1.32473
1.3248
1.32487
1.32493
1.325
1.32506
1.32512
1.32518
1.32524
1.3253
1.32535
1.32541
1.32546
1.32551
1.32556
1.32561
1.32566
1.32571
1.32576
1.32582
1.32587
1.32592
1.32598
1.32603
1.32609
1.32616
1.32623
1.3263
1.32638
1.32646
1.32656
1.32666
1.32676
1.32688
1.32701
1.32715
1.3273
1.32746
1.32764
1.32783
1.32804
1.32826
1.3285
1.32875
1.32903
1.32932
1.32964
1.32997
1.33033
1.33071
1.33112
1.33155
1.332
1.33249
1.333
1.33354
1.33411
1.33471
1.33534
1.33601
1.33672
1.33746
1.33824
1.33907
1.33993
1.34085
1.34181
1.34284
1.34392
1.34506
1.34628
1.34758
1.34896
1.35045
1.35206
1.3538
1.3557
1.35778
1.3601
1.36269
1.36562
1.36898
1.37288
1.37745
1.38281
1.38903
1.39591
1.40151
1.40163
1.28675
1.28632
1.28685
1.28845
1.29051
1.29234
1.29393
1.29525
1.29632
1.29718
1.29788
1.29846
1.29894
1.29934
1.29968
1.29996
1.3002
1.3004
1.30057
1.30072
1.30084
1.30094
1.30103
1.3011
1.30116
1.3012
1.30123
1.30126
1.30127
1.30128
1.30128
1.30128
1.30126
1.30125
1.30122
1.3012
1.30117
1.30113
1.30109
1.30105
1.30101
1.30097
1.30092
1.30088
1.30083
1.30079
1.30074
1.3007
1.30066
1.30062
1.30058
1.30055
1.30052
1.30049
1.30047
1.30045
1.30044
1.30043
1.30043
1.30044
1.30045
1.30047
1.30049
1.30053
1.30057
1.30062
1.30068
1.30075
1.30083
1.30091
1.301
1.30111
1.30122
1.30134
1.30147
1.30161
1.30175
1.30191
1.30207
1.30224
1.30242
1.30261
1.30281
1.30301
1.30322
1.30344
1.30366
1.30389
1.30413
1.30437
1.30462
1.30487
1.30512
1.30538
1.30564
1.3059
1.30616
1.30643
1.30669
1.30695
1.30721
1.30747
1.30773
1.30798
1.30823
1.30848
1.30872
1.30895
1.30918
1.3094
1.30961
1.30982
1.31001
1.3102
1.31037
1.31054
1.31069
1.31084
1.31097
1.31109
1.3112
1.3113
1.31139
1.31147
1.31154
1.3116
1.31165
1.31169
1.31173
1.31176
1.31177
1.31179
1.31179
1.31179
1.31179
1.31178
1.31177
1.31175
1.31172
1.3117
1.31167
1.31164
1.31161
1.31157
1.31153
1.31149
1.31145
1.31141
1.31136
1.31132
1.31127
1.31122
1.31117
1.31112
1.31107
1.31102
1.31096
1.31091
1.31085
1.3108
1.31074
1.31068
1.31062
1.31057
1.31051
1.31045
1.31038
1.31032
1.31026
1.3102
1.31013
1.31007
1.31
1.30994
1.30987
1.30981
1.30974
1.30967
1.30961
1.30954
1.30947
1.3094
1.30933
1.30927
1.3092
1.30913
1.30907
1.309
1.30893
1.30887
1.3088
1.30874
1.30867
1.30861
1.30855
1.30849
1.30843
1.30837
1.30832
1.30826
1.30821
1.30816
1.30811
1.30807
1.30802
1.30798
1.30794
1.3079
1.30787
1.30784
1.30781
1.30779
1.30777
1.30775
1.30774
1.30773
1.30772
1.30772
1.30772
1.30773
1.30774
1.30775
1.30778
1.3078
1.30783
1.30787
1.30791
1.30796
1.30802
1.30808
1.30814
1.30822
1.30829
1.30838
1.30847
1.30857
1.30868
1.3088
1.30892
1.30905
1.30918
1.30933
1.30948
1.30964
1.30981
1.30999
1.31017
1.31036
1.31057
1.31078
1.31099
1.31122
1.31145
1.31169
1.31194
1.3122
1.31247
1.31274
1.31302
1.3133
1.31359
1.31389
1.3142
1.3145
1.31482
1.31513
1.31545
1.31578
1.3161
1.31643
1.31675
1.31708
1.3174
1.31773
1.31805
1.31837
1.31868
1.31899
1.31929
1.31958
1.31987
1.32015
1.32042
1.32068
1.32094
1.32118
1.32142
1.32164
1.32186
1.32206
1.32225
1.32244
1.32262
1.32278
1.32294
1.32309
1.32324
1.32337
1.3235
1.32362
1.32374
1.32385
1.32395
1.32405
1.32415
1.32424
1.32433
1.32441
1.3245
1.32457
1.32465
1.32472
1.3248
1.32486
1.32493
1.325
1.32506
1.32512
1.32518
1.32524
1.32529
1.32535
1.3254
1.32546
1.32551
1.32556
1.32561
1.32566
1.32571
1.32576
1.32581
1.32586
1.32591
1.32597
1.32602
1.32608
1.32615
1.32621
1.32629
1.32637
1.32645
1.32654
1.32664
1.32675
1.32687
1.32699
1.32713
1.32728
1.32744
1.32762
1.32781
1.32802
1.32824
1.32848
1.32874
1.32901
1.32931
1.32962
1.32996
1.33032
1.3307
1.3311
1.33153
1.33199
1.33248
1.33299
1.33353
1.3341
1.3347
1.33534
1.336
1.33671
1.33745
1.33823
1.33905
1.33992
1.34083
1.3418
1.34281
1.34389
1.34502
1.34623
1.34752
1.34889
1.35036
1.35194
1.35365
1.3555
1.35753
1.35976
1.36223
1.36499
1.36809
1.37158
1.3755
1.37982
1.38426
1.38824
1.39095
1.39022
1.2901
1.28952
1.28963
1.29052
1.29168
1.29295
1.29418
1.29526
1.29619
1.29698
1.29764
1.29821
1.29868
1.29909
1.29943
1.29972
1.29997
1.30019
1.30037
1.30053
1.30066
1.30078
1.30087
1.30095
1.30102
1.30107
1.30111
1.30114
1.30116
1.30118
1.30118
1.30118
1.30117
1.30116
1.30114
1.30111
1.30109
1.30106
1.30102
1.30098
1.30094
1.3009
1.30086
1.30082
1.30077
1.30073
1.30069
1.30065
1.3006
1.30057
1.30053
1.3005
1.30047
1.30044
1.30042
1.3004
1.30039
1.30039
1.30039
1.3004
1.30041
1.30043
1.30046
1.30049
1.30054
1.30059
1.30065
1.30072
1.3008
1.30088
1.30098
1.30108
1.3012
1.30132
1.30145
1.30159
1.30174
1.3019
1.30206
1.30223
1.30242
1.30261
1.3028
1.30301
1.30322
1.30344
1.30367
1.3039
1.30414
1.30438
1.30463
1.30488
1.30514
1.3054
1.30566
1.30592
1.30618
1.30645
1.30671
1.30698
1.30724
1.3075
1.30776
1.30801
1.30826
1.30851
1.30875
1.30898
1.30921
1.30943
1.30964
1.30985
1.31004
1.31022
1.3104
1.31056
1.31072
1.31086
1.31099
1.31111
1.31122
1.31132
1.3114
1.31148
1.31155
1.31161
1.31165
1.31169
1.31173
1.31175
1.31177
1.31178
1.31178
1.31178
1.31177
1.31176
1.31175
1.31173
1.31171
1.31168
1.31165
1.31162
1.31158
1.31155
1.31151
1.31147
1.31143
1.31138
1.31134
1.31129
1.31125
1.3112
1.31115
1.3111
1.31105
1.311
1.31094
1.31089
1.31083
1.31078
1.31072
1.31066
1.31061
1.31055
1.31049
1.31043
1.31037
1.31031
1.31024
1.31018
1.31012
1.31005
1.30999
1.30992
1.30986
1.30979
1.30973
1.30966
1.30959
1.30952
1.30946
1.30939
1.30932
1.30925
1.30919
1.30912
1.30905
1.30899
1.30892
1.30885
1.30879
1.30873
1.30866
1.3086
1.30854
1.30848
1.30842
1.30836
1.30831
1.30825
1.3082
1.30815
1.3081
1.30805
1.30801
1.30797
1.30793
1.30789
1.30786
1.30783
1.3078
1.30778
1.30775
1.30774
1.30772
1.30771
1.30771
1.30771
1.30771
1.30771
1.30773
1.30774
1.30776
1.30779
1.30782
1.30786
1.3079
1.30795
1.308
1.30806
1.30813
1.3082
1.30828
1.30837
1.30846
1.30856
1.30867
1.30878
1.30891
1.30904
1.30917
1.30932
1.30947
1.30963
1.3098
1.30998
1.31017
1.31036
1.31056
1.31077
1.31099
1.31122
1.31145
1.3117
1.31195
1.31221
1.31247
1.31275
1.31303
1.31331
1.31361
1.31391
1.31421
1.31452
1.31484
1.31515
1.31548
1.3158
1.31613
1.31646
1.31678
1.31711
1.31744
1.31776
1.31809
1.31841
1.31872
1.31903
1.31933
1.31963
1.31991
1.3202
1.32047
1.32073
1.32098
1.32123
1.32146
1.32168
1.32189
1.3221
1.32229
1.32247
1.32265
1.32281
1.32297
1.32312
1.32326
1.32339
1.32352
1.32364
1.32375
1.32386
1.32396
1.32406
1.32416
1.32425
1.32433
1.32442
1.3245
1.32458
1.32465
1.32473
1.3248
1.32486
1.32493
1.325
1.32506
1.32512
1.32518
1.32524
1.32529
1.32535
1.3254
1.32545
1.3255
1.32555
1.3256
1.32565
1.3257
1.32575
1.3258
1.32585
1.3259
1.32595
1.32601
1.32607
1.32613
1.3262
1.32627
1.32635
1.32643
1.32652
1.32662
1.32673
1.32684
1.32697
1.32711
1.32726
1.32742
1.32759
1.32778
1.32799
1.32821
1.32845
1.3287
1.32898
1.32927
1.32959
1.32992
1.33028
1.33066
1.33107
1.3315
1.33196
1.33244
1.33295
1.33349
1.33406
1.33466
1.33529
1.33596
1.33666
1.3374
1.33818
1.339
1.33986
1.34077
1.34172
1.34273
1.34379
1.34492
1.34611
1.34737
1.34872
1.35016
1.35169
1.35335
1.35513
1.35707
1.35918
1.36149
1.36402
1.3668
1.36981
1.37303
1.37632
1.37943
1.38182
1.38304
1.38275
1.29239
1.29176
1.29173
1.29216
1.29287
1.29374
1.29463
1.29548
1.29625
1.29694
1.29754
1.29806
1.29852
1.29891
1.29925
1.29954
1.2998
1.30002
1.30021
1.30037
1.30051
1.30063
1.30073
1.30082
1.30089
1.30095
1.301
1.30103
1.30106
1.30108
1.30109
1.30109
1.30108
1.30107
1.30106
1.30104
1.30101
1.30098
1.30095
1.30092
1.30088
1.30084
1.3008
1.30076
1.30072
1.30067
1.30063
1.30059
1.30055
1.30051
1.30048
1.30045
1.30042
1.30039
1.30037
1.30036
1.30035
1.30034
1.30034
1.30035
1.30037
1.30039
1.30042
1.30046
1.3005
1.30055
1.30062
1.30069
1.30077
1.30085
1.30095
1.30106
1.30117
1.3013
1.30143
1.30157
1.30172
1.30188
1.30204
1.30222
1.3024
1.30259
1.30279
1.303
1.30322
1.30344
1.30366
1.3039
1.30414
1.30438
1.30463
1.30489
1.30515
1.30541
1.30567
1.30594
1.3062
1.30647
1.30674
1.307
1.30727
1.30753
1.30779
1.30804
1.30829
1.30854
1.30878
1.30902
1.30924
1.30947
1.30968
1.30988
1.31008
1.31026
1.31043
1.3106
1.31075
1.31089
1.31102
1.31114
1.31124
1.31134
1.31142
1.3115
1.31156
1.31162
1.31166
1.3117
1.31173
1.31175
1.31176
1.31177
1.31177
1.31177
1.31176
1.31175
1.31173
1.31171
1.31169
1.31166
1.31163
1.3116
1.31156
1.31153
1.31149
1.31145
1.31141
1.31136
1.31132
1.31127
1.31122
1.31118
1.31113
1.31108
1.31102
1.31097
1.31092
1.31087
1.31081
1.31076
1.3107
1.31064
1.31059
1.31053
1.31047
1.31041
1.31035
1.31029
1.31023
1.31016
1.3101
1.31004
1.30997
1.30991
1.30984
1.30978
1.30971
1.30964
1.30958
1.30951
1.30944
1.30938
1.30931
1.30924
1.30917
1.30911
1.30904
1.30897
1.30891
1.30884
1.30878
1.30871
1.30865
1.30859
1.30853
1.30847
1.30841
1.30835
1.30829
1.30824
1.30819
1.30814
1.30809
1.30804
1.308
1.30795
1.30791
1.30788
1.30784
1.30781
1.30778
1.30776
1.30774
1.30772
1.30771
1.3077
1.30769
1.30769
1.30769
1.3077
1.30771
1.30773
1.30775
1.30777
1.3078
1.30784
1.30788
1.30793
1.30799
1.30805
1.30811
1.30819
1.30826
1.30835
1.30844
1.30854
1.30865
1.30877
1.30889
1.30902
1.30916
1.3093
1.30945
1.30962
1.30979
1.30996
1.31015
1.31035
1.31055
1.31076
1.31098
1.31121
1.31144
1.31169
1.31194
1.3122
1.31247
1.31274
1.31303
1.31331
1.31361
1.31391
1.31422
1.31453
1.31485
1.31517
1.31549
1.31582
1.31615
1.31648
1.31681
1.31714
1.31747
1.3178
1.31813
1.31845
1.31876
1.31907
1.31938
1.31968
1.31997
1.32025
1.32052
1.32078
1.32103
1.32128
1.32151
1.32173
1.32194
1.32214
1.32233
1.32251
1.32269
1.32285
1.323
1.32315
1.32329
1.32342
1.32354
1.32366
1.32377
1.32388
1.32398
1.32408
1.32417
1.32426
1.32434
1.32443
1.32451
1.32458
1.32466
1.32473
1.3248
1.32487
1.32493
1.325
1.32506
1.32512
1.32518
1.32524
1.32529
1.32535
1.3254
1.32545
1.3255
1.32555
1.3256
1.32565
1.3257
1.32574
1.32579
1.32584
1.32589
1.32594
1.326
1.32605
1.32612
1.32618
1.32625
1.32633
1.32641
1.3265
1.32659
1.3267
1.32681
1.32694
1.32707
1.32722
1.32738
1.32755
1.32774
1.32795
1.32817
1.3284
1.32866
1.32893
1.32922
1.32954
1.32987
1.33023
1.33061
1.33101
1.33144
1.3319
1.33238
1.33289
1.33342
1.33399
1.33459
1.33522
1.33588
1.33658
1.33732
1.33809
1.3389
1.33975
1.34065
1.34159
1.34259
1.34364
1.34474
1.34591
1.34714
1.34845
1.34985
1.35133
1.35292
1.35462
1.35644
1.35841
1.36053
1.3628
1.36522
1.36777
1.37035
1.37282
1.37496
1.37648
1.37708
1.37682
1.29397
1.29343
1.29331
1.2935
1.29393
1.29452
1.29516
1.29581
1.29644
1.29702
1.29755
1.29802
1.29843
1.2988
1.29913
1.29941
1.29966
1.29988
1.30007
1.30024
1.30038
1.3005
1.30061
1.3007
1.30078
1.30084
1.30089
1.30093
1.30096
1.30098
1.301
1.301
1.301
1.301
1.30098
1.30096
1.30094
1.30092
1.30088
1.30085
1.30082
1.30078
1.30074
1.3007
1.30066
1.30062
1.30058
1.30054
1.3005
1.30046
1.30043
1.3004
1.30037
1.30034
1.30032
1.30031
1.3003
1.3003
1.3003
1.30031
1.30032
1.30034
1.30037
1.30041
1.30046
1.30051
1.30058
1.30065
1.30073
1.30082
1.30092
1.30103
1.30114
1.30127
1.3014
1.30154
1.3017
1.30186
1.30202
1.3022
1.30239
1.30258
1.30278
1.30299
1.30321
1.30343
1.30366
1.3039
1.30414
1.30439
1.30464
1.3049
1.30516
1.30542
1.30569
1.30596
1.30622
1.30649
1.30676
1.30703
1.30729
1.30756
1.30782
1.30808
1.30833
1.30858
1.30882
1.30906
1.30928
1.30951
1.30972
1.30992
1.31012
1.3103
1.31047
1.31064
1.31079
1.31093
1.31105
1.31117
1.31127
1.31137
1.31145
1.31152
1.31158
1.31163
1.31168
1.31171
1.31173
1.31175
1.31176
1.31177
1.31177
1.31176
1.31175
1.31174
1.31172
1.3117
1.31167
1.31164
1.31161
1.31158
1.31154
1.31151
1.31147
1.31143
1.31138
1.31134
1.31129
1.31125
1.3112
1.31115
1.3111
1.31105
1.311
1.31095
1.3109
1.31084
1.31079
1.31074
1.31068
1.31062
1.31057
1.31051
1.31045
1.31039
1.31033
1.31027
1.31021
1.31015
1.31008
1.31002
1.30996
1.30989
1.30983
1.30976
1.30969
1.30963
1.30956
1.30949
1.30943
1.30936
1.30929
1.30923
1.30916
1.30909
1.30902
1.30896
1.30889
1.30883
1.30876
1.3087
1.30863
1.30857
1.30851
1.30845
1.30839
1.30833
1.30828
1.30822
1.30817
1.30812
1.30807
1.30802
1.30798
1.30794
1.3079
1.30786
1.30783
1.3078
1.30777
1.30774
1.30772
1.3077
1.30769
1.30768
1.30767
1.30767
1.30767
1.30768
1.30769
1.3077
1.30772
1.30775
1.30778
1.30782
1.30786
1.30791
1.30796
1.30802
1.30809
1.30816
1.30824
1.30833
1.30842
1.30852
1.30863
1.30874
1.30886
1.30899
1.30913
1.30928
1.30943
1.30959
1.30976
1.30994
1.31013
1.31032
1.31053
1.31074
1.31096
1.31119
1.31143
1.31167
1.31193
1.31219
1.31246
1.31273
1.31302
1.31331
1.31361
1.31391
1.31422
1.31454
1.31486
1.31518
1.31551
1.31584
1.31617
1.31651
1.31684
1.31718
1.31751
1.31784
1.31817
1.31849
1.31881
1.31912
1.31943
1.31973
1.32002
1.3203
1.32058
1.32084
1.32109
1.32133
1.32157
1.32179
1.322
1.3222
1.32238
1.32256
1.32273
1.32289
1.32304
1.32319
1.32332
1.32345
1.32357
1.32369
1.3238
1.3239
1.324
1.32409
1.32418
1.32427
1.32436
1.32444
1.32452
1.32459
1.32467
1.32474
1.32481
1.32487
1.32494
1.325
1.32507
1.32513
1.32518
1.32524
1.3253
1.32535
1.3254
1.32545
1.3255
1.32555
1.3256
1.32565
1.32569
1.32574
1.32579
1.32583
1.32588
1.32593
1.32598
1.32604
1.3261
1.32616
1.32623
1.3263
1.32638
1.32647
1.32656
1.32666
1.32678
1.3269
1.32703
1.32718
1.32734
1.32751
1.32769
1.32789
1.32811
1.32835
1.3286
1.32887
1.32916
1.32947
1.3298
1.33016
1.33054
1.33094
1.33136
1.33182
1.33229
1.3328
1.33333
1.3339
1.33449
1.33512
1.33578
1.33647
1.33719
1.33796
1.33876
1.3396
1.34049
1.34142
1.34239
1.34342
1.3445
1.34564
1.34684
1.34811
1.34945
1.35087
1.35237
1.35397
1.35567
1.35748
1.3594
1.36141
1.36349
1.3656
1.36765
1.36951
1.37101
1.37199
1.37232
1.37197
1.29512
1.29468
1.29452
1.29459
1.29485
1.29524
1.29571
1.2962
1.2967
1.29718
1.29763
1.29804
1.29842
1.29876
1.29906
1.29933
1.29957
1.29978
1.29997
1.30013
1.30028
1.3004
1.30051
1.3006
1.30068
1.30075
1.3008
1.30084
1.30088
1.3009
1.30092
1.30093
1.30093
1.30092
1.30091
1.3009
1.30088
1.30085
1.30082
1.30079
1.30076
1.30072
1.30068
1.30064
1.3006
1.30056
1.30052
1.30049
1.30045
1.30041
1.30038
1.30035
1.30032
1.3003
1.30028
1.30026
1.30025
1.30025
1.30025
1.30026
1.30028
1.3003
1.30033
1.30037
1.30042
1.30047
1.30054
1.30061
1.30069
1.30078
1.30088
1.30099
1.30111
1.30124
1.30137
1.30152
1.30167
1.30183
1.302
1.30218
1.30237
1.30256
1.30276
1.30298
1.30319
1.30342
1.30365
1.30389
1.30414
1.30439
1.30464
1.3049
1.30516
1.30543
1.3057
1.30597
1.30624
1.30651
1.30678
1.30705
1.30732
1.30759
1.30785
1.30811
1.30836
1.30861
1.30886
1.3091
1.30933
1.30955
1.30976
1.30997
1.31016
1.31035
1.31052
1.31068
1.31083
1.31097
1.3111
1.31121
1.31131
1.3114
1.31148
1.31155
1.31161
1.31165
1.31169
1.31172
1.31175
1.31176
1.31177
1.31177
1.31177
1.31176
1.31175
1.31173
1.31171
1.31168
1.31166
1.31163
1.31159
1.31156
1.31152
1.31149
1.31144
1.3114
1.31136
1.31132
1.31127
1.31123
1.31118
1.31113
1.31108
1.31103
1.31098
1.31093
1.31088
1.31082
1.31077
1.31071
1.31066
1.3106
1.31055
1.31049
1.31043
1.31037
1.31031
1.31025
1.31019
1.31013
1.31006
1.31
1.30994
1.30987
1.30981
1.30974
1.30968
1.30961
1.30955
1.30948
1.30941
1.30934
1.30928
1.30921
1.30914
1.30908
1.30901
1.30894
1.30888
1.30881
1.30875
1.30868
1.30862
1.30856
1.30849
1.30843
1.30838
1.30832
1.30826
1.30821
1.30815
1.3081
1.30805
1.30801
1.30796
1.30792
1.30788
1.30784
1.30781
1.30778
1.30775
1.30772
1.3077
1.30768
1.30767
1.30766
1.30765
1.30765
1.30765
1.30765
1.30766
1.30768
1.3077
1.30772
1.30775
1.30779
1.30783
1.30788
1.30793
1.30799
1.30806
1.30813
1.30821
1.3083
1.30839
1.30849
1.30859
1.30871
1.30883
1.30896
1.3091
1.30925
1.3094
1.30956
1.30973
1.30991
1.3101
1.31029
1.3105
1.31071
1.31093
1.31116
1.3114
1.31165
1.3119
1.31217
1.31244
1.31272
1.313
1.3133
1.3136
1.3139
1.31422
1.31454
1.31486
1.31519
1.31552
1.31585
1.31619
1.31653
1.31686
1.3172
1.31754
1.31788
1.31821
1.31854
1.31886
1.31918
1.31948
1.31979
1.32008
1.32036
1.32064
1.3209
1.32116
1.3214
1.32163
1.32185
1.32206
1.32225
1.32244
1.32262
1.32278
1.32294
1.32309
1.32323
1.32336
1.32349
1.32361
1.32372
1.32382
1.32393
1.32402
1.32412
1.3242
1.32429
1.32437
1.32445
1.32453
1.3246
1.32468
1.32475
1.32482
1.32488
1.32495
1.32501
1.32507
1.32513
1.32519
1.32525
1.3253
1.32536
1.32541
1.32546
1.32551
1.32555
1.3256
1.32565
1.32569
1.32574
1.32578
1.32583
1.32587
1.32592
1.32597
1.32602
1.32608
1.32614
1.3262
1.32628
1.32635
1.32644
1.32653
1.32663
1.32674
1.32686
1.32699
1.32713
1.32728
1.32745
1.32763
1.32783
1.32805
1.32828
1.32853
1.3288
1.32908
1.32939
1.32972
1.33007
1.33045
1.33085
1.33127
1.33172
1.33219
1.33269
1.33322
1.33378
1.33437
1.33498
1.33563
1.33632
1.33704
1.33779
1.33858
1.33941
1.34028
1.34119
1.34214
1.34315
1.3442
1.3453
1.34646
1.34768
1.34896
1.35031
1.35173
1.35322
1.35479
1.35644
1.35815
1.35991
1.36169
1.36343
1.36505
1.36646
1.36753
1.36818
1.36835
1.36797
1.29601
1.29565
1.29547
1.29548
1.29563
1.29589
1.29622
1.2966
1.297
1.29739
1.29777
1.29812
1.29845
1.29876
1.29904
1.29929
1.29951
1.29971
1.29989
1.30005
1.30019
1.30032
1.30043
1.30052
1.3006
1.30067
1.30072
1.30077
1.3008
1.30083
1.30085
1.30086
1.30086
1.30086
1.30085
1.30083
1.30081
1.30079
1.30076
1.30073
1.3007
1.30067
1.30063
1.30059
1.30055
1.30051
1.30047
1.30043
1.3004
1.30036
1.30033
1.3003
1.30027
1.30025
1.30023
1.30021
1.3002
1.3002
1.3002
1.30021
1.30023
1.30025
1.30028
1.30032
1.30037
1.30043
1.30049
1.30057
1.30065
1.30074
1.30084
1.30096
1.30107
1.3012
1.30134
1.30149
1.30164
1.3018
1.30197
1.30216
1.30234
1.30254
1.30274
1.30296
1.30318
1.30341
1.30364
1.30388
1.30413
1.30438
1.30464
1.3049
1.30517
1.30544
1.30571
1.30598
1.30626
1.30653
1.30681
1.30708
1.30735
1.30762
1.30788
1.30814
1.3084
1.30865
1.3089
1.30914
1.30937
1.3096
1.30981
1.31002
1.31021
1.3104
1.31057
1.31073
1.31088
1.31102
1.31114
1.31125
1.31135
1.31144
1.31152
1.31158
1.31163
1.31168
1.31171
1.31174
1.31176
1.31177
1.31178
1.31178
1.31177
1.31176
1.31174
1.31172
1.3117
1.31167
1.31164
1.31161
1.31158
1.31154
1.3115
1.31146
1.31142
1.31138
1.31134
1.31129
1.31125
1.3112
1.31115
1.31111
1.31106
1.31101
1.31096
1.3109
1.31085
1.3108
1.31075
1.31069
1.31064
1.31058
1.31052
1.31047
1.31041
1.31035
1.31029
1.31023
1.31017
1.31011
1.31005
1.30998
1.30992
1.30986
1.30979
1.30973
1.30966
1.30959
1.30953
1.30946
1.30939
1.30933