# vtk DataFile Version 2.0
LBE mesh
ASCII
DATASET STRUCTURED_POINTS
DIMENSIONS 400 100 1
ASPECT_RATIO 1 1 1
ORIGIN 0 0 0
POINT_DATA 40000
SCALARS rho double 1
LOOKUP_TABLE default
1.01112
1.0592
1.0738
1.07791
1.08017
1.08185
1.08303
1.08381
1.08436
1.08477
1.08509
1.08533
1.08553
1.08568
1.08581
1.08591
1.08599
1.08606
1.08611
1.08616
1.08619
1.08622
1.08625
1.08627
1.08629
1.08631
1.08633
1.08634
1.08636
1.08638
1.0864
1.08642
1.08644
1.08647
1.08649
1.08653
1.08656
1.0866
1.08664
1.08668
1.08673
1.08679
1.08685
1.08691
1.08698
1.08705
1.08713
1.08721
1.0873
1.08739
1.08748
1.08758
1.08769
1.0878
1.08792
1.08804
1.08817
1.0883
1.08843
1.08857
1.08871
1.08886
1.08901
1.08917
1.08933
1.0895
1.08966
1.08984
1.09001
1.09019
1.09037
1.09056
1.09074
1.09093
1.09113
1.09132
1.09152
1.09172
1.09192
1.09213
1.09234
1.09254
1.09275
1.09297
1.09318
1.09339
1.09361
1.09382
1.09403
1.09425
1.09446
1.09467
1.09488
1.09509
1.09529
1.09549
1.09569
1.09588
1.09606
1.09624
1.09642
1.09658
1.09674
1.09688
1.09702
1.09715
1.09726
1.09736
1.09745
1.09753
1.09759
1.09763
1.09766
1.09768
1.09767
1.09765
1.09762
1.09757
1.0975
1.09741
1.09731
1.09719
1.09705
1.0969
1.09674
1.09656
1.09637
1.09617
1.09595
1.09573
1.0955
1.09525
1.095
1.09474
1.09448
1.09421
1.09394
1.09366
1.09338
1.0931
1.09281
1.09253
1.09224
1.09196
1.09167
1.09139
1.09111
1.09083
1.09056
1.09029
1.09002
1.08976
1.0895
1.08925
1.08901
1.08877
1.08853
1.0883
1.08808
1.08787
1.08766
1.08745
1.08726
1.08707
1.08689
1.08671
1.08654
1.08638
1.08622
1.08607
1.08592
1.08578
1.08565
1.08552
1.0854
1.08529
1.08518
1.08507
1.08497
1.08487
1.08478
1.08469
1.08461
1.08453
1.08446
1.08439
1.08432
1.08426
1.0842
1.08414
1.08409
1.08404
1.08399
1.08395
1.08391
1.08388
1.08385
1.08382
1.08379
1.08377
1.08375
1.08374
1.08372
1.08372
1.08371
1.08371
1.08371
1.08371
1.08371
1.08372
1.08373
1.08374
1.08375
1.08376
1.08378
1.08379
1.08381
1.08382
1.08384
1.08385
1.08386
1.08387
1.08389
1.08389
1.0839
1.08391
1.08391
1.08391
1.08391
1.0839
1.0839
1.08389
1.08388
1.08387
1.08386
1.08384
1.08383
1.08381
1.0838
1.08379
1.08378
1.08377
1.08377
1.08377
1.08377
1.08378
1.08379
1.08382
1.08384
1.08388
1.08393
1.08399
1.08405
1.08413
1.08422
1.08432
1.08443
1.08456
1.0847
1.08485
1.08502
1.0852
1.08539
1.08559
1.08581
1.08604
1.08628
1.08653
1.08679
1.08707
1.08735
1.08764
1.08793
1.08824
1.08854
1.08885
1.08917
1.08948
1.0898
1.09011
1.09043
1.09074
1.09105
1.09135
1.09165
1.09194
1.09223
1.0925
1.09277
1.09303
1.09328
1.09352
1.09376
1.09398
1.09419
1.09439
1.09458
1.09476
1.09493
1.09509
1.09524
1.09537
1.0955
1.09561
1.09572
1.09581
1.09589
1.09596
1.09601
1.09606
1.09609
1.09611
1.09612
1.09612
1.09611
1.09608
1.09604
1.09598
1.09592
1.09584
1.09575
1.09564
1.09553
1.0954
1.09526
1.09511
1.09496
1.09479
1.09461
1.09443
1.09424
1.09404
1.09384
1.09364
1.09343
1.09321
1.093
1.09279
1.09257
1.09236
1.09215
1.09194
1.09174
1.09154
1.09135
1.09117
1.091
1.09083
1.09068
1.09054
1.09041
1.0903
1.0902
1.09012
1.09006
1.09001
1.08999
1.08999
1.09001
1.09005
1.09012
1.09021
1.09033
1.09047
1.09065
1.09086
1.0911
1.09137
1.09167
1.09201
1.09239
1.0928
1.09326
1.09376
1.0943
1.09488
1.09552
1.0962
1.09694
1.09774
1.09859
1.09952
1.10051
1.10159
1.10276
1.10402
1.1054
1.10691
1.10857
1.11041
1.11248
1.11484
1.11757
1.12079
1.12472
1.1298
1.1368
1.14662
1.16208
1.19543
1.04407
1.05634
1.06679
1.07412
1.07805
1.08024
1.08167
1.0827
1.08346
1.08403
1.08446
1.08479
1.08506
1.08527
1.08544
1.08558
1.0857
1.08579
1.08587
1.08594
1.08599
1.08604
1.08608
1.08611
1.08614
1.08617
1.0862
1.08622
1.08625
1.08627
1.0863
1.08632
1.08635
1.08638
1.08642
1.08645
1.08649
1.08653
1.08658
1.08663
1.08668
1.08674
1.0868
1.08686
1.08693
1.08701
1.08709
1.08717
1.08726
1.08735
1.08745
1.08756
1.08766
1.08778
1.0879
1.08802
1.08815
1.08828
1.08842
1.08856
1.0887
1.08885
1.08901
1.08916
1.08933
1.08949
1.08966
1.08984
1.09001
1.09019
1.09038
1.09056
1.09075
1.09094
1.09114
1.09134
1.09154
1.09174
1.09194
1.09215
1.09235
1.09256
1.09278
1.09299
1.0932
1.09342
1.09363
1.09384
1.09406
1.09427
1.09449
1.0947
1.09491
1.09511
1.09532
1.09552
1.09571
1.0959
1.09609
1.09627
1.09644
1.0966
1.09675
1.0969
1.09703
1.09716
1.09727
1.09737
1.09746
1.09753
1.09759
1.09763
1.09766
1.09767
1.09766
1.09764
1.0976
1.09755
1.09748
1.09739
1.09728
1.09716
1.09703
1.09688
1.09671
1.09654
1.09634
1.09614
1.09593
1.0957
1.09547
1.09523
1.09498
1.09472
1.09446
1.09419
1.09392
1.09364
1.09336
1.09308
1.09279
1.09251
1.09223
1.09194
1.09166
1.09138
1.0911
1.09082
1.09055
1.09028
1.09002
1.08976
1.0895
1.08925
1.089
1.08876
1.08853
1.0883
1.08808
1.08787
1.08766
1.08746
1.08726
1.08707
1.08689
1.08671
1.08654
1.08638
1.08622
1.08607
1.08593
1.08579
1.08566
1.08553
1.08541
1.08529
1.08518
1.08508
1.08498
1.08488
1.08479
1.0847
1.08462
1.08454
1.08447
1.0844
1.08433
1.08427
1.08421
1.08415
1.0841
1.08405
1.08401
1.08397
1.08393
1.08389
1.08386
1.08383
1.08381
1.08379
1.08377
1.08375
1.08374
1.08373
1.08372
1.08372
1.08372
1.08372
1.08373
1.08373
1.08374
1.08375
1.08376
1.08377
1.08379
1.0838
1.08381
1.08383
1.08384
1.08386
1.08387
1.08388
1.08389
1.0839
1.0839
1.08391
1.08391
1.08391
1.08391
1.0839
1.0839
1.08389
1.08388
1.08387
1.08385
1.08384
1.08383
1.08381
1.0838
1.08379
1.08378
1.08377
1.08377
1.08377
1.08377
1.08378
1.0838
1.08382
1.08386
1.0839
1.08394
1.084
1.08407
1.08415
1.08424
1.08434
1.08446
1.08459
1.08473
1.08488
1.08505
1.08523
1.08542
1.08562
1.08584
1.08607
1.08631
1.08657
1.08683
1.0871
1.08738
1.08767
1.08797
1.08827
1.08857
1.08888
1.0892
1.08951
1.08983
1.09014
1.09045
1.09076
1.09107
1.09137
1.09167
1.09196
1.09224
1.09252
1.09278
1.09304
1.09329
1.09353
1.09376
1.09398
1.09419
1.09439
1.09458
1.09476
1.09493
1.09509
1.09524
1.09537
1.0955
1.09561
1.09571
1.0958
1.09588
1.09595
1.09601
1.09605
1.09609
1.09611
1.09611
1.09611
1.09609
1.09606
1.09602
1.09597
1.0959
1.09582
1.09573
1.09562
1.0955
1.09538
1.09524
1.09509
1.09493
1.09476
1.09459
1.09441
1.09421
1.09402
1.09382
1.09361
1.0934
1.09319
1.09298
1.09276
1.09255
1.09234
1.09213
1.09193
1.09173
1.09153
1.09134
1.09116
1.09099
1.09083
1.09068
1.09054
1.09041
1.0903
1.09021
1.09013
1.09007
1.09003
1.09001
1.09001
1.09003
1.09007
1.09015
1.09024
1.09036
1.09052
1.0907
1.09091
1.09115
1.09143
1.09174
1.09208
1.09246
1.09289
1.09335
1.09385
1.0944
1.09499
1.09563
1.09633
1.09708
1.09788
1.09875
1.09969
1.1007
1.1018
1.10298
1.10427
1.10568
1.10723
1.10894
1.11084
1.11299
1.11545
1.11833
1.12176
1.12599
1.13134
1.13836
1.14875
1.16662
1.19418
1.06166
1.06264
1.06863
1.07351
1.07672
1.07902
1.08067
1.08185
1.08272
1.08338
1.0839
1.08431
1.08463
1.08489
1.0851
1.08528
1.08542
1.08554
1.08564
1.08572
1.0858
1.08586
1.08591
1.08596
1.086
1.08604
1.08607
1.0861
1.08614
1.08617
1.0862
1.08623
1.08627
1.0863
1.08634
1.08638
1.08642
1.08647
1.08652
1.08657
1.08662
1.08668
1.08675
1.08682
1.08689
1.08697
1.08705
1.08713
1.08722
1.08732
1.08742
1.08753
1.08764
1.08775
1.08787
1.088
1.08813
1.08826
1.0884
1.08854
1.08869
1.08884
1.089
1.08916
1.08932
1.08949
1.08966
1.08983
1.09001
1.09019
1.09038
1.09057
1.09076
1.09095
1.09115
1.09134
1.09155
1.09175
1.09196
1.09216
1.09237
1.09258
1.0928
1.09301
1.09322
1.09344
1.09366
1.09387
1.09409
1.0943
1.09452
1.09473
1.09494
1.09515
1.09535
1.09555
1.09575
1.09593
1.09612
1.0963
1.09647
1.09663
1.09678
1.09693
1.09706
1.09718
1.09729
1.09739
1.09747
1.09755
1.0976
1.09764
1.09767
1.09768
1.09767
1.09764
1.0976
1.09754
1.09747
1.09738
1.09727
1.09715
1.09701
1.09686
1.09669
1.09652
1.09632
1.09612
1.09591
1.09568
1.09545
1.0952
1.09495
1.0947
1.09444
1.09417
1.0939
1.09362
1.09334
1.09306
1.09278
1.09249
1.09221
1.09193
1.09165
1.09137
1.09109
1.09082
1.09054
1.09028
1.09001
1.08975
1.0895
1.08925
1.089
1.08876
1.08853
1.08831
1.08809
1.08787
1.08766
1.08746
1.08727
1.08708
1.0869
1.08672
1.08655
1.08639
1.08624
1.08609
1.08594
1.0858
1.08567
1.08555
1.08543
1.08531
1.0852
1.08509
1.08499
1.0849
1.08481
1.08472
1.08464
1.08456
1.08449
1.08442
1.08435
1.08429
1.08423
1.08417
1.08412
1.08407
1.08403
1.08399
1.08395
1.08391
1.08388
1.08385
1.08383
1.08381
1.08379
1.08377
1.08376
1.08375
1.08374
1.08374
1.08374
1.08374
1.08374
1.08375
1.08376
1.08377
1.08378
1.08379
1.0838
1.08381
1.08382
1.08384
1.08385
1.08386
1.08387
1.08388
1.08389
1.0839
1.0839
1.08391
1.08391
1.08391
1.0839
1.0839
1.08389
1.08388
1.08387
1.08386
1.08385
1.08384
1.08382
1.08381
1.0838
1.08379
1.08378
1.08377
1.08377
1.08377
1.08378
1.08379
1.0838
1.08383
1.08386
1.0839
1.08395
1.08401
1.08408
1.08416
1.08426
1.08436
1.08448
1.08461
1.08475
1.0849
1.08507
1.08525
1.08544
1.08565
1.08587
1.0861
1.08634
1.0866
1.08686
1.08713
1.08741
1.0877
1.088
1.0883
1.08861
1.08891
1.08923
1.08954
1.08986
1.09017
1.09048
1.09079
1.0911
1.0914
1.09169
1.09198
1.09226
1.09254
1.0928
1.09306
1.09331
1.09355
1.09378
1.094
1.09421
1.09441
1.09459
1.09477
1.09494
1.0951
1.09524
1.09538
1.0955
1.09562
1.09572
1.09581
1.09589
1.09595
1.09601
1.09605
1.09608
1.0961
1.09611
1.09611
1.09609
1.09606
1.09601
1.09596
1.09589
1.0958
1.09571
1.0956
1.09549
1.09536
1.09522
1.09507
1.09491
1.09474
1.09457
1.09438
1.09419
1.09399
1.09379
1.09359
1.09338
1.09317
1.09295
1.09274
1.09253
1.09232
1.09211
1.09191
1.09171
1.09151
1.09133
1.09115
1.09098
1.09082
1.09067
1.09053
1.09041
1.0903
1.0902
1.09013
1.09007
1.09003
1.09001
1.09001
1.09004
1.09009
1.09016
1.09026
1.09038
1.09054
1.09072
1.09093
1.09118
1.09146
1.09177
1.09212
1.09251
1.09293
1.0934
1.0939
1.09446
1.09506
1.0957
1.0964
1.09716
1.09797
1.09885
1.09979
1.10081
1.10192
1.10311
1.10441
1.10583
1.10739
1.10911
1.11103
1.11319
1.11567
1.11854
1.12193
1.12603
1.13116
1.13781
1.1462
1.15533
1.16337
1.0701
1.06949
1.07159
1.07415
1.07666
1.07866
1.08016
1.0813
1.0822
1.0829
1.08346
1.0839
1.08427
1.08456
1.0848
1.085
1.08517
1.08531
1.08543
1.08553
1.08562
1.08569
1.08575
1.08581
1.08586
1.08591
1.08595
1.08599
1.08603
1.08607
1.08611
1.08614
1.08618
1.08622
1.08626
1.08631
1.08635
1.0864
1.08646
1.08651
1.08657
1.08663
1.0867
1.08677
1.08685
1.08692
1.08701
1.0871
1.08719
1.08729
1.08739
1.0875
1.08761
1.08772
1.08785
1.08797
1.0881
1.08824
1.08838
1.08852
1.08867
1.08882
1.08898
1.08914
1.08931
1.08948
1.08965
1.08983
1.09001
1.09019
1.09037
1.09056
1.09076
1.09095
1.09115
1.09135
1.09155
1.09176
1.09196
1.09217
1.09239
1.0926
1.09281
1.09303
1.09325
1.09346
1.09368
1.0939
1.09412
1.09433
1.09455
1.09476
1.09497
1.09518
1.09539
1.09559
1.09578
1.09597
1.09616
1.09634
1.09651
1.09667
1.09682
1.09696
1.0971
1.09722
1.09733
1.09742
1.09751
1.09757
1.09763
1.09767
1.09769
1.0977
1.09769
1.09766
1.09761
1.09755
1.09748
1.09738
1.09727
1.09715
1.09701
1.09685
1.09669
1.0965
1.09631
1.0961
1.09589
1.09566
1.09543
1.09519
1.09494
1.09468
1.09442
1.09415
1.09388
1.0936
1.09332
1.09304
1.09276
1.09248
1.0922
1.09192
1.09164
1.09136
1.09108
1.09081
1.09054
1.09027
1.09001
1.08975
1.0895
1.08925
1.089
1.08877
1.08854
1.08831
1.08809
1.08788
1.08767
1.08747
1.08728
1.08709
1.08691
1.08673
1.08657
1.08641
1.08625
1.0861
1.08596
1.08582
1.08569
1.08556
1.08544
1.08533
1.08522
1.08512
1.08502
1.08492
1.08483
1.08474
1.08466
1.08459
1.08451
1.08444
1.08438
1.08431
1.08426
1.0842
1.08415
1.0841
1.08406
1.08401
1.08398
1.08394
1.08391
1.08388
1.08386
1.08383
1.08382
1.0838
1.08379
1.08378
1.08377
1.08376
1.08376
1.08376
1.08377
1.08377
1.08378
1.08378
1.08379
1.0838
1.08381
1.08382
1.08384
1.08385
1.08386
1.08387
1.08388
1.08389
1.08389
1.0839
1.0839
1.08391
1.08391
1.0839
1.0839
1.08389
1.08389
1.08388
1.08387
1.08385
1.08384
1.08383
1.08382
1.0838
1.08379
1.08378
1.08377
1.08377
1.08376
1.08377
1.08377
1.08378
1.0838
1.08383
1.08386
1.0839
1.08396
1.08402
1.08409
1.08417
1.08426
1.08437
1.08449
1.08462
1.08476
1.08492
1.08509
1.08527
1.08546
1.08567
1.08589
1.08612
1.08637
1.08662
1.08688
1.08716
1.08744
1.08773
1.08803
1.08833
1.08864
1.08895
1.08926
1.08957
1.08989
1.0902
1.09051
1.09082
1.09113
1.09143
1.09172
1.09201
1.09229
1.09256
1.09283
1.09309
1.09333
1.09357
1.0938
1.09402
1.09423
1.09442
1.09461
1.09479
1.09496
1.09511
1.09526
1.09539
1.09551
1.09563
1.09573
1.09582
1.09589
1.09596
1.09602
1.09606
1.09609
1.09611
1.09611
1.09611
1.09609
1.09605
1.09601
1.09595
1.09588
1.0958
1.0957
1.09559
1.09547
1.09534
1.0952
1.09505
1.09489
1.09472
1.09454
1.09436
1.09417
1.09397
1.09377
1.09356
1.09335
1.09314
1.09293
1.09272
1.09251
1.09229
1.09209
1.09188
1.09169
1.09149
1.09131
1.09113
1.09096
1.0908
1.09065
1.09052
1.09039
1.09028
1.09019
1.09012
1.09006
1.09002
1.09
1.09
1.09003
1.09008
1.09015
1.09025
1.09038
1.09053
1.09072
1.09093
1.09118
1.09146
1.09177
1.09212
1.09251
1.09294
1.0934
1.09391
1.09447
1.09507
1.09572
1.09642
1.09718
1.09799
1.09887
1.09982
1.10084
1.10194
1.10313
1.10443
1.10584
1.10739
1.10909
1.11098
1.1131
1.1155
1.11824
1.12143
1.12517
1.12956
1.13466
1.14026
1.14482
1.14485
1.07414
1.07364
1.07433
1.07571
1.07732
1.07878
1.08003
1.08106
1.0819
1.08258
1.08314
1.0836
1.08397
1.08429
1.08455
1.08476
1.08495
1.0851
1.08524
1.08535
1.08545
1.08553
1.08561
1.08567
1.08573
1.08579
1.08584
1.08588
1.08593
1.08597
1.08602
1.08606
1.0861
1.08615
1.08619
1.08624
1.08629
1.08634
1.0864
1.08646
1.08652
1.08658
1.08665
1.08673
1.0868
1.08688
1.08697
1.08706
1.08715
1.08725
1.08736
1.08747
1.08758
1.0877
1.08782
1.08795
1.08808
1.08822
1.08836
1.0885
1.08865
1.08881
1.08896
1.08913
1.08929
1.08946
1.08964
1.08981
1.09
1.09018
1.09037
1.09056
1.09075
1.09095
1.09115
1.09135
1.09156
1.09176
1.09197
1.09218
1.0924
1.09261
1.09283
1.09305
1.09327
1.09349
1.09371
1.09393
1.09415
1.09437
1.09458
1.0948
1.09501
1.09522
1.09543
1.09563
1.09583
1.09602
1.09621
1.09638
1.09655
1.09672
1.09687
1.09701
1.09714
1.09726
1.09737
1.09747
1.09755
1.09762
1.09767
1.0977
1.09772
1.09773
1.09771
1.09768
1.09764
1.09757
1.09749
1.09739
1.09728
1.09715
1.09701
1.09685
1.09668
1.0965
1.0963
1.09609
1.09588
1.09565
1.09541
1.09517
1.09492
1.09466
1.0944
1.09413
1.09386
1.09359
1.09331
1.09303
1.09275
1.09247
1.09219
1.09191
1.09163
1.09135
1.09107
1.0908
1.09053
1.09027
1.09001
1.08975
1.0895
1.08925
1.08901
1.08877
1.08854
1.08832
1.0881
1.08789
1.08768
1.08748
1.08729
1.08711
1.08693
1.08675
1.08659
1.08643
1.08627
1.08612
1.08598
1.08585
1.08571
1.08559
1.08547
1.08536
1.08525
1.08514
1.08504
1.08495
1.08486
1.08477
1.08469
1.08462
1.08454
1.08447
1.08441
1.08435
1.08429
1.08423
1.08418
1.08413
1.08409
1.08405
1.08401
1.08397
1.08394
1.08391
1.08389
1.08387
1.08385
1.08383
1.08382
1.08381
1.0838
1.08379
1.08379
1.08379
1.08379
1.08379
1.0838
1.0838
1.08381
1.08382
1.08383
1.08384
1.08385
1.08386
1.08387
1.08388
1.08389
1.08389
1.0839
1.0839
1.0839
1.0839
1.0839
1.0839
1.0839
1.08389
1.08388
1.08387
1.08386
1.08385
1.08383
1.08382
1.08381
1.08379
1.08378
1.08377
1.08376
1.08376
1.08375
1.08376
1.08376
1.08378
1.0838
1.08382
1.08386
1.0839
1.08395
1.08401
1.08409
1.08417
1.08427
1.08437
1.08449
1.08462
1.08477
1.08493
1.0851
1.08528
1.08548
1.08569
1.08591
1.08614
1.08639
1.08664
1.08691
1.08718
1.08747
1.08776
1.08805
1.08836
1.08867
1.08898
1.08929
1.0896
1.08992
1.09023
1.09055
1.09086
1.09116
1.09146
1.09175
1.09204
1.09232
1.0926
1.09286
1.09312
1.09336
1.0936
1.09383
1.09404
1.09425
1.09445
1.09463
1.09481
1.09498
1.09513
1.09527
1.09541
1.09553
1.09564
1.09574
1.09583
1.09591
1.09597
1.09603
1.09607
1.0961
1.09611
1.09612
1.09611
1.09609
1.09606
1.09601
1.09595
1.09588
1.09579
1.0957
1.09559
1.09547
1.09533
1.09519
1.09504
1.09488
1.0947
1.09453
1.09434
1.09415
1.09395
1.09375
1.09354
1.09333
1.09312
1.0929
1.09269
1.09248
1.09227
1.09206
1.09186
1.09166
1.09147
1.09128
1.09111
1.09094
1.09078
1.09063
1.09049
1.09037
1.09027
1.09017
1.0901
1.09004
1.09
1.08998
1.08999
1.09001
1.09006
1.09013
1.09023
1.09036
1.09051
1.09069
1.09091
1.09115
1.09143
1.09175
1.0921
1.09248
1.09291
1.09338
1.09389
1.09444
1.09504
1.09569
1.09639
1.09714
1.09795
1.09883
1.09977
1.10078
1.10187
1.10305
1.10433
1.10572
1.10723
1.10888
1.1107
1.11273
1.11498
1.11752
1.12037
1.12358
1.1271
1.13073
1.13396
1.13614
1.13555
1.07673
1.0763
1.0765
1.07723
1.07821
1.07924
1.08021
1.08106
1.0818
1.08242
1.08295
1.08339
1.08376
1.08408
1.08434
1.08457
1.08476
1.08492
1.08507
1.08519
1.0853
1.08539
1.08547
1.08555
1.08561
1.08567
1.08573
1.08578
1.08583
1.08588
1.08593
1.08598
1.08603
1.08607
1.08612
1.08618
1.08623
1.08628
1.08634
1.0864
1.08647
1.08654
1.08661
1.08668
1.08676
1.08685
1.08693
1.08702
1.08712
1.08722
1.08733
1.08744
1.08755
1.08767
1.08779
1.08792
1.08805
1.08819
1.08833
1.08848
1.08863
1.08878
1.08894
1.08911
1.08927
1.08945
1.08962
1.0898
1.08998
1.09017
1.09036
1.09055
1.09074
1.09094
1.09114
1.09135
1.09156
1.09176
1.09198
1.09219
1.09241
1.09262
1.09284
1.09306
1.09329
1.09351
1.09373
1.09395
1.09418
1.0944
1.09462
1.09484
1.09505
1.09527
1.09547
1.09568
1.09588
1.09607
1.09626
1.09644
1.09661
1.09677
1.09692
1.09707
1.0972
1.09732
1.09743
1.09752
1.0976
1.09767
1.09772
1.09775
1.09777
1.09777
1.09775
1.09772
1.09767
1.0976
1.09752
1.09742
1.0973
1.09717
1.09702
1.09686
1.09669
1.0965
1.0963
1.09609
1.09587
1.09564
1.09541
1.09516
1.09491
1.09465
1.09439
1.09412
1.09385
1.09357
1.0933
1.09302
1.09274
1.09246
1.09218
1.0919
1.09162
1.09134
1.09107
1.0908
1.09053
1.09027
1.09001
1.08975
1.0895
1.08926
1.08902
1.08878
1.08855
1.08833
1.08811
1.0879
1.0877
1.0875
1.08731
1.08712
1.08695
1.08677
1.08661
1.08645
1.0863
1.08615
1.08601
1.08587
1.08574
1.08562
1.0855
1.08539
1.08528
1.08518
1.08508
1.08498
1.08489
1.08481
1.08473
1.08465
1.08458
1.08451
1.08444
1.08438
1.08433
1.08427
1.08422
1.08417
1.08413
1.08409
1.08405
1.08401
1.08398
1.08395
1.08393
1.0839
1.08388
1.08387
1.08385
1.08384
1.08383
1.08382
1.08382
1.08382
1.08382
1.08382
1.08382
1.08383
1.08383
1.08384
1.08385
1.08386
1.08386
1.08387
1.08388
1.08389
1.08389
1.0839
1.0839
1.0839
1.0839
1.0839
1.0839
1.0839
1.08389
1.08388
1.08387
1.08386
1.08385
1.08383
1.08382
1.08381
1.08379
1.08378
1.08377
1.08376
1.08375
1.08374
1.08374
1.08374
1.08375
1.08377
1.08379
1.08381
1.08385
1.08389
1.08394
1.08401
1.08408
1.08416
1.08426
1.08437
1.08449
1.08462
1.08477
1.08493
1.0851
1.08528
1.08548
1.08569
1.08592
1.08615
1.0864
1.08665
1.08692
1.0872
1.08748
1.08778
1.08808
1.08838
1.08869
1.08901
1.08932
1.08964
1.08995
1.09027
1.09058
1.09089
1.0912
1.0915
1.09179
1.09208
1.09236
1.09263
1.0929
1.09315
1.0934
1.09363
1.09386
1.09408
1.09428
1.09448
1.09466
1.09484
1.095
1.09516
1.0953
1.09543
1.09555
1.09566
1.09576
1.09585
1.09592
1.09599
1.09604
1.09608
1.09611
1.09613
1.09613
1.09612
1.0961
1.09606
1.09601
1.09595
1.09588
1.09579
1.09569
1.09558
1.09546
1.09533
1.09518
1.09503
1.09486
1.09469
1.09451
1.09432
1.09413
1.09393
1.09372
1.09352
1.0933
1.09309
1.09288
1.09267
1.09245
1.09224
1.09204
1.09183
1.09164
1.09144
1.09126
1.09108
1.09091
1.09075
1.0906
1.09047
1.09035
1.09024
1.09015
1.09007
1.09001
1.08997
1.08995
1.08995
1.08998
1.09002
1.09009
1.09019
1.09031
1.09047
1.09065
1.09086
1.0911
1.09138
1.09169
1.09204
1.09242
1.09284
1.09331
1.09381
1.09436
1.09496
1.0956
1.0963
1.09704
1.09785
1.09871
1.09964
1.10064
1.10171
1.10287
1.10411
1.10546
1.10691
1.1085
1.11022
1.11211
1.11418
1.11645
1.11891
1.12154
1.12422
1.12675
1.1287
1.12967
1.12942
1.07854
1.07812
1.07813
1.07851
1.07911
1.07982
1.08054
1.08122
1.08183
1.08238
1.08285
1.08326
1.08362
1.08392
1.08418
1.08441
1.08461
1.08477
1.08492
1.08505
1.08516
1.08526
1.08535
1.08543
1.0855
1.08557
1.08563
1.08569
1.08574
1.0858
1.08585
1.0859
1.08595
1.08601
1.08606
1.08611
1.08617
1.08623
1.08629
1.08635
1.08642
1.08649
1.08656
1.08664
1.08672
1.08681
1.0869
1.08699
1.08709
1.08719
1.0873
1.08741
1.08752
1.08764
1.08777
1.0879
1.08803
1.08817
1.08831
1.08846
1.08861
1.08876
1.08892
1.08909
1.08926
1.08943
1.0896
1.08978
1.08997
1.09015
1.09035
1.09054
1.09074
1.09094
1.09114
1.09135
1.09155
1.09177
1.09198
1.0922
1.09241
1.09263
1.09286
1.09308
1.09331
1.09353
1.09376
1.09398
1.09421
1.09443
1.09466
1.09488
1.0951
1.09531
1.09552
1.09573
1.09593
1.09613
1.09632
1.0965
1.09667
1.09683
1.09699
1.09713
1.09726
1.09738
1.09749
1.09758
1.09766
1.09773
1.09778
1.09781
1.09782
1.09782
1.0978
1.09776
1.09771
1.09764
1.09755
1.09745
1.09733
1.09719
1.09704
1.09687
1.0967
1.09651
1.0963
1.09609
1.09587
1.09564
1.0954
1.09515
1.0949
1.09464
1.09438
1.09411
1.09384
1.09356
1.09329
1.09301
1.09273
1.09245
1.09217
1.09189
1.09161
1.09134
1.09107
1.0908
1.09053
1.09027
1.09001
1.08976
1.08951
1.08926
1.08902
1.08879
1.08856
1.08834
1.08813
1.08792
1.08772
1.08752
1.08733
1.08715
1.08697
1.0868
1.08663
1.08648
1.08632
1.08618
1.08604
1.0859
1.08578
1.08565
1.08554
1.08542
1.08532
1.08521
1.08512
1.08502
1.08493
1.08485
1.08477
1.08469
1.08462
1.08455
1.08449
1.08443
1.08437
1.08431
1.08426
1.08422
1.08417
1.08413
1.08409
1.08406
1.08402
1.08399
1.08397
1.08395
1.08392
1.08391
1.08389
1.08388
1.08387
1.08386
1.08386
1.08385
1.08385
1.08385
1.08385
1.08385
1.08386
1.08386
1.08387
1.08387
1.08388
1.08389
1.08389
1.0839
1.0839
1.0839
1.08391
1.08391
1.0839
1.0839
1.0839
1.08389
1.08388
1.08387
1.08386
1.08385
1.08384
1.08382
1.08381
1.08379
1.08378
1.08376
1.08375
1.08374
1.08373
1.08373
1.08373
1.08373
1.08374
1.08375
1.08377
1.0838
1.08383
1.08388
1.08393
1.084
1.08407
1.08415
1.08425
1.08436
1.08448
1.08462
1.08476
1.08492
1.0851
1.08528
1.08548
1.0857
1.08592
1.08616
1.08641
1.08666
1.08693
1.08721
1.0875
1.0878
1.0881
1.08841
1.08872
1.08903
1.08935
1.08967
1.08999
1.0903
1.09062
1.09093
1.09124
1.09154
1.09183
1.09212
1.0924
1.09268
1.09294
1.09319
1.09344
1.09367
1.0939
1.09411
1.09432
1.09451
1.0947
1.09487
1.09503
1.09518
1.09532
1.09546
1.09557
1.09568
1.09578
1.09587
1.09594
1.09601
1.09606
1.0961
1.09613
1.09614
1.09614
1.09613
1.09611
1.09607
1.09602
1.09596
1.09588
1.0958
1.09569
1.09558
1.09546
1.09532
1.09517
1.09502
1.09485
1.09467
1.09449
1.0943
1.09411
1.09391
1.0937
1.09349
1.09328
1.09307
1.09285
1.09264
1.09243
1.09222
1.09201
1.09181
1.09161
1.09141
1.09123
1.09105
1.09088
1.09072
1.09058
1.09044
1.09032
1.09021
1.09011
1.09004
1.08998
1.08994
1.08991
1.08991
1.08993
1.08998
1.09005
1.09014
1.09026
1.09041
1.09058
1.09079
1.09103
1.0913
1.09161
1.09195
1.09233
1.09275
1.09321
1.09371
1.09425
1.09484
1.09547
1.09616
1.0969
1.09769
1.09854
1.09945
1.10042
1.10147
1.10259
1.10379
1.10508
1.10647
1.10797
1.10958
1.11131
1.11317
1.11515
1.11723
1.11933
1.12134
1.12308
1.12432
1.12479
1.12457
1.07983
1.07945
1.07938
1.07957
1.07994
1.08042
1.08094
1.08147
1.08197
1.08243
1.08285
1.08322
1.08354
1.08383
1.08408
1.0843
1.08449
1.08466
1.0848
1.08493
1.08505
1.08515
1.08525
1.08533
1.08541
1.08548
1.08554
1.0856
1.08566
1.08572
1.08578
1.08583
1.08589
1.08594
1.086
1.08606
1.08612
1.08618
1.08624
1.08631
1.08638
1.08645
1.08652
1.0866
1.08669
1.08677
1.08686
1.08696
1.08706
1.08716
1.08727
1.08738
1.08749
1.08761
1.08774
1.08787
1.088
1.08814
1.08828
1.08843
1.08858
1.08874
1.0889
1.08906
1.08923
1.08941
1.08958
1.08976
1.08995
1.09014
1.09033
1.09052
1.09072
1.09092
1.09113
1.09134
1.09155
1.09176
1.09198
1.0922
1.09242
1.09264
1.09287
1.09309
1.09332
1.09355
1.09378
1.09401
1.09424
1.09447
1.09469
1.09492
1.09514
1.09536
1.09557
1.09578
1.09599
1.09618
1.09638
1.09656
1.09673
1.0969
1.09705
1.0972
1.09733
1.09745
1.09756
1.09765
1.09773
1.09779
1.09784
1.09787
1.09788
1.09788
1.09786
1.09782
1.09776
1.09769
1.09759
1.09748
1.09736
1.09722
1.09706
1.0969
1.09671
1.09652
1.09631
1.0961
1.09587
1.09564
1.0954
1.09515
1.09489
1.09463
1.09437
1.0941
1.09383
1.09355
1.09328
1.093
1.09272
1.09244
1.09216
1.09189
1.09161
1.09134
1.09107
1.0908
1.09053
1.09027
1.09002
1.08976
1.08952
1.08927
1.08904
1.0888
1.08858
1.08836
1.08815
1.08794
1.08774
1.08754
1.08735
1.08717
1.087
1.08683
1.08666
1.08651
1.08636
1.08621
1.08607
1.08594
1.08581
1.08569
1.08557
1.08546
1.08536
1.08526
1.08516
1.08507
1.08498
1.08489
1.08481
1.08474
1.08467
1.0846
1.08454
1.08447
1.08442
1.08436
1.08431
1.08426
1.08422
1.08418
1.08414
1.0841
1.08407
1.08404
1.08401
1.08399
1.08397
1.08395
1.08393
1.08392
1.08391
1.0839
1.08389
1.08389
1.08388
1.08388
1.08388
1.08388
1.08388
1.08389
1.08389
1.08389
1.0839
1.0839
1.0839
1.08391
1.08391
1.08391
1.08391
1.08391
1.0839
1.0839
1.08389
1.08388
1.08387
1.08386
1.08385
1.08384
1.08382
1.08381
1.08379
1.08378
1.08376
1.08375
1.08373
1.08372
1.08371
1.08371
1.08371
1.08371
1.08372
1.08373
1.08375
1.08378
1.08381
1.08386
1.08391
1.08398
1.08405
1.08414
1.08424
1.08435
1.08447
1.0846
1.08475
1.08491
1.08509
1.08527
1.08548
1.08569
1.08592
1.08616
1.08641
1.08667
1.08694
1.08722
1.08751
1.08781
1.08811
1.08842
1.08874
1.08906
1.08938
1.0897
1.09002
1.09034
1.09066
1.09097
1.09128
1.09158
1.09188
1.09217
1.09245
1.09272
1.09298
1.09324
1.09348
1.09372
1.09394
1.09415
1.09436
1.09455
1.09473
1.0949
1.09507
1.09522
1.09536
1.09548
1.0956
1.09571
1.09581
1.09589
1.09597
1.09603
1.09608
1.09612
1.09614
1.09616
1.09616
1.09615
1.09612
1.09608
1.09603
1.09597
1.09589
1.0958
1.0957
1.09558
1.09545
1.09532
1.09517
1.09501
1.09484
1.09466
1.09448
1.09429
1.09409
1.09389
1.09368
1.09347
1.09326
1.09304
1.09283
1.09261
1.0924
1.09219
1.09198
1.09178
1.09158
1.09139
1.0912
1.09102
1.09085
1.09069
1.09054
1.09041
1.09028
1.09017
1.09008
1.09
1.08993
1.08989
1.08986
1.08986
1.08988
1.08992
1.08998
1.09007
1.09019
1.09033
1.0905
1.0907
1.09094
1.0912
1.0915
1.09184
1.09221
1.09262
1.09307
1.09356
1.09409
1.09467
1.0953
1.09597
1.09669
1.09747
1.0983
1.09918
1.10013
1.10114
1.10222
1.10338
1.1046
1.10591
1.10731
1.10879
1.11036
1.112
1.11371
1.11544
1.11711
1.11862
1.11984
1.12064
1.1209
1.1206
1.08078
1.08046
1.08035
1.08043
1.08065
1.08098
1.08136
1.08176
1.08216
1.08255
1.0829
1.08323
1.08352
1.08378
1.08401
1.08422
1.0844
1.08456
1.08471
1.08484
1.08495
1.08506
1.08515
1.08524
1.08532
1.08539
1.08546
1.08553
1.08559
1.08565
1.08571
1.08577
1.08582
1.08588
1.08594
1.086
1.08606
1.08613
1.0862
1.08626
1.08634
1.08641
1.08649
1.08657
1.08665
1.08674
1.08683
1.08693
1.08703
1.08713
1.08724
1.08735
1.08747
1.08759
1.08772
1.08784
1.08798
1.08812
1.08826
1.08841
1.08856
1.08872
1.08888
1.08904
1.08921
1.08939
1.08956
1.08975
1.08993
1.09012
1.09031
1.09051
1.09071
1.09091
1.09112
1.09133
1.09154
1.09176
1.09198
1.0922
1.09242
1.09265
1.09288
1.09311
1.09334
1.09357
1.0938
1.09404
1.09427
1.0945
1.09473
1.09496
1.09519
1.09541
1.09563
1.09584
1.09605
1.09625
1.09644
1.09662
1.0968
1.09697
1.09712
1.09727
1.0974
1.09752
1.09763
1.09772
1.0978
1.09786
1.09791
1.09794
1.09795
1.09794
1.09792
1.09788
1.09781
1.09774
1.09764
1.09753
1.0974
1.09725
1.09709
1.09692
1.09673
1.09653
1.09633
1.09611
1.09588
1.09564
1.0954
1.09515
1.09489
1.09463
1.09436
1.0941
1.09382
1.09355
1.09327
1.09299
1.09272
1.09244
1.09216
1.09189
1.09161
1.09134
1.09107
1.0908
1.09054
1.09028
1.09002
1.08977
1.08953
1.08929
1.08905
1.08882
1.0886
1.08838
1.08817
1.08796
1.08776
1.08757
1.08738
1.0872
1.08703
1.08686
1.0867
1.08654
1.08639
1.08625
1.08611
1.08598
1.08586
1.08573
1.08562
1.08551
1.0854
1.0853
1.08521
1.08511
1.08503
1.08494
1.08487
1.08479
1.08472
1.08465
1.08459
1.08453
1.08447
1.08442
1.08437
1.08432
1.08427
1.08423
1.08419
1.08416
1.08412
1.08409
1.08407
1.08404
1.08402
1.084
1.08398
1.08397
1.08395
1.08394
1.08393
1.08393
1.08392
1.08392
1.08391
1.08391
1.08391
1.08391
1.08391
1.08392
1.08392
1.08392
1.08392
1.08392
1.08392
1.08392
1.08391
1.08391
1.0839
1.0839
1.08389
1.08388
1.08387
1.08385
1.08384
1.08382
1.08381
1.08379
1.08377
1.08376
1.08374
1.08373
1.08371
1.0837
1.08369
1.08368
1.08368
1.08369
1.08369
1.08371
1.08373
1.08376
1.08379
1.08384
1.08389
1.08396
1.08403
1.08412
1.08422
1.08433
1.08445
1.08458
1.08473
1.0849
1.08507
1.08526
1.08546
1.08568
1.08591
1.08615
1.0864
1.08667
1.08694
1.08722
1.08752
1.08782
1.08813
1.08844
1.08876
1.08908
1.0894
1.08973
1.09005
1.09037
1.09069
1.09101
1.09132
1.09162
1.09192
1.09221
1.09249
1.09277
1.09303
1.09328
1.09353
1.09376
1.09398
1.0942
1.0944
1.09459
1.09477
1.09494
1.0951
1.09525
1.09539
1.09551
1.09563
1.09574
1.09583
1.09592
1.09599
1.09605
1.0961
1.09614
1.09616
1.09618
1.09618
1.09616
1.09614
1.0961
1.09604
1.09598
1.0959
1.09581
1.0957
1.09558
1.09545
1.09531
1.09516
1.095
1.09483
1.09465
1.09446
1.09427
1.09407
1.09386
1.09366
1.09344
1.09323
1.09302
1.0928
1.09258
1.09237
1.09216
1.09195
1.09175
1.09155
1.09135
1.09117
1.09099
1.09082
1.09066
1.09051
1.09037
1.09024
1.09013
1.09003
1.08995
1.08989
1.08984
1.08981
1.0898
1.08982
1.08985
1.08991
1.08999
1.0901
1.09024
1.09041
1.0906
1.09083
1.09109
1.09138
1.0917
1.09207
1.09247
1.09291
1.09339
1.09391
1.09447
1.09508
1.09574
1.09645
1.0972
1.09801
1.09887
1.09978
1.10076
1.10179
1.10288
1.10404
1.10527
1.10656
1.10791
1.10931
1.11076
1.11222
1.11364
1.11497
1.11612
1.117
1.11752
1.11765
1.11733
1.08151
1.08124
1.08112
1.08113
1.08127
1.08149
1.08176
1.08207
1.08239
1.0827
1.083
1.08328
1.08354
1.08377
1.08398
1.08418
1.08435
1.0845
1.08464
1.08477
1.08488
1.08499
1.08508
1.08517
1.08525
1.08532
1.08539
1.08546
1.08553
1.08559
1.08565
1.08571
1.08577
1.08583
1.08589
1.08596
1.08602
1.08609
1.08616
1.08623
1.0863
1.08638
1.08645
1.08654
1.08662
1.08671
1.08681
1.0869
1.087
1.08711
1.08722
1.08733
1.08744
1.08757
1.08769
1.08782
1.08796
1.08809
1.08824
1.08838
1.08854
1.08869
1.08885
1.08902
1.08919
1.08936
1.08954
1.08972
1.08991
1.0901
1.09029
1.09049
1.09069
1.0909
1.09111
1.09132
1.09153
1.09175
1.09197
1.09219
1.09242
1.09265
1.09288
1.09311
1.09335
1.09358
1.09382
1.09406
1.0943
1.09453
1.09477
1.095
1.09523
1.09545
1.09568
1.09589
1.0961
1.09631
1.0965
1.09669
1.09687
1.09704
1.09719
1.09734
1.09748
1.0976
1.09771
1.0978
1.09788
1.09794
1.09798
1.09801
1.09802
1.09801
1.09798
1.09794
1.09787
1.09779
1.09769
1.09757
1.09744
1.09729
1.09712
1.09695
1.09676
1.09655
1.09634
1.09612
1.09589
1.09565
1.0954
1.09515
1.09489
1.09463
1.09436
1.09409
1.09382
1.09355
1.09327
1.09299
1.09271
1.09244
1.09216
1.09189
1.09161
1.09134
1.09107
1.09081
1.09055
1.09029
1.09003
1.08978
1.08954
1.0893
1.08907
1.08884
1.08862
1.0884
1.08819
1.08799
1.08779
1.0876
1.08741
1.08723
1.08706
1.08689
1.08673
1.08658
1.08643
1.08629
1.08615
1.08602
1.0859
1.08578
1.08567
1.08556
1.08545
1.08535
1.08526
1.08517
1.08508
1.085
1.08492
1.08484