# vtk DataFile Version 2.0
LBE mesh
ASCII
DATASET STRUCTURED_POINTS
DIMENSIONS 400 100 1
ASPECT_RATIO 1 1 1
ORIGIN 0 0 0
POINT_DATA 40000
SCALARS rho double 1
LOOKUP_TABLE default
1.01744
1.06721
1.08228
1.08641
1.08865
1.09033
1.0915
1.09227
1.0928
1.09318
1.09347
1.09368
1.09384
1.09396
1.09405
1.09411
1.09415
1.09417
1.09418
1.09417
1.09415
1.09412
1.09408
1.09404
1.09398
1.09392
1.09386
1.09379
1.09372
1.09364
1.09356
1.09347
1.09339
1.0933
1.09321
1.09312
1.09302
1.09293
1.09284
1.09275
1.09266
1.09257
1.09248
1.09239
1.09231
1.09223
1.09215
1.09207
1.092
1.09193
1.09187
1.09181
1.09176
1.09171
1.09167
1.09163
1.0916
1.09158
1.09156
1.09155
1.09154
1.09154
1.09155
1.09156
1.09158
1.09161
1.09165
1.09169
1.09173
1.09179
1.09185
1.09191
1.09198
1.09206
1.09215
1.09224
1.09233
1.09243
1.09253
1.09264
1.09276
1.09288
1.093
1.09313
1.09326
1.09339
1.09353
1.09367
1.09381
1.09395
1.0941
1.09424
1.09439
1.09454
1.09469
1.09483
1.09498
1.09512
1.09527
1.09541
1.09555
1.09568
1.09582
1.09595
1.09607
1.09619
1.09631
1.09642
1.09652
1.09662
1.09671
1.0968
1.09688
1.09695
1.09702
1.09708
1.09713
1.09718
1.09722
1.09725
1.09728
1.0973
1.09732
1.09733
1.09734
1.09734
1.09734
1.09734
1.09734
1.09733
1.09733
1.09733
1.09732
1.09732
1.09732
1.09732
1.09732
1.09732
1.09733
1.09734
1.09735
1.09736
1.09738
1.0974
1.09742
1.09744
1.09747
1.0975
1.09752
1.09756
1.09759
1.09762
1.09766
1.09769
1.09772
1.09776
1.09779
1.09782
1.09785
1.09787
1.0979
1.09792
1.09793
1.09795
1.09796
1.09796
1.09796
1.09795
1.09794
1.09792
1.09789
1.09786
1.09782
1.09777
1.09772
1.09765
1.09759
1.09751
1.09743
1.09734
1.09724
1.09714
1.09703
1.09691
1.09679
1.09667
1.09654
1.0964
1.09626
1.09612
1.09597
1.09583
1.09568
1.09553
1.09538
1.09523
1.09508
1.09493
1.09478
1.09463
1.09449
1.09434
1.09421
1.09407
1.09394
1.09381
1.09369
1.09357
1.09345
1.09334
1.09323
1.09313
1.09303
1.09294
1.09285
1.09277
1.09269
1.09261
1.09253
1.09246
1.0924
1.09233
1.09227
1.09221
1.09215
1.0921
1.09205
1.09199
1.09195
1.0919
1.09185
1.09181
1.09176
1.09172
1.09168
1.09164
1.09161
1.09157
1.09154
1.09151
1.09148
1.09145
1.09143
1.09141
1.09139
1.09137
1.09136
1.09135
1.09135
1.09135
1.09136
1.09137
1.09138
1.0914
1.09143
1.09146
1.0915
1.09154
1.09159
1.09165
1.09171
1.09178
1.09186
1.09194
1.09203
1.09212
1.09222
1.09233
1.09244
1.09255
1.09267
1.0928
1.09292
1.09305
1.09319
1.09332
1.09345
1.09359
1.09372
1.09386
1.09399
1.09412
1.09425
1.09437
1.09449
1.09461
1.09472
1.09483
1.09493
1.09503
1.09512
1.09521
1.09529
1.09537
1.09545
1.09552
1.09559
1.09565
1.09571
1.09576
1.09582
1.09587
1.09591
1.09596
1.096
1.09604
1.09608
1.09612
1.09615
1.09618
1.09621
1.09624
1.09626
1.09628
1.0963
1.09631
1.09632
1.09633
1.09633
1.09633
1.09632
1.09631
1.0963
1.09628
1.09625
1.09623
1.09619
1.09616
1.09612
1.09608
1.09604
1.096
1.09596
1.09591
1.09587
1.09582
1.09578
1.09574
1.0957
1.09567
1.09564
1.09561
1.0956
1.09558
1.09558
1.09558
1.09559
1.0956
1.09563
1.09567
1.09572
1.09577
1.09584
1.09593
1.09602
1.09613
1.09626
1.0964
1.09656
1.09673
1.09693
1.09714
1.09737
1.09763
1.09791
1.09821
1.09854
1.0989
1.09928
1.0997
1.10015
1.10063
1.10116
1.10172
1.10232
1.10296
1.10366
1.1044
1.10519
1.10604
1.10696
1.10793
1.10898
1.11011
1.11133
1.11264
1.11407
1.11562
1.11733
1.11922
1.12134
1.12373
1.1265
1.12977
1.13374
1.13887
1.14592
1.15581
1.17139
1.20503
1.05237
1.06447
1.07501
1.0825
1.08649
1.0887
1.09012
1.09114
1.09188
1.09242
1.09282
1.09313
1.09336
1.09354
1.09368
1.09378
1.09385
1.0939
1.09393
1.09394
1.09394
1.09393
1.09391
1.09387
1.09383
1.09378
1.09373
1.09366
1.0936
1.09353
1.09345
1.09337
1.09329
1.09321
1.09312
1.09304
1.09295
1.09286
1.09277
1.09268
1.0926
1.09251
1.09243
1.09234
1.09226
1.09218
1.09211
1.09203
1.09197
1.0919
1.09184
1.09178
1.09173
1.09169
1.09165
1.09161
1.09158
1.09156
1.09155
1.09153
1.09153
1.09153
1.09154
1.09156
1.09158
1.09161
1.09164
1.09169
1.09173
1.09179
1.09185
1.09192
1.09199
1.09207
1.09215
1.09224
1.09234
1.09244
1.09254
1.09265
1.09277
1.09289
1.09301
1.09314
1.09327
1.0934
1.09354
1.09368
1.09382
1.09396
1.09411
1.09425
1.0944
1.09455
1.09469
1.09484
1.09498
1.09513
1.09527
1.09541
1.09555
1.09568
1.09582
1.09594
1.09607
1.09619
1.0963
1.09641
1.09651
1.09661
1.0967
1.09679
1.09687
1.09694
1.097
1.09706
1.09711
1.09716
1.0972
1.09723
1.09726
1.09728
1.09729
1.0973
1.09731
1.09732
1.09732
1.09732
1.09732
1.09731
1.09731
1.09731
1.0973
1.0973
1.0973
1.0973
1.0973
1.09731
1.09732
1.09732
1.09734
1.09735
1.09737
1.09739
1.09741
1.09743
1.09746
1.09749
1.09752
1.09755
1.09758
1.09762
1.09765
1.09768
1.09772
1.09775
1.09778
1.09781
1.09784
1.09787
1.09789
1.09791
1.09793
1.09794
1.09795
1.09795
1.09795
1.09794
1.09792
1.0979
1.09788
1.09784
1.0978
1.09776
1.0977
1.09764
1.09757
1.0975
1.09742
1.09733
1.09723
1.09713
1.09702
1.0969
1.09678
1.09666
1.09653
1.09639
1.09625
1.09611
1.09597
1.09582
1.09567
1.09553
1.09538
1.09523
1.09508
1.09493
1.09478
1.09463
1.09449
1.09435
1.09421
1.09408
1.09394
1.09382
1.09369
1.09357
1.09346
1.09335
1.09324
1.09314
1.09304
1.09295
1.09286
1.09277
1.09269
1.09262
1.09254
1.09247
1.0924
1.09234
1.09228
1.09222
1.09216
1.0921
1.09205
1.092
1.09195
1.0919
1.09186
1.09181
1.09177
1.09173
1.09169
1.09165
1.09161
1.09158
1.09154
1.09151
1.09149
1.09146
1.09144
1.09142
1.0914
1.09138
1.09137
1.09137
1.09136
1.09137
1.09137
1.09138
1.0914
1.09142
1.09145
1.09148
1.09152
1.09157
1.09162
1.09168
1.09174
1.09181
1.09189
1.09197
1.09206
1.09215
1.09225
1.09236
1.09247
1.09259
1.09271
1.09283
1.09296
1.09308
1.09322
1.09335
1.09348
1.09362
1.09375
1.09388
1.09401
1.09414
1.09427
1.09439
1.09451
1.09462
1.09473
1.09484
1.09494
1.09504
1.09513
1.09522
1.0953
1.09538
1.09545
1.09552
1.09559
1.09565
1.09571
1.09576
1.09581
1.09586
1.09591
1.09596
1.096
1.09604
1.09608
1.09611
1.09615
1.09618
1.0962
1.09623
1.09625
1.09627
1.09629
1.0963
1.09631
1.09632
1.09632
1.09631
1.09631
1.09629
1.09628
1.09626
1.09624
1.09621
1.09618
1.09614
1.0961
1.09606
1.09602
1.09598
1.09594
1.09589
1.09585
1.0958
1.09576
1.09572
1.09569
1.09565
1.09563
1.0956
1.09558
1.09557
1.09557
1.09557
1.09558
1.0956
1.09563
1.09567
1.09572
1.09578
1.09585
1.09594
1.09603
1.09615
1.09628
1.09642
1.09658
1.09676
1.09695
1.09717
1.09741
1.09767
1.09795
1.09826
1.09859
1.09895
1.09935
1.09977
1.10023
1.10072
1.10124
1.10181
1.10242
1.10308
1.10378
1.10453
1.10533
1.1062
1.10712
1.10811
1.10918
1.11032
1.11156
1.1129
1.11436
1.11595
1.1177
1.11966
1.12185
1.12435
1.12727
1.13074
1.13502
1.14042
1.14749
1.15797
1.17597
1.20374
1.07006
1.07087
1.07694
1.08189
1.08513
1.08744
1.08909
1.09026
1.09112
1.09176
1.09225
1.09263
1.09292
1.09315
1.09333
1.09346
1.09357
1.09364
1.09369
1.09373
1.09374
1.09374
1.09373
1.09371
1.09368
1.09364
1.09359
1.09354
1.09348
1.09342
1.09335
1.09328
1.0932
1.09312
1.09304
1.09296
1.09288
1.09279
1.09271
1.09262
1.09254
1.09245
1.09237
1.09229
1.09221
1.09214
1.09206
1.09199
1.09193
1.09186
1.09181
1.09175
1.0917
1.09166
1.09162
1.09159
1.09156
1.09154
1.09152
1.09151
1.09151
1.09152
1.09153
1.09154
1.09157
1.0916
1.09163
1.09168
1.09173
1.09178
1.09184
1.09191
1.09199
1.09206
1.09215
1.09224
1.09234
1.09244
1.09254
1.09266
1.09277
1.09289
1.09301
1.09314
1.09327
1.09341
1.09355
1.09368
1.09383
1.09397
1.09412
1.09426
1.09441
1.09456
1.0947
1.09485
1.095
1.09514
1.09528
1.09542
1.09556
1.09569
1.09583
1.09595
1.09608
1.0962
1.09631
1.09642
1.09652
1.09662
1.09671
1.09679
1.09687
1.09694
1.09701
1.09706
1.09711
1.09716
1.09719
1.09722
1.09725
1.09727
1.09729
1.0973
1.0973
1.09731
1.09731
1.09731
1.09731
1.0973
1.0973
1.0973
1.09729
1.09729
1.09729
1.09729
1.09729
1.0973
1.09731
1.09732
1.09733
1.09734
1.09736
1.09738
1.0974
1.09743
1.09745
1.09748
1.09751
1.09754
1.09758
1.09761
1.09764
1.09768
1.09771
1.09774
1.09777
1.0978
1.09783
1.09786
1.09788
1.0979
1.09791
1.09793
1.09793
1.09794
1.09793
1.09792
1.09791
1.09789
1.09786
1.09783
1.09779
1.09774
1.09769
1.09763
1.09756
1.09748
1.0974
1.09731
1.09721
1.09711
1.097
1.09689
1.09677
1.09664
1.09652
1.09638
1.09624
1.0961
1.09596
1.09582
1.09567
1.09552
1.09537
1.09522
1.09507
1.09492
1.09478
1.09463
1.09449
1.09435
1.09421
1.09408
1.09395
1.09382
1.0937
1.09358
1.09346
1.09335
1.09325
1.09315
1.09305
1.09295
1.09286
1.09278
1.0927
1.09262
1.09254
1.09247
1.0924
1.09234
1.09228
1.09222
1.09216
1.0921
1.09205
1.092
1.09195
1.0919
1.09186
1.09181
1.09177
1.09173
1.09169
1.09165
1.09161
1.09158
1.09154
1.09151
1.09149
1.09146
1.09144
1.09142
1.0914
1.09139
1.09138
1.09137
1.09137
1.09137
1.09138
1.09139
1.09141
1.09143
1.09146
1.0915
1.09154
1.09158
1.09164
1.0917
1.09176
1.09183
1.09191
1.09199
1.09208
1.09218
1.09228
1.09239
1.0925
1.09262
1.09274
1.09286
1.09299
1.09312
1.09325
1.09338
1.09351
1.09365
1.09378
1.09391
1.09404
1.09417
1.09429
1.09441
1.09453
1.09465
1.09476
1.09486
1.09496
1.09506
1.09515
1.09523
1.09531
1.09539
1.09546
1.09553
1.0956
1.09566
1.09572
1.09577
1.09582
1.09587
1.09592
1.09596
1.09601
1.09604
1.09608
1.09612
1.09615
1.09618
1.09621
1.09623
1.09626
1.09627
1.09629
1.0963
1.09631
1.09631
1.09631
1.09631
1.0963
1.09629
1.09627
1.09625
1.09623
1.0962
1.09617
1.09613
1.09609
1.09605
1.09601
1.09597
1.09592
1.09588
1.09583
1.09579
1.09575
1.09571
1.09567
1.09564
1.09561
1.09559
1.09557
1.09556
1.09556
1.09556
1.09557
1.09559
1.09562
1.09566
1.09571
1.09578
1.09585
1.09594
1.09604
1.09615
1.09628
1.09643
1.09659
1.09677
1.09697
1.09718
1.09742
1.09769
1.09797
1.09828
1.09862
1.09898
1.09938
1.09981
1.10027
1.10076
1.1013
1.10187
1.10248
1.10314
1.10385
1.10461
1.10542
1.10629
1.10722
1.10822
1.10929
1.11045
1.11169
1.11304
1.11451
1.11612
1.11788
1.11985
1.12206
1.12457
1.12749
1.13092
1.13506
1.14024
1.14695
1.15541
1.1646
1.1727
1.07846
1.07783
1.07995
1.08251
1.08505
1.08706
1.08856
1.08969
1.09058
1.09126
1.09179
1.09221
1.09254
1.09281
1.09301
1.09318
1.0933
1.0934
1.09347
1.09352
1.09355
1.09356
1.09357
1.09355
1.09353
1.0935
1.09346
1.09342
1.09337
1.09331
1.09325
1.09318
1.09311
1.09303
1.09296
1.09288
1.0928
1.09272
1.09264
1.09256
1.09247
1.09239
1.09231
1.09224
1.09216
1.09209
1.09201
1.09195
1.09188
1.09182
1.09176
1.09171
1.09167
1.09162
1.09159
1.09155
1.09153
1.09151
1.09149
1.09149
1.09149
1.09149
1.0915
1.09152
1.09154
1.09158
1.09161
1.09166
1.09171
1.09176
1.09183
1.0919
1.09197
1.09205
1.09214
1.09223
1.09233
1.09243
1.09254
1.09265
1.09277
1.09289
1.09301
1.09314
1.09327
1.09341
1.09355
1.09369
1.09383
1.09398
1.09413
1.09427
1.09442
1.09457
1.09472
1.09487
1.09501
1.09516
1.0953
1.09544
1.09558
1.09572
1.09585
1.09598
1.0961
1.09622
1.09633
1.09644
1.09654
1.09664
1.09673
1.09681
1.09689
1.09696
1.09702
1.09708
1.09713
1.09717
1.09721
1.09724
1.09726
1.09728
1.09729
1.0973
1.09731
1.09731
1.09731
1.09731
1.09731
1.0973
1.0973
1.09729
1.09729
1.09729
1.09729
1.09729
1.09729
1.09729
1.0973
1.09731
1.09732
1.09734
1.09735
1.09737
1.0974
1.09742
1.09745
1.09747
1.0975
1.09753
1.09757
1.0976
1.09763
1.09767
1.0977
1.09773
1.09776
1.09779
1.09782
1.09784
1.09786
1.09788
1.0979
1.09791
1.09792
1.09792
1.09791
1.09791
1.09789
1.09787
1.09784
1.09781
1.09777
1.09772
1.09767
1.0976
1.09754
1.09746
1.09738
1.09729
1.09719
1.09709
1.09698
1.09687
1.09675
1.09663
1.0965
1.09637
1.09623
1.09609
1.09595
1.0958
1.09566
1.09551
1.09536
1.09521
1.09507
1.09492
1.09477
1.09463
1.09449
1.09435
1.09421
1.09408
1.09395
1.09382
1.0937
1.09358
1.09346
1.09335
1.09325
1.09315
1.09305
1.09295
1.09286
1.09278
1.0927
1.09262
1.09254
1.09247
1.0924
1.09234
1.09227
1.09221
1.09215
1.0921
1.09205
1.09199
1.09194
1.09189
1.09185
1.0918
1.09176
1.09172
1.09168
1.09164
1.0916
1.09157
1.09154
1.09151
1.09148
1.09145
1.09143
1.09141
1.0914
1.09138
1.09138
1.09137
1.09137
1.09137
1.09138
1.0914
1.09142
1.09144
1.09147
1.09151
1.09155
1.09159
1.09165
1.09171
1.09178
1.09185
1.09193
1.09201
1.0921
1.0922
1.0923
1.09241
1.09253
1.09264
1.09276
1.09289
1.09302
1.09315
1.09328
1.09341
1.09355
1.09368
1.09381
1.09395
1.09408
1.0942
1.09433
1.09445
1.09457
1.09468
1.09479
1.09489
1.09499
1.09508
1.09517
1.09526
1.09534
1.09541
1.09549
1.09555
1.09562
1.09568
1.09574
1.09579
1.09584
1.09589
1.09594
1.09598
1.09602
1.09606
1.0961
1.09613
1.09617
1.09619
1.09622
1.09625
1.09627
1.09629
1.0963
1.09631
1.09632
1.09632
1.09632
1.09632
1.09631
1.09629
1.09628
1.09625
1.09623
1.0962
1.09616
1.09613
1.09609
1.09605
1.096
1.09596
1.09591
1.09587
1.09582
1.09578
1.09574
1.0957
1.09566
1.09563
1.0956
1.09558
1.09556
1.09555
1.09555
1.09555
1.09556
1.09558
1.09561
1.09565
1.0957
1.09577
1.09584
1.09593
1.09603
1.09614
1.09627
1.09642
1.09658
1.09676
1.09696
1.09718
1.09742
1.09768
1.09797
1.09828
1.09862
1.09898
1.09938
1.09981
1.10027
1.10077
1.1013
1.10188
1.1025
1.10316
1.10387
1.10463
1.10544
1.10632
1.10725
1.10825
1.10932
1.11048
1.11172
1.11307
1.11453
1.11612
1.11787
1.11981
1.12197
1.12441
1.1272
1.13043
1.13421
1.13864
1.14378
1.14943
1.15402
1.15405
1.0825
1.08201
1.0827
1.08408
1.08571
1.08717
1.08841
1.08943
1.09026
1.09092
1.09146
1.09189
1.09224
1.09252
1.09274
1.09293
1.09307
1.09318
1.09327
1.09333
1.09337
1.0934
1.09341
1.09341
1.09339
1.09337
1.09334
1.0933
1.09325
1.0932
1.09314
1.09308
1.09302
1.09295
1.09287
1.0928
1.09272
1.09265
1.09257
1.09249
1.09241
1.09233
1.09226
1.09218
1.09211
1.09203
1.09196
1.0919
1.09184
1.09178
1.09172
1.09167
1.09162
1.09158
1.09155
1.09152
1.09149
1.09147
1.09146
1.09145
1.09145
1.09146
1.09147
1.09149
1.09151
1.09155
1.09159
1.09163
1.09168
1.09174
1.0918
1.09187
1.09195
1.09203
1.09212
1.09221
1.09231
1.09242
1.09252
1.09264
1.09276
1.09288
1.09301
1.09314
1.09327
1.09341
1.09355
1.09369
1.09384
1.09399
1.09414
1.09429
1.09444
1.09459
1.09474
1.09489
1.09504
1.09518
1.09533
1.09547
1.09561
1.09575
1.09588
1.09601
1.09613
1.09625
1.09637
1.09648
1.09658
1.09668
1.09677
1.09685
1.09693
1.09699
1.09706
1.09711
1.09716
1.0972
1.09723
1.09726
1.09728
1.0973
1.09731
1.09732
1.09732
1.09732
1.09732
1.09732
1.09731
1.09731
1.0973
1.0973
1.09729
1.09729
1.09729
1.09729
1.09729
1.09729
1.0973
1.09731
1.09732
1.09733
1.09735
1.09737
1.09739
1.09741
1.09744
1.09747
1.0975
1.09753
1.09756
1.09759
1.09762
1.09765
1.09769
1.09772
1.09775
1.09777
1.0978
1.09783
1.09785
1.09786
1.09788
1.09789
1.0979
1.0979
1.09789
1.09788
1.09787
1.09785
1.09782
1.09778
1.09774
1.0977
1.09764
1.09758
1.09751
1.09744
1.09735
1.09726
1.09717
1.09707
1.09696
1.09685
1.09673
1.09661
1.09648
1.09635
1.09621
1.09607
1.09593
1.09579
1.09564
1.0955
1.09535
1.0952
1.09505
1.09491
1.09476
1.09462
1.09448
1.09434
1.0942
1.09407
1.09394
1.09382
1.09369
1.09358
1.09346
1.09335
1.09324
1.09314
1.09304
1.09295
1.09286
1.09277
1.09269
1.09261
1.09254
1.09246
1.0924
1.09233
1.09227
1.0922
1.09215
1.09209
1.09203
1.09198
1.09193
1.09188
1.09184
1.09179
1.09175
1.09171
1.09167
1.09163
1.09159
1.09156
1.09152
1.09149
1.09147
1.09144
1.09142
1.0914
1.09139
1.09137
1.09137
1.09136
1.09136
1.09137
1.09138
1.09139
1.09141
1.09144
1.09147
1.0915
1.09155
1.0916
1.09165
1.09171
1.09178
1.09186
1.09194
1.09203
1.09212
1.09222
1.09232
1.09243
1.09255
1.09267
1.09279
1.09292
1.09305
1.09318
1.09331
1.09345
1.09358
1.09372
1.09385
1.09398
1.09412
1.09424
1.09437
1.09449
1.09461
1.09472
1.09483
1.09493
1.09503
1.09512
1.09521
1.09529
1.09537
1.09545
1.09552
1.09559
1.09565
1.09571
1.09577
1.09582
1.09587
1.09592
1.09596
1.09601
1.09605
1.09609
1.09612
1.09616
1.09619
1.09622
1.09624
1.09627
1.09629
1.09631
1.09632
1.09633
1.09634
1.09634
1.09634
1.09633
1.09632
1.09631
1.09629
1.09626
1.09624
1.0962
1.09617
1.09613
1.09609
1.09605
1.096
1.09596
1.09591
1.09587
1.09582
1.09578
1.09573
1.09569
1.09566
1.09563
1.0956
1.09557
1.09556
1.09554
1.09554
1.09554
1.09555
1.09557
1.0956
1.09564
1.09569
1.09575
1.09583
1.09591
1.09601
1.09612
1.09625
1.0964
1.09656
1.09674
1.09693
1.09715
1.09739
1.09765
1.09794
1.09825
1.09859
1.09895
1.09935
1.09978
1.10024
1.10074
1.10128
1.10185
1.10247
1.10313
1.10384
1.1046
1.10541
1.10628
1.10721
1.10821
1.10927
1.11042
1.11165
1.11298
1.11441
1.11597
1.11767
1.11954
1.1216
1.1239
1.12647
1.12936
1.1326
1.13616
1.13982
1.14308
1.14528
1.14469
1.08511
1.08468
1.08487
1.08561
1.08658
1.08761
1.08857
1.08942
1.09014
1.09074
1.09125
1.09167
1.09201
1.09229
1.09253
1.09272
1.09287
1.09299
1.09308
1.09316
1.09321
1.09324
1.09326
1.09327
1.09326
1.09324
1.09322
1.09319
1.09315
1.0931
1.09305
1.09299
1.09293
1.09286
1.09279
1.09272
1.09265
1.09257
1.0925
1.09242
1.09235
1.09227
1.0922
1.09212
1.09205
1.09198
1.09191
1.09185
1.09179
1.09173
1.09167
1.09162
1.09158
1.09154
1.0915
1.09147
1.09145
1.09143
1.09142
1.09141
1.09141
1.09142
1.09143
1.09145
1.09148
1.09151
1.09155
1.09159
1.09165
1.0917
1.09177
1.09184
1.09192
1.092
1.09209
1.09219
1.09229
1.09239
1.0925
1.09262
1.09274
1.09286
1.09299
1.09313
1.09326
1.09341
1.09355
1.0937
1.09384
1.09399
1.09415
1.0943
1.09445
1.09461
1.09476
1.09491
1.09506
1.09521
1.09536
1.09551
1.09565
1.09579
1.09592
1.09605
1.09618
1.0963
1.09641
1.09652
1.09663
1.09673
1.09682
1.0969
1.09698
1.09704
1.09711
1.09716
1.0972
1.09724
1.09728
1.0973
1.09732
1.09733
1.09734
1.09735
1.09735
1.09735
1.09734
1.09734
1.09733
1.09732
1.09731
1.09731
1.0973
1.0973
1.09729
1.09729
1.09729
1.09729
1.0973
1.09731
1.09732
1.09733
1.09735
1.09736
1.09738
1.09741
1.09743
1.09746
1.09749
1.09751
1.09755
1.09758
1.09761
1.09764
1.09767
1.0977
1.09773
1.09776
1.09778
1.0978
1.09782
1.09784
1.09785
1.09786
1.09787
1.09787
1.09786
1.09785
1.09784
1.09782
1.09779
1.09775
1.09771
1.09766
1.09761
1.09755
1.09748
1.0974
1.09732
1.09723
1.09714
1.09704
1.09693
1.09682
1.0967
1.09658
1.09645
1.09632
1.09619
1.09605
1.09591
1.09577
1.09562
1.09548
1.09533
1.09519
1.09504
1.09489
1.09475
1.09461
1.09447
1.09433
1.09419
1.09406
1.09393
1.09381
1.09369
1.09357
1.09345
1.09334
1.09324
1.09313
1.09304
1.09294
1.09285
1.09277
1.09268
1.0926
1.09253
1.09245
1.09238
1.09232
1.09225
1.09219
1.09213
1.09207
1.09202
1.09197
1.09191
1.09187
1.09182
1.09177
1.09173
1.09169
1.09165
1.09161
1.09157
1.09154
1.0915
1.09147
1.09145
1.09142
1.0914
1.09138
1.09137
1.09136
1.09135
1.09135
1.09135
1.09135
1.09136
1.09138
1.0914
1.09143
1.09146
1.0915
1.09154
1.09159
1.09165
1.09171
1.09178
1.09186
1.09194
1.09203
1.09213
1.09223
1.09233
1.09245
1.09256
1.09269
1.09281
1.09294
1.09307
1.09321
1.09334
1.09348
1.09362
1.09376
1.09389
1.09403
1.09416
1.09429
1.09441
1.09453
1.09465
1.09477
1.09487
1.09498
1.09508
1.09517
1.09526
1.09534
1.09542
1.09549
1.09556
1.09563
1.09569
1.09575
1.0958
1.09586
1.09591
1.09595
1.096
1.09604
1.09608
1.09612
1.09616
1.09619
1.09622
1.09625
1.09628
1.0963
1.09632
1.09634
1.09635
1.09636
1.09636
1.09637
1.09636
1.09636
1.09634
1.09633
1.09631
1.09628
1.09625
1.09622
1.09618
1.09614
1.0961
1.09606
1.09601
1.09596
1.09592
1.09587
1.09582
1.09578
1.09573
1.09569
1.09565
1.09562
1.09559
1.09557
1.09555
1.09554
1.09553
1.09553
1.09554
1.09556
1.09559
1.09562
1.09567
1.09573
1.0958
1.09589
1.09598
1.09609
1.09622
1.09636
1.09652
1.0967
1.09689
1.09711
1.09734
1.0976
1.09789
1.0982
1.09853
1.0989
1.09929
1.09972
1.10018
1.10067
1.1012
1.10178
1.10239
1.10305
1.10376
1.10451
1.10532
1.10618
1.1071
1.10808
1.10914
1.11026
1.11147
1.11276
1.11416
1.11566
1.11729
1.11906
1.12099
1.1231
1.1254
1.1279
1.13055
1.13326
1.13581
1.13777
1.13875
1.13851
1.08693
1.0865
1.08651
1.08689
1.08748
1.08818
1.08889
1.08956
1.09016
1.09069
1.09114
1.09153
1.09185
1.09213
1.09236
1.09255
1.0927
1.09283
1.09293
1.093
1.09306
1.0931
1.09313
1.09314
1.09314
1.09313
1.09311
1.09308
1.09304
1.093
1.09295
1.0929
1.09284
1.09278
1.09271
1.09264
1.09258
1.0925
1.09243
1.09236
1.09228
1.09221
1.09214
1.09207
1.092
1.09193
1.09186
1.0918
1.09174
1.09168
1.09163
1.09158
1.09153
1.09149
1.09146
1.09143
1.0914
1.09139
1.09137
1.09137
1.09137
1.09138
1.09139
1.09141
1.09143
1.09147
1.09151
1.09155
1.09161
1.09167
1.09173
1.0918
1.09188
1.09197
1.09206
1.09215
1.09226
1.09236
1.09248
1.0926
1.09272
1.09285
1.09298
1.09312
1.09326
1.0934
1.09355
1.0937
1.09385
1.094
1.09416
1.09432
1.09447
1.09463
1.09479
1.09494
1.0951
1.09525
1.0954
1.09555
1.09569
1.09583
1.09597
1.0961
1.09623
1.09635
1.09647
1.09658
1.09669
1.09679
1.09688
1.09696
1.09704
1.0971
1.09716
1.09722
1.09726
1.0973
1.09733
1.09735
1.09737
1.09738
1.09738
1.09739
1.09738
1.09738
1.09737
1.09736
1.09735
1.09734
1.09733
1.09732
1.09731
1.09731
1.0973
1.0973
1.0973
1.0973
1.0973
1.09731
1.09732
1.09733
1.09734
1.09736
1.09738
1.0974
1.09742
1.09745
1.09747
1.0975
1.09753
1.09756
1.09759
1.09762
1.09765
1.09768
1.09771
1.09773
1.09776
1.09778
1.0978
1.09781
1.09783
1.09783
1.09784
1.09784
1.09783
1.09782
1.0978
1.09778
1.09775
1.09772
1.09768
1.09763
1.09757
1.09751
1.09744
1.09737
1.09729
1.0972
1.0971
1.097
1.0969
1.09679
1.09667
1.09655
1.09642
1.09629
1.09616
1.09602
1.09588
1.09574
1.0956
1.09546
1.09531
1.09517
1.09502
1.09488
1.09473
1.09459
1.09445
1.09432
1.09418
1.09405
1.09392
1.0938
1.09367
1.09356
1.09344
1.09333
1.09323
1.09312
1.09302
1.09293
1.09284
1.09275
1.09267
1.09259
1.09251
1.09244
1.09237
1.0923
1.09223
1.09217
1.09211
1.09205
1.092
1.09194
1.09189
1.09184
1.0918
1.09175
1.0917
1.09166
1.09162
1.09158
1.09155
1.09151
1.09148
1.09145
1.09142
1.0914
1.09138
1.09136
1.09134
1.09133
1.09133
1.09132
1.09132
1.09133
1.09134
1.09136
1.09138
1.09141
1.09144
1.09148
1.09153
1.09158
1.09164
1.0917
1.09177
1.09185
1.09194
1.09203
1.09213
1.09223
1.09234
1.09246
1.09258
1.0927
1.09283
1.09296
1.0931
1.09324
1.09338
1.09352
1.09366
1.0938
1.09393
1.09407
1.09421
1.09434
1.09446
1.09459
1.09471
1.09482
1.09493
1.09503
1.09513
1.09522
1.09531
1.09539
1.09547
1.09554
1.09561
1.09568
1.09574
1.0958
1.09585
1.0959
1.09595
1.096
1.09604
1.09608
1.09612
1.09616
1.0962
1.09623
1.09626
1.09629
1.09632
1.09634
1.09636
1.09637
1.09639
1.09639
1.0964
1.0964
1.0964
1.09639
1.09637
1.09635
1.09633
1.09631
1.09627
1.09624
1.0962
1.09616
1.09612
1.09607
1.09602
1.09597
1.09593
1.09588
1.09583
1.09578
1.09574
1.09569
1.09565
1.09562
1.09559
1.09556
1.09554
1.09553
1.09552
1.09552
1.09553
1.09554
1.09557
1.09561
1.09565
1.09571
1.09578
1.09586
1.09595
1.09606
1.09618
1.09632
1.09647
1.09665
1.09684
1.09705
1.09728
1.09754
1.09782
1.09812
1.09845
1.09881
1.0992
1.09962
1.10008
1.10057
1.1011
1.10167
1.10228
1.10293
1.10363
1.10437
1.10517
1.10602
1.10693
1.10789
1.10892
1.11002
1.11119
1.11245
1.11379
1.11522
1.11676
1.11841
1.12018
1.12207
1.12409
1.12619
1.12832
1.13035
1.13211
1.13335
1.13384
1.13362
1.08822
1.08783
1.08776
1.08794
1.0883
1.08877
1.08929
1.0898
1.09029
1.09073
1.09112
1.09147
1.09177
1.09202
1.09224
1.09242
1.09257
1.0927
1.0928
1.09288
1.09294
1.09298
1.09301
1.09302
1.09303
1.09302
1.093
1.09298
1.09295
1.09291
1.09286
1.09281
1.09276
1.0927
1.09264
1.09257
1.09251
1.09244
1.09237
1.09229
1.09222
1.09215
1.09208
1.09201
1.09194
1.09187
1.09181
1.09175
1.09169
1.09163
1.09158
1.09153
1.09148
1.09144
1.09141
1.09138
1.09136
1.09134
1.09133
1.09132
1.09132
1.09133
1.09134
1.09136
1.09139
1.09142
1.09146
1.09151
1.09156
1.09162
1.09169
1.09176
1.09184
1.09192
1.09202
1.09211
1.09222
1.09233
1.09244
1.09256
1.09269
1.09282
1.09296
1.0931
1.09324
1.09339
1.09354
1.09369
1.09385
1.09401
1.09417
1.09433
1.09449
1.09465
1.09481
1.09497
1.09513
1.09529
1.09544
1.09559
1.09574
1.09589
1.09603
1.09616
1.09629
1.09642
1.09654
1.09665
1.09676
1.09686
1.09695
1.09703
1.09711
1.09718
1.09724
1.09729
1.09733
1.09736
1.09739
1.09741
1.09743
1.09743
1.09744
1.09743
1.09743
1.09742
1.09741
1.09739
1.09738
1.09737
1.09735
1.09734
1.09733
1.09732
1.09731
1.09731
1.0973
1.0973
1.0973
1.09731
1.09732
1.09733
1.09734
1.09735
1.09737
1.09739
1.09741
1.09744
1.09746
1.09749
1.09751
1.09754
1.09757
1.0976
1.09763
1.09765
1.09768
1.09771
1.09773
1.09775
1.09777
1.09778
1.09779
1.0978
1.0978
1.0978
1.09779
1.09778
1.09776
1.09774
1.09771
1.09767
1.09763
1.09758
1.09753
1.09747
1.0974
1.09732
1.09724
1.09716
1.09706
1.09696
1.09686
1.09675
1.09663
1.09651
1.09639
1.09626
1.09612
1.09599
1.09585
1.09571
1.09557
1.09543
1.09528
1.09514
1.095
1.09485
1.09471
1.09457
1.09443
1.0943
1.09416
1.09403
1.0939
1.09378
1.09366
1.09354
1.09343
1.09332
1.09321
1.09311
1.09301
1.09291
1.09282
1.09273
1.09265
1.09257
1.09249
1.09242
1.09235
1.09228
1.09221
1.09215
1.09209
1.09203
1.09197
1.09192
1.09187
1.09181
1.09177
1.09172
1.09167
1.09163
1.09159
1.09155
1.09151
1.09148
1.09145
1.09142
1.09139
1.09137
1.09134
1.09133
1.09131
1.0913
1.09129
1.09129
1.09129
1.0913
1.09131
1.09133
1.09135
1.09138
1.09142
1.09146
1.0915
1.09156
1.09162
1.09168
1.09176
1.09184
1.09193
1.09202
1.09212
1.09223
1.09234
1.09246
1.09258
1.09271
1.09284
1.09298
1.09312
1.09326
1.0934
1.09355
1.09369
1.09383
1.09398
1.09412
1.09425
1.09439
1.09452
1.09464
1.09476
1.09488
1.09499
1.09509
1.09519
1.09528
1.09537
1.09545
1.09553
1.0956
1.09567
1.09574
1.0958
1.09585
1.09591
1.09596
1.096
1.09605
1.09609
1.09613
1.09617
1.09621
1.09625
1.09628
1.09631
1.09634
1.09636
1.09638
1.0964
1.09642
1.09643
1.09644
1.09644
1.09644
1.09643
1.09642
1.09641
1.09639
1.09637
1.09634
1.0963
1.09627
1.09623
1.09618
1.09614
1.09609
1.09604
1.09599
1.09594
1.09589
1.09584
1.09579
1.09574
1.0957
1.09566
1.09562
1.09559
1.09556
1.09554
1.09552
1.09551
1.09551
1.09551
1.09553
1.09555
1.09558
1.09562
1.09568
1.09574
1.09582
1.09591
1.09601
1.09613
1.09626
1.09641
1.09658
1.09676
1.09697
1.0972
1.09745
1.09772
1.09802
1.09835
1.0987
1.09908
1.0995
1.09995
1.10043
1.10095
1.10151
1.10211
1.10276
1.10344
1.10418
1.10496
1.1058
1.10668
1.10763
1.10863
1.10969
1.11083
1.11203
1.1133
1.11466
1.11609
1.11761
1.11922
1.1209
1.12263
1.12438
1.12607
1.1276
1.12883
1.12964
1.1299
1.12961
1.08916
1.08883
1.08872
1.08879
1.08901
1.08932
1.08969
1.09008
1.09047
1.09083
1.09116
1.09146
1.09173
1.09196
1.09216
1.09233
1.09247
1.09259
1.09269
1.09277
1.09283
1.09287
1.0929
1.09292
1.09292
1.09292
1.09291
1.09288
1.09286
1.09282
1.09278
1.09273
1.09268
1.09262
1.09256
1.0925
1.09244
1.09237
1.0923
1.09223
1.09216
1.09209
1.09202
1.09195
1.09189
1.09182
1.09176
1.09169
1.09164
1.09158
1.09153
1.09148
1.09144
1.0914
1.09136
1.09133
1.09131
1.09129
1.09128
1.09127
1.09127
1.09128
1.09129
1.09131
1.09134
1.09137
1.09141
1.09146
1.09151
1.09157
1.09164
1.09171
1.09179
1.09188
1.09198
1.09208
1.09218
1.09229
1.09241
1.09253
1.09266
1.0928
1.09293
1.09308
1.09323
1.09338
1.09353
1.09369
1.09385
1.09401
1.09418
1.09435
1.09451
1.09468
1.09484
1.09501
1.09517
1.09533
1.09549
1.09565
1.0958
1.09595
1.09609
1.09623
1.09636
1.09649
1.09661
1.09673
1.09683
1.09694
1.09703
1.09711
1.09719
1.09726
1.09731
1.09736
1.0974
1.09744
1.09746
1.09748
1.09749
1.09749
1.09749
1.09748
1.09748
1.09746
1.09745
1.09743
1.09741
1.0974
1.09738
1.09736
1.09735
1.09734
1.09733
1.09732
1.09731
1.09731
1.09731
1.09731
1.09731
1.09732
1.09733
1.09735
1.09736
1.09738
1.0974
1.09742
1.09745
1.09747
1.0975
1.09752
1.09755
1.09758
1.0976
1.09763
1.09765
1.09767
1.0977
1.09771
1.09773
1.09774
1.09775
1.09776
1.09776
1.09776
1.09775
1.09774
1.09772
1.09769
1.09766
1.09763
1.09759
1.09754
1.09748
1.09742
1.09735
1.09728
1.0972
1.09711
1.09702
1.09692
1.09681
1.0967
1.09659
1.09647
1.09634
1.09622
1.09609
1.09595
1.09582
1.09568
1.09554
1.09539
1.09525
1.09511
1.09497
1.09483
1.09468
1.09455
1.09441
1.09427
1.09414
1.09401
1.09388
1.09376
1.09364
1.09352
1.0934
1.09329
1.09319
1.09308
1.09299
1.09289
1.0928
1.09271
1.09263
1.09254
1.09247
1.09239
1.09232
1.09225
1.09218
1.09212
1.09206
1.092
1.09194
1.09189
1.09183
1.09178
1.09173
1.09168
1.09164
1.0916
1.09155
1.09151
1.09148
1.09144
1.09141
1.09138
1.09135
1.09133
1.09131
1.09129
1.09127
1.09126
1.09126
1.09125
1.09126
1.09126
1.09128
1.0913
1.09132
1.09135
1.09138
1.09143
1.09147
1.09153
1.09159
1.09166
1.09174
1.09182
1.09191
1.09201
1.09211
1.09222
1.09233
1.09246
1.09258
1.09272
1.09285
1.09299
1.09314
1.09328
1.09343
1.09358
1.09373
1.09387
1.09402
1.09416
1.0943
1.09444
1.09457
1.0947
1.09482
1.09494
1.09505
1.09516
1.09526
1.09535
1.09544
1.09552
1.0956
1.09567
1.09574
1.0958
1.09586
1.09591
1.09597
1.09602
1.09606
1.09611
1.09615
1.09619
1.09623
1.09627
1.0963
1.09633
1.09636
1.09639
1.09641
1.09644
1.09645
1.09647
1.09648
1.09649
1.09649
1.09649
1.09648
1.09647
1.09645
1.09643
1.0964
1.09637
1.09634
1.0963
1.09626
1.09621
1.09616
1.09611
1.09606
1.09601
1.09595
1.0959
1.09585
1.0958
1.09575
1.0957
1.09566
1.09562
1.09559
1.09556
1.09553
1.09551
1.0955
1.0955
1.0955
1.09551
1.09553
1.09556
1.0956
1.09564
1.0957
1.09578
1.09586
1.09596
1.09607
1.0962
1.09634
1.0965
1.09668
1.09688
1.0971
1.09735
1.09761
1.0979
1.09822
1.09857
1.09895
1.09935
1.09979
1.10027
1.10078
1.10133
1.10192
1.10255
1.10322
1.10394
1.10471
1.10552
1.10639
1.1073
1.10827
1.1093
1.11038
1.11153
1.11273
1.114
1.11533
1.11672
1.11816
1.11963
1.12112
1.12256
1.1239
1.12506
1.12595
1.12648
1.12662
1.1263
1.08988
1.0896
1.08948
1.08949
1.08962
1.08983
1.09009
1.09038
1.09068
1.09097
1.09125
1.0915
1.09173
1.09194
1.09212
1.09227
1.09241
1.09252
1.09261
1.09268
1.09274
1.09278
1.09281
1.09283
1.09284
1.09284
1.09282
1.0928
1.09278
1.09274
1.0927
1.09266
1.09261
1.09256
1.0925
1.09244
1.09238
1.09231
1.09224
1.09218
1.09211
1.09204
1.09197
1.0919
1.09184
1.09177
1.09171
1.09165
1.09159
1.09153
1.09148
1.09143
1.09139
1.09135
1.09131
1.09128
1.09126
1.09124
1.09122
1.09122
1.09122
1.09122
1.09124
1.09125
1.09128
1.09131
1.09135
1.0914
1.09146
1.09152
1.09159
1.09166
1.09174
1.09183
1.09193
1.09203
1.09213
1.09225
1.09237
1.09249
1.09263
1.09276
1.09291
1.09305
1.0932
1.09336
1.09352
1.09368
1.09385
1.09402
1.09419
1.09436
1.09453
1.0947
1.09487
1.09504
1.09521
1.09538
1.09554
1.0957
1.09585
1.09601
1.09615
1.0963
1.09643
1.09656
1.09669
1.09681
1.09692
1.09702
1.09711
1.0972
1.09728
1.09734
1.0974
1.09745
1.09749
1.09752
1.09754
1.09755
1.09756
1.09756
1.09755
1.09754
1.09753
1.09751
1.09749
1.09747
1.09745
1.09743
1.09741
1.09739
1.09737
1.09735
1.09734
1.09733
1.09732
1.09731
1.09731
1.09731
1.09731
1.09732
1.09733
1.09734
1.09735
1.09737
1.09739
1.0974
1.09743
1.09745
1.09747
1.0975
1.09752
1.09755
1.09757
1.09759
1.09762
1.09764
1.09766
1.09767
1.09769
1.0977
1.09771
1.09771
1.09771
1.09771
1.0977
1.09768
1.09767
1.09764
1.09761
1.09757
1.09753
1.09748
1.09743
1.09736
1.0973