# vtk DataFile Version 2.0
LBE mesh
ASCII
DATASET STRUCTURED_POINTS
DIMENSIONS 400 100 1
ASPECT_RATIO 1 1 1
ORIGIN 0 0 0
POINT_DATA 40000
SCALARS rho double 1
LOOKUP_TABLE default
1.05543
1.11539
1.13324
1.13751
1.13972
1.1415
1.14276
1.14358
1.14415
1.14456
1.14488
1.14512
1.14531
1.14546
1.14559
1.14568
1.14576
1.14582
1.14587
1.1459
1.14593
1.14595
1.14596
1.14597
1.14597
1.14596
1.14595
1.14594
1.14593
1.14591
1.14589
1.14586
1.14583
1.14581
1.14578
1.14574
1.14571
1.14567
1.14564
1.1456
1.14556
1.14552
1.14549
1.14545
1.14541
1.14537
1.14533
1.1453
1.14527
1.14523
1.1452
1.14518
1.14515
1.14513
1.14512
1.1451
1.1451
1.14509
1.1451
1.14511
1.14512
1.14514
1.14517
1.14521
1.14526
1.14531
1.14537
1.14544
1.14552
1.14561
1.14571
1.14582
1.14594
1.14608
1.14622
1.14637
1.14653
1.1467
1.14688
1.14708
1.14728
1.14749
1.14772
1.14795
1.14819
1.14844
1.1487
1.14897
1.14924
1.14952
1.14981
1.15011
1.1504
1.1507
1.15101
1.15132
1.15163
1.15194
1.15225
1.15256
1.15287
1.15318
1.15349
1.15379
1.15409
1.15438
1.15467
1.15495
1.15523
1.1555
1.15576
1.15602
1.15626
1.1565
1.15673
1.15694
1.15715
1.15735
1.15754
1.15772
1.15789
1.15806
1.15821
1.15836
1.15849
1.15862
1.15875
1.15886
1.15897
1.15908
1.15918
1.15928
1.15937
1.15946
1.15955
1.15963
1.15971
1.1598
1.15987
1.15995
1.16003
1.16011
1.16018
1.16026
1.16034
1.16041
1.16049
1.16056
1.16064
1.16071
1.16079
1.16086
1.16094
1.16101
1.16108
1.16116
1.16123
1.1613
1.16138
1.16145
1.16152
1.16159
1.16166
1.16173
1.1618
1.16186
1.16193
1.16199
1.16206
1.16212
1.16218
1.16224
1.1623
1.16236
1.16241
1.16247
1.16252
1.16258
1.16263
1.16268
1.16273
1.16278
1.16283
1.16287
1.16292
1.16296
1.16301
1.16305
1.1631
1.16314
1.16318
1.16323
1.16327
1.16331
1.16335
1.1634
1.16344
1.16348
1.16352
1.16357
1.16361
1.16366
1.1637
1.16375
1.16379
1.16384
1.16389
1.16394
1.16399
1.16404
1.1641
1.16415
1.16421
1.16427
1.16433
1.16439
1.16446
1.16452
1.16459
1.16466
1.16473
1.16481
1.16489
1.16497
1.16505
1.16514
1.16522
1.16532
1.16541
1.16551
1.16561
1.16571
1.16582
1.16593
1.16605
1.16617
1.16629
1.16642
1.16655
1.16669
1.16683
1.16698
1.16713
1.16728
1.16744
1.16761
1.16778
1.16796
1.16815
1.16834
1.16854
1.16874
1.16895
1.16917
1.16939
1.16962
1.16986
1.1701
1.17035
1.17061
1.17087
1.17115
1.17142
1.17171
1.172
1.17229
1.17259
1.1729
1.17321
1.17352
1.17383
1.17415
1.17447
1.1748
1.17512
1.17544
1.17577
1.17609
1.1764
1.17672
1.17703
1.17734
1.17764
1.17794
1.17824
1.17852
1.1788
1.17908
1.17934
1.1796
1.17986
1.1801
1.18034
1.18058
1.1808
1.18102
1.18124
1.18145
1.18165
1.18185
1.18204
1.18223
1.18241
1.18259
1.18276
1.18293
1.1831
1.18326
1.18342
1.18357
1.18372
1.18387
1.18401
1.18415
1.18428
1.1844
1.18452
1.18464
1.18475
1.18486
1.18495
1.18505
1.18513
1.18522
1.18529
1.18536
1.18542
1.18548
1.18553
1.18557
1.18561
1.18565
1.18568
1.18571
1.18573
1.18576
1.18578
1.1858
1.18581
1.18583
1.18585
1.18588
1.1859
1.18593
1.18596
1.186
1.18604
1.18609
1.18616
1.18623
1.18631
1.1864
1.1865
1.18662
1.18676
1.18691
1.18708
1.18726
1.18747
1.18769
1.18794
1.18821
1.1885
1.18882
1.18917
1.18954
1.18994
1.19037
1.19083
1.19133
1.19185
1.19242
1.19301
1.19365
1.19432
1.19504
1.1958
1.19661
1.19747
1.19838
1.19935
1.20038
1.20149
1.20267
1.20394
1.20531
1.2068
1.20843
1.21022
1.2122
1.21443
1.21697
1.21991
1.22339
1.22762
1.23309
1.24077
1.25163
1.26671
1.2956
1.10223
1.11335
1.12446
1.13292
1.13739
1.13977
1.14128
1.14237
1.14316
1.14375
1.1442
1.14454
1.14481
1.14502
1.14519
1.14533
1.14545
1.14554
1.14561
1.14567
1.14572
1.14575
1.14578
1.1458
1.14581
1.14582
1.14582
1.14582
1.14581
1.1458
1.14578
1.14576
1.14574
1.14572
1.14569
1.14566
1.14564
1.1456
1.14557
1.14554
1.1455
1.14547
1.14543
1.1454
1.14536
1.14533
1.14529
1.14526
1.14523
1.1452
1.14517
1.14515
1.14512
1.14511
1.14509
1.14508
1.14508
1.14508
1.14508
1.14509
1.14511
1.14513
1.14517
1.14521
1.14525
1.14531
1.14537
1.14545
1.14553
1.14562
1.14572
1.14583
1.14596
1.14609
1.14623
1.14638
1.14655
1.14672
1.14691
1.1471
1.1473
1.14752
1.14774
1.14798
1.14822
1.14847
1.14873
1.149
1.14927
1.14955
1.14984
1.15013
1.15043
1.15073
1.15104
1.15134
1.15165
1.15196
1.15227
1.15258
1.15289
1.1532
1.1535
1.1538
1.1541
1.15439
1.15468
1.15496
1.15523
1.1555
1.15576
1.15601
1.15625
1.15649
1.15671
1.15693
1.15714
1.15734
1.15752
1.1577
1.15787
1.15803
1.15819
1.15833
1.15847
1.1586
1.15872
1.15884
1.15895
1.15905
1.15915
1.15925
1.15934
1.15943
1.15952
1.15961
1.15969
1.15977
1.15985
1.15993
1.16001
1.16009
1.16016
1.16024
1.16032
1.16039
1.16047
1.16054
1.16062
1.1607
1.16077
1.16085
1.16092
1.161
1.16107
1.16115
1.16122
1.16129
1.16137
1.16144
1.16151
1.16158
1.16165
1.16172
1.16179
1.16185
1.16192
1.16198
1.16205
1.16211
1.16217
1.16223
1.16229
1.16235
1.16241
1.16246
1.16251
1.16257
1.16262
1.16267
1.16272
1.16277
1.16282
1.16287
1.16291
1.16296
1.163
1.16305
1.16309
1.16313
1.16318
1.16322
1.16326
1.1633
1.16335
1.16339
1.16343
1.16347
1.16352
1.16356
1.16361
1.16365
1.1637
1.16374
1.16379
1.16384
1.16389
1.16394
1.16399
1.16404
1.16409
1.16415
1.16421
1.16427
1.16433
1.16439
1.16445
1.16452
1.16459
1.16466
1.16473
1.16481
1.16489
1.16497
1.16505
1.16514
1.16523
1.16532
1.16541
1.16551
1.16561
1.16572
1.16583
1.16594
1.16606
1.16618
1.1663
1.16643
1.16656
1.1667
1.16684
1.16699
1.16714
1.1673
1.16746
1.16763
1.1678
1.16798
1.16817
1.16836
1.16856
1.16876
1.16897
1.16919
1.16941
1.16965
1.16988
1.17013
1.17038
1.17064
1.1709
1.17118
1.17145
1.17174
1.17203
1.17232
1.17262
1.17293
1.17324
1.17355
1.17387
1.17418
1.17451
1.17483
1.17515
1.17547
1.17579
1.17611
1.17643
1.17674
1.17705
1.17736
1.17766
1.17796
1.17825
1.17853
1.17881
1.17909
1.17935
1.17961
1.17986
1.18011
1.18035
1.18058
1.1808
1.18102
1.18124
1.18144
1.18164
1.18184
1.18203
1.18222
1.1824
1.18258
1.18275
1.18292
1.18309
1.18325
1.18341
1.18356
1.18371
1.18385
1.18399
1.18413
1.18426
1.18439
1.18451
1.18462
1.18473
1.18484
1.18493
1.18503
1.18511
1.18519
1.18527
1.18533
1.1854
1.18545
1.1855
1.18555
1.18559
1.18563
1.18566
1.18569
1.18571
1.18573
1.18575
1.18577
1.18579
1.18581
1.18584
1.18586
1.18588
1.18591
1.18595
1.18599
1.18604
1.18609
1.18615
1.18623
1.18631
1.1864
1.18651
1.18664
1.18677
1.18693
1.1871
1.18729
1.1875
1.18773
1.18798
1.18825
1.18855
1.18887
1.18922
1.1896
1.19001
1.19044
1.19091
1.19141
1.19194
1.1925
1.19311
1.19375
1.19443
1.19515
1.19592
1.19674
1.19761
1.19853
1.19951
1.20056
1.20168
1.20288
1.20417
1.20557
1.20709
1.20876
1.2106
1.21265
1.21497
1.21762
1.22071
1.22442
1.229
1.23478
1.24226
1.25311
1.27232
1.30316
1.12075
1.12045
1.127
1.1324
1.13588
1.13837
1.14016
1.14143
1.14235
1.14305
1.14358
1.14401
1.14434
1.14461
1.14483
1.145
1.14515
1.14527
1.14537
1.14545
1.14551
1.14556
1.1456
1.14564
1.14566
1.14568
1.14569
1.14569
1.14569
1.14569
1.14568
1.14566
1.14565
1.14563
1.14561
1.14558
1.14556
1.14553
1.1455
1.14547
1.14544
1.14541
1.14537
1.14534
1.14531
1.14527
1.14524
1.14521
1.14518
1.14516
1.14513
1.14511
1.14509
1.14507
1.14506
1.14505
1.14505
1.14505
1.14506
1.14507
1.14509
1.14511
1.14515
1.14519
1.14524
1.1453
1.14536
1.14544
1.14552
1.14562
1.14572
1.14583
1.14596
1.14609
1.14623
1.14639
1.14655
1.14673
1.14691
1.14711
1.14732
1.14753
1.14776
1.14799
1.14824
1.14849
1.14875
1.14902
1.14929
1.14957
1.14986
1.15015
1.15045
1.15075
1.15106
1.15136
1.15167
1.15198
1.15229
1.1526
1.15291
1.15321
1.15352
1.15382
1.15411
1.1544
1.15469
1.15497
1.15524
1.15551
1.15576
1.15601
1.15626
1.15649
1.15671
1.15693
1.15713
1.15733
1.15751
1.15769
1.15786
1.15802
1.15817
1.15831
1.15845
1.15858
1.1587
1.15881
1.15893
1.15903
1.15913
1.15923
1.15932
1.15941
1.1595
1.15958
1.15967
1.15975
1.15983
1.15991
1.15999
1.16007
1.16014
1.16022
1.1603
1.16037
1.16045
1.16053
1.1606
1.16068
1.16075
1.16083
1.16091
1.16098
1.16106
1.16113
1.1612
1.16128
1.16135
1.16142
1.16149
1.16157
1.16164
1.1617
1.16177
1.16184
1.16191
1.16197
1.16203
1.1621
1.16216
1.16222
1.16228
1.16234
1.16239
1.16245
1.1625
1.16256
1.16261
1.16266
1.16271
1.16276
1.16281
1.16285
1.1629
1.16295
1.16299
1.16303
1.16308
1.16312
1.16317
1.16321
1.16325
1.16329
1.16334
1.16338
1.16342
1.16346
1.16351
1.16355
1.1636
1.16364
1.16369
1.16373
1.16378
1.16383
1.16388
1.16393
1.16398
1.16403
1.16409
1.16414
1.1642
1.16426
1.16432
1.16438
1.16445
1.16452
1.16458
1.16466
1.16473
1.16481
1.16488
1.16496
1.16505
1.16514
1.16523
1.16532
1.16541
1.16551
1.16561
1.16572
1.16583
1.16594
1.16606
1.16618
1.1663
1.16643
1.16657
1.1667
1.16685
1.16699
1.16715
1.1673
1.16747
1.16764
1.16781
1.16799
1.16818
1.16837
1.16857
1.16877
1.16899
1.1692
1.16943
1.16966
1.1699
1.17015
1.1704
1.17066
1.17092
1.1712
1.17148
1.17176
1.17205
1.17235
1.17265
1.17295
1.17326
1.17358
1.17389
1.17421
1.17453
1.17485
1.17518
1.1755
1.17582
1.17614
1.17645
1.17677
1.17708
1.17738
1.17768
1.17798
1.17827
1.17855
1.17883
1.1791
1.17936
1.17962
1.17987
1.18011
1.18035
1.18058
1.18081
1.18102
1.18124
1.18144
1.18164
1.18184
1.18203
1.18222
1.1824
1.18258
1.18275
1.18292
1.18308
1.18324
1.1834
1.18355
1.1837
1.18385
1.18398
1.18412
1.18425
1.18438
1.1845
1.18461
1.18472
1.18482
1.18492
1.18501
1.1851
1.18518
1.18525
1.18532
1.18538
1.18543
1.18548
1.18553
1.18557
1.1856
1.18563
1.18566
1.18569
1.18571
1.18573
1.18575
1.18577
1.18579
1.18581
1.18584
1.18586
1.18589
1.18593
1.18597
1.18602
1.18607
1.18614
1.18621
1.1863
1.1864
1.18651
1.18663
1.18677
1.18693
1.1871
1.18729
1.18751
1.18774
1.18799
1.18827
1.18857
1.1889
1.18925
1.18963
1.19004
1.19048
1.19095
1.19145
1.19199
1.19256
1.19317
1.19381
1.1945
1.19523
1.196
1.19682
1.19769
1.19862
1.19961
1.20066
1.20179
1.203
1.2043
1.20571
1.20724
1.20892
1.21077
1.21284
1.21517
1.21783
1.22093
1.22459
1.22901
1.23456
1.24175
1.25074
1.2605
1.27016
1.12899
1.12823
1.13041
1.13305
1.13579
1.13797
1.13958
1.14081
1.14176
1.14251
1.14309
1.14356
1.14394
1.14424
1.14449
1.1447
1.14487
1.14501
1.14513
1.14523
1.14531
1.14538
1.14543
1.14548
1.14551
1.14554
1.14556
1.14557
1.14558
1.14558
1.14557
1.14557
1.14556
1.14554
1.14552
1.1455
1.14548
1.14546
1.14543
1.1454
1.14537
1.14534
1.14531
1.14528
1.14525
1.14522
1.14519
1.14516
1.14513
1.14511
1.14508
1.14506
1.14505
1.14503
1.14502
1.14501
1.14501
1.14501
1.14502
1.14504
1.14506
1.14508
1.14512
1.14516
1.14521
1.14527
1.14534
1.14542
1.1455
1.1456
1.1457
1.14582
1.14594
1.14608
1.14623
1.14638
1.14655
1.14672
1.14691
1.14711
1.14732
1.14753
1.14776
1.148
1.14824
1.1485
1.14876
1.14903
1.1493
1.14959
1.14988
1.15017
1.15047
1.15077
1.15108
1.15138
1.15169
1.152
1.15231
1.15262
1.15293
1.15323
1.15354
1.15384
1.15413
1.15442
1.15471
1.15498
1.15526
1.15552
1.15578
1.15603
1.15627
1.1565
1.15672
1.15693
1.15714
1.15733
1.15751
1.15769
1.15786
1.15801
1.15816
1.1583
1.15844
1.15856
1.15868
1.1588
1.15891
1.15901
1.15911
1.15921
1.1593
1.15939
1.15948
1.15956
1.15965
1.15973
1.15981
1.15989
1.15997
1.16004
1.16012
1.1602
1.16028
1.16035
1.16043
1.16051
1.16058
1.16066
1.16073
1.16081
1.16089
1.16096
1.16104
1.16111
1.16119
1.16126
1.16133
1.1614
1.16148
1.16155
1.16162
1.16169
1.16175
1.16182
1.16189
1.16195
1.16202
1.16208
1.16214
1.1622
1.16226
1.16232
1.16237
1.16243
1.16248
1.16254
1.16259
1.16264
1.16269
1.16274
1.16279
1.16284
1.16288
1.16293
1.16297
1.16302
1.16306
1.16311
1.16315
1.16319
1.16324
1.16328
1.16332
1.16336
1.16341
1.16345
1.16349
1.16354
1.16358
1.16363
1.16367
1.16372
1.16377
1.16382
1.16386
1.16392
1.16397
1.16402
1.16408
1.16413
1.16419
1.16425
1.16431
1.16437
1.16444
1.16451
1.16458
1.16465
1.16472
1.1648
1.16488
1.16496
1.16504
1.16513
1.16522
1.16531
1.16541
1.16551
1.16561
1.16571
1.16582
1.16594
1.16605
1.16617
1.1663
1.16643
1.16656
1.1667
1.16684
1.16699
1.16714
1.1673
1.16746
1.16763
1.16781
1.16799
1.16818
1.16837
1.16857
1.16877
1.16899
1.16921
1.16943
1.16967
1.16991
1.17015
1.17041
1.17067
1.17093
1.17121
1.17149
1.17177
1.17206
1.17236
1.17266
1.17297
1.17328
1.1736
1.17391
1.17423
1.17455
1.17488
1.1752
1.17552
1.17584
1.17616
1.17648
1.17679
1.1771
1.17741
1.17771
1.178
1.17829
1.17857
1.17885
1.17912
1.17938
1.17964
1.17989
1.18013
1.18036
1.18059
1.18082
1.18103
1.18124
1.18145
1.18165
1.18184
1.18203
1.18222
1.1824
1.18258
1.18275
1.18292
1.18308
1.18324
1.1834
1.18355
1.1837
1.18384
1.18398
1.18411
1.18424
1.18437
1.18449
1.1846
1.18471
1.18481
1.18491
1.185
1.18508
1.18516
1.18524
1.1853
1.18536
1.18542
1.18547
1.18551
1.18555
1.18558
1.18561
1.18564
1.18567
1.18569
1.18571
1.18573
1.18575
1.18577
1.18579
1.18581
1.18584
1.18587
1.1859
1.18595
1.18599
1.18605
1.18612
1.18619
1.18628
1.18638
1.18649
1.18661
1.18675
1.18691
1.18709
1.18728
1.18749
1.18773
1.18798
1.18826
1.18857
1.1889
1.18925
1.18963
1.19004
1.19049
1.19096
1.19146
1.192
1.19257
1.19318
1.19383
1.19452
1.19525
1.19603
1.19685
1.19772
1.19865
1.19964
1.20069
1.20182
1.20302
1.20432
1.20572
1.20724
1.20891
1.21074
1.21277
1.21505
1.21764
1.2206
1.22405
1.22809
1.23283
1.23834
1.24448
1.24947
1.24967
1.13316
1.13269
1.13334
1.13478
1.13652
1.13808
1.13942
1.14053
1.14142
1.14214
1.14273
1.14321
1.14361
1.14393
1.14421
1.14443
1.14462
1.14478
1.14492
1.14503
1.14513
1.1452
1.14527
1.14532
1.14537
1.1454
1.14543
1.14545
1.14546
1.14547
1.14547
1.14547
1.14546
1.14545
1.14544
1.14542
1.1454
1.14538
1.14536
1.14533
1.1453
1.14528
1.14525
1.14522
1.14519
1.14516
1.14513
1.14511
1.14508
1.14505
1.14503
1.14501
1.145
1.14498
1.14497
1.14497
1.14497
1.14497
1.14498
1.145
1.14502
1.14505
1.14508
1.14513
1.14518
1.14524
1.14531
1.14539
1.14547
1.14557
1.14568
1.14579
1.14592
1.14606
1.14621
1.14636
1.14653
1.14671
1.1469
1.1471
1.14731
1.14753
1.14776
1.14799
1.14824
1.1485
1.14876
1.14903
1.14931
1.14959
1.14988
1.15018
1.15048
1.15078
1.15109
1.1514
1.15171
1.15202
1.15233
1.15264
1.15295
1.15326
1.15356
1.15386
1.15415
1.15444
1.15473
1.155
1.15528
1.15554
1.1558
1.15604
1.15628
1.15651
1.15673
1.15694
1.15715
1.15734
1.15752
1.15769
1.15786
1.15801
1.15816
1.1583
1.15843
1.15856
1.15868
1.15879
1.1589
1.159
1.1591
1.15919
1.15928
1.15937
1.15946
1.15954
1.15962
1.15971
1.15979
1.15986
1.15994
1.16002
1.1601
1.16018
1.16025
1.16033
1.16041
1.16048
1.16056
1.16063
1.16071
1.16079
1.16086
1.16094
1.16101
1.16109
1.16116
1.16124
1.16131
1.16138
1.16145
1.16152
1.16159
1.16166
1.16173
1.1618
1.16187
1.16193
1.16199
1.16206
1.16212
1.16218
1.16224
1.1623
1.16235
1.16241
1.16246
1.16252
1.16257
1.16262
1.16267
1.16272
1.16277
1.16281
1.16286
1.16291
1.16295
1.163
1.16304
1.16309
1.16313
1.16317
1.16322
1.16326
1.1633
1.16334
1.16339
1.16343
1.16348
1.16352
1.16356
1.16361
1.16366
1.1637
1.16375
1.1638
1.16385
1.1639
1.16395
1.16401
1.16406
1.16412
1.16418
1.16423
1.1643
1.16436
1.16443
1.16449
1.16456
1.16463
1.16471
1.16478
1.16486
1.16494
1.16503
1.16512
1.16521
1.1653
1.16539
1.16549
1.1656
1.1657
1.16581
1.16592
1.16604
1.16616
1.16629
1.16642
1.16655
1.16669
1.16683
1.16698
1.16713
1.16729
1.16745
1.16762
1.1678
1.16798
1.16817
1.16836
1.16856
1.16877
1.16898
1.1692
1.16943
1.16966
1.1699
1.17015
1.1704
1.17066
1.17093
1.17121
1.17149
1.17178
1.17207
1.17237
1.17267
1.17298
1.17329
1.17361
1.17393
1.17425
1.17457
1.1749
1.17522
1.17554
1.17587
1.17619
1.1765
1.17682
1.17713
1.17743
1.17773
1.17803
1.17832
1.1786
1.17887
1.17914
1.1794
1.17966
1.17991
1.18015
1.18038
1.18061
1.18083
1.18105
1.18125
1.18146
1.18166
1.18185
1.18204
1.18222
1.1824
1.18258
1.18275
1.18292
1.18308
1.18324
1.1834
1.18355
1.1837
1.18384
1.18398
1.18411
1.18424
1.18437
1.18449
1.1846
1.18471
1.18481
1.18491
1.18499
1.18508
1.18516
1.18523
1.18529
1.18535
1.1854
1.18545
1.1855
1.18553
1.18557
1.1856
1.18562
1.18564
1.18567
1.18568
1.1857
1.18572
1.18574
1.18576
1.18578
1.18581
1.18584
1.18587
1.18591
1.18596
1.18602
1.18608
1.18616
1.18624
1.18634
1.18645
1.18658
1.18672
1.18688
1.18705
1.18725
1.18746
1.1877
1.18795
1.18823
1.18854
1.18887
1.18922
1.18961
1.19002
1.19046
1.19094
1.19144
1.19198
1.19256
1.19317
1.19381
1.1945
1.19523
1.19601
1.19683
1.1977
1.19862
1.19961
1.20065
1.20177
1.20296
1.20424
1.20562
1.20711
1.20874
1.21051
1.21247
1.21465
1.21708
1.21981
1.22289
1.22637
1.2302
1.23413
1.23767
1.24013
1.23947
1.13594
1.13547
1.13565
1.13643
1.13746
1.13855
1.13959
1.1405
1.14128
1.14194
1.1425
1.14297
1.14336
1.14369
1.14397
1.14421
1.14441
1.14458
1.14473
1.14485
1.14495
1.14504
1.14512
1.14518
1.14523
1.14527
1.1453
1.14533
1.14535
1.14536
1.14537
1.14537
1.14537
1.14536
1.14535
1.14534
1.14532
1.1453
1.14528
1.14526
1.14523
1.14521
1.14518
1.14515
1.14513
1.1451
1.14507
1.14505
1.14502
1.145
1.14498
1.14496
1.14494
1.14493
1.14492
1.14492
1.14492
1.14492
1.14493
1.14495
1.14497
1.145
1.14504
1.14508
1.14514
1.1452
1.14527
1.14535
1.14544
1.14553
1.14564
1.14576
1.14589
1.14603
1.14618
1.14633
1.1465
1.14668
1.14688
1.14708
1.14729
1.14751
1.14774
1.14798
1.14823
1.14849
1.14875
1.14903
1.14931
1.14959
1.14989
1.15018
1.15049
1.15079
1.1511
1.15141
1.15172
1.15204
1.15235
1.15266
1.15297
1.15328
1.15358
1.15388
1.15418
1.15447
1.15475
1.15503
1.1553
1.15556
1.15582
1.15607
1.15631
1.15654
1.15675
1.15696
1.15716
1.15735
1.15754
1.15771
1.15787
1.15802
1.15817
1.1583
1.15843
1.15855
1.15867
1.15878
1.15889
1.15899
1.15908
1.15918
1.15927
1.15935
1.15944
1.15952
1.1596
1.15968
1.15976
1.15984
1.15992
1.16
1.16007
1.16015
1.16023
1.1603
1.16038
1.16046
1.16053
1.16061
1.16069
1.16076
1.16084
1.16091
1.16099
1.16106
1.16114
1.16121
1.16128
1.16136
1.16143
1.1615
1.16157
1.16164
1.16171
1.16177
1.16184
1.1619
1.16197
1.16203
1.16209
1.16215
1.16221
1.16227
1.16233
1.16238
1.16244
1.16249
1.16254
1.16259
1.16264
1.16269
1.16274
1.16279
1.16284
1.16288
1.16293
1.16297
1.16302
1.16306
1.1631
1.16315
1.16319
1.16323
1.16328
1.16332
1.16336
1.16341
1.16345
1.1635
1.16354
1.16359
1.16363
1.16368
1.16373
1.16378
1.16383
1.16388
1.16393
1.16399
1.16404
1.1641
1.16416
1.16422
1.16428
1.16434
1.16441
1.16447
1.16454
1.16462
1.16469
1.16477
1.16485
1.16493
1.16501
1.1651
1.16519
1.16528
1.16538
1.16548
1.16558
1.16568
1.16579
1.16591
1.16602
1.16614
1.16627
1.1664
1.16653
1.16667
1.16681
1.16696
1.16711
1.16727
1.16743
1.1676
1.16778
1.16796
1.16815
1.16834
1.16854
1.16875
1.16896
1.16918
1.16941
1.16964
1.16989
1.17013
1.17039
1.17065
1.17092
1.1712
1.17148
1.17177
1.17207
1.17237
1.17267
1.17298
1.1733
1.17361
1.17394
1.17426
1.17458
1.17491
1.17524
1.17556
1.17589
1.17621
1.17653
1.17684
1.17715
1.17746
1.17776
1.17806
1.17834
1.17863
1.1789
1.17917
1.17943
1.17968
1.17993
1.18017
1.1804
1.18063
1.18085
1.18106
1.18127
1.18147
1.18167
1.18186
1.18205
1.18223
1.18241
1.18259
1.18276
1.18292
1.18309
1.18325
1.1834
1.18355
1.1837
1.18384
1.18398
1.18412
1.18425
1.18437
1.18449
1.1846
1.18471
1.18481
1.18491
1.18499
1.18508
1.18515
1.18522
1.18529
1.18535
1.1854
1.18544
1.18548
1.18552
1.18555
1.18558
1.1856
1.18563
1.18564
1.18566
1.18568
1.1857
1.18571
1.18573
1.18575
1.18578
1.1858
1.18584
1.18588
1.18592
1.18598
1.18604
1.18611
1.1862
1.1863
1.18641
1.18653
1.18667
1.18683
1.187
1.1872
1.18741
1.18764
1.1879
1.18818
1.18849
1.18881
1.18917
1.18955
1.18997
1.19041
1.19088
1.19139
1.19193
1.1925
1.19311
1.19376
1.19444
1.19517
1.19594
1.19675
1.19762
1.19853
1.1995
1.20054
1.20163
1.20281
1.20406
1.2054
1.20685
1.20841
1.21011
1.21196
1.21399
1.21622
1.21867
1.22133
1.22418
1.2271
1.22986
1.23199
1.23309
1.23283
1.13786
1.13738
1.13738
1.13778
1.13841
1.13916
1.13992
1.14065
1.1413
1.14188
1.14238
1.14281
1.14319
1.14351
1.14379
1.14402
1.14423
1.1444
1.14456
1.14469
1.1448
1.14489
1.14497
1.14504
1.1451
1.14514
1.14518
1.14521
1.14524
1.14525
1.14526
1.14527
1.14527
1.14527
1.14526
1.14525
1.14524
1.14522
1.1452
1.14518
1.14516
1.14514
1.14511
1.14509
1.14506
1.14504
1.14501
1.14498
1.14496
1.14494
1.14492
1.1449
1.14488
1.14487
1.14486
1.14486
1.14486
1.14487
1.14488
1.14489
1.14492
1.14495
1.14499
1.14503
1.14509
1.14515
1.14522
1.1453
1.14539
1.14549
1.1456
1.14572
1.14585
1.14599
1.14614
1.1463
1.14647
1.14665
1.14684
1.14705
1.14726
1.14748
1.14772
1.14796
1.14821
1.14847
1.14874
1.14901
1.1493
1.14959
1.14988
1.15018
1.15049
1.1508
1.15111
1.15142
1.15174
1.15205
1.15237
1.15268
1.15299
1.1533
1.1536
1.1539
1.1542
1.15449
1.15478
1.15506
1.15533
1.15559
1.15585
1.1561
1.15634
1.15656
1.15678
1.15699
1.15719
1.15738
1.15756
1.15772
1.15788
1.15803
1.15818
1.15831
1.15844
1.15856
1.15867
1.15878
1.15888
1.15898
1.15907
1.15916
1.15925
1.15934
1.15942
1.1595
1.15958
1.15966
1.15974
1.15982
1.15989
1.15997
1.16005
1.16012
1.1602
1.16028
1.16035
1.16043
1.16051
1.16058
1.16066
1.16073
1.16081
1.16088
1.16096
1.16103
1.16111
1.16118
1.16125
1.16133
1.1614
1.16147
1.16154
1.16161
1.16167
1.16174
1.16181
1.16187
1.16194
1.162
1.16206
1.16212
1.16218
1.16224
1.16229
1.16235
1.1624
1.16246
1.16251
1.16256
1.16261
1.16266
1.16271
1.16276
1.16281
1.16285
1.1629
1.16294
1.16299
1.16303
1.16308
1.16312
1.16316
1.16321
1.16325
1.16329
1.16334
1.16338
1.16343
1.16347
1.16352
1.16356
1.16361
1.16366
1.16371
1.16375
1.16381
1.16386
1.16391
1.16396
1.16402
1.16408
1.16413
1.16419
1.16426
1.16432
1.16439
1.16445
1.16452
1.1646
1.16467
1.16475
1.16483
1.16491
1.16499
1.16508
1.16517
1.16526
1.16536
1.16545
1.16556
1.16566
1.16577
1.16588
1.166
1.16612
1.16624
1.16637
1.16651
1.16664
1.16679
1.16693
1.16709
1.16724
1.16741
1.16758
1.16775
1.16793
1.16812
1.16831
1.16851
1.16872
1.16893
1.16915
1.16938
1.16962
1.16986
1.17011
1.17037
1.17063
1.1709
1.17118
1.17146
1.17176
1.17205
1.17235
1.17266
1.17298
1.17329
1.17361
1.17394
1.17426
1.17459
1.17492
1.17525
1.17558
1.17591
1.17623
1.17655
1.17687
1.17718
1.17749
1.17779
1.17809
1.17838
1.17866
1.17893
1.1792
1.17946
1.17971
1.17996
1.1802
1.18043
1.18065
1.18087
1.18108
1.18129
1.18149
1.18169
1.18188
1.18206
1.18225
1.18242
1.1826
1.18277
1.18293
1.18309
1.18325
1.18341
1.18356
1.18371
1.18385
1.18399
1.18412
1.18425
1.18438
1.18449
1.18461
1.18471
1.18481
1.18491
1.185
1.18508
1.18516
1.18522
1.18529
1.18534
1.18539
1.18544
1.18548
1.18551
1.18554
1.18557
1.18559
1.18561
1.18562
1.18564
1.18565
1.18567
1.18568
1.1857
1.18572
1.18574
1.18576
1.1858
1.18583
1.18588
1.18593
1.18599
1.18606
1.18615
1.18624
1.18635
1.18647
1.18661
1.18677
1.18694
1.18713
1.18734
1.18758
1.18783
1.18811
1.18841
1.18874
1.1891
1.18948
1.18989
1.19033
1.1908
1.1913
1.19184
1.19241
1.19302
1.19366
1.19434
1.19506
1.19582
1.19663
1.19748
1.19839
1.19934
1.20035
1.20143
1.20257
1.20378
1.20508
1.20646
1.20795
1.20955
1.21128
1.21314
1.21514
1.21727
1.21952
1.2218
1.22399
1.2259
1.22725
1.22779
1.22756
1.13919
1.13877
1.13869
1.13888
1.13927
1.13978
1.14033
1.14089
1.14142
1.14191
1.14235
1.14274
1.14309
1.14339
1.14365
1.14388
1.14409
1.14426
1.14441
1.14455
1.14466
1.14476
1.14484
1.14492
1.14498
1.14503
1.14507
1.14511
1.14513
1.14515
1.14517
1.14518
1.14518
1.14518
1.14518
1.14517
1.14516
1.14515
1.14513
1.14511
1.14509
1.14507
1.14505
1.14502
1.145
1.14497
1.14495
1.14492
1.1449
1.14488
1.14486
1.14484
1.14482
1.14481
1.1448
1.1448
1.1448
1.14481
1.14482
1.14484
1.14486
1.14489
1.14493
1.14497
1.14503
1.14509
1.14516
1.14524
1.14533
1.14543
1.14555
1.14566
1.1458
1.14594
1.14609
1.14625
1.14642
1.14661
1.1468
1.14701
1.14722
1.14745
1.14768
1.14793
1.14818
1.14844
1.14872
1.14899
1.14928
1.14957
1.14987
1.15018
1.15048
1.1508
1.15111
1.15143
1.15174
1.15206
1.15238
1.15269
1.15301
1.15332
1.15363
1.15393
1.15423
1.15452
1.15481
1.15509
1.15536
1.15563
1.15588
1.15613
1.15637
1.1566
1.15681
1.15702
1.15722
1.1574
1.15758
1.15775
1.1579
1.15805
1.15819
1.15832
1.15845
1.15856
1.15867
1.15878
1.15888
1.15897
1.15906
1.15915
1.15924
1.15932
1.1594
1.15948
1.15956
1.15964
1.15972
1.15979
1.15987
1.15995
1.16002
1.1601
1.16017
1.16025
1.16032
1.1604
1.16048
1.16055
1.16063
1.1607
1.16078
1.16085
1.16093
1.161
1.16107
1.16115
1.16122
1.16129
1.16136
1.16143
1.1615
1.16157
1.16164
1.16171
1.16177
1.16184
1.1619
1.16196
1.16203
1.16209
1.16214
1.1622
1.16226
1.16231
1.16237
1.16242
1.16248
1.16253
1.16258
1.16263
1.16268
1.16272
1.16277
1.16282
1.16286
1.16291
1.16295
1.163
1.16304
1.16309
1.16313
1.16317
1.16322
1.16326
1.16331
1.16335
1.1634
1.16344
1.16349
1.16353
1.16358
1.16363
1.16368
1.16373
1.16378
1.16383
1.16388
1.16394
1.16399
1.16405
1.16411
1.16417
1.16423
1.1643
1.16436
1.16443
1.1645
1.16457
1.16464
1.16472
1.1648
1.16488
1.16497
1.16505
1.16514
1.16523
1.16533
1.16543
1.16553
1.16563
1.16574
1.16585
1.16597
1.16609
1.16621
1.16634
1.16647
1.16661
1.16675
1.1669
1.16705
1.16721
1.16737
1.16754
1.16771
1.16789
1.16808
1.16827
1.16847
1.16868
1.1689
1.16912
1.16935
1.16958
1.16982
1.17007
1.17033
1.1706
1.17087
1.17115
1.17144
1.17173
1.17203
1.17233
1.17265
1.17296
1.17328
1.17361
1.17393
1.17426
1.17459
1.17493
1.17526
1.17559
1.17592
1.17625
1.17657
1.17689
1.17721
1.17752
1.17782
1.17812
1.17841
1.17869
1.17897
1.17924
1.1795
1.17975
1.17999
1.18023
1.18046
1.18068
1.1809
1.18111
1.18131
1.18151
1.18171
1.1819
1.18208
1.18226
1.18244
1.18261
1.18278
1.18294
1.18311
1.18326
1.18342
1.18357
1.18372
1.18386
1.184
1.18413
1.18426
1.18438
1.1845
1.18462
1.18472
1.18482
1.18492
1.18501
1.18509
1.18516
1.18523
1.18529
1.18534
1.18539
1.18544
1.18547
1.1855
1.18553
1.18555
1.18557
1.18559
1.1856
1.18562
1.18563
1.18564
1.18565
1.18566
1.18568
1.1857
1.18572
1.18575
1.18578
1.18583
1.18588
1.18593
1.186
1.18608
1.18617
1.18628
1.1864
1.18654
1.18669
1.18686
1.18705
1.18726
1.18749
1.18774
1.18802
1.18832
1.18864
1.18899
1.18937
1.18978
1.19022
1.19069
1.19119
1.19172
1.19228
1.19288
1.19352
1.1942
1.19491
1.19566
1.19646
1.19729
1.19818
1.19912
1.2001
1.20115
1.20225
1.20342
1.20466
1.20598
1.20738
1.20887
1.21045
1.21213
1.2139
1.21574
1.2176
1.21941
1.22105
1.22238
1.22326
1.22356
1.22324
1.14017
1.13982
1.13969
1.13977
1.14001
1.14035
1.14075
1.14118
1.1416
1.14201
1.14238
1.14273
1.14304
1.14331
1.14356
1.14378
1.14397
1.14414
1.14429
1.14443
1.14454
1.14464
1.14473
1.1448
1.14487
1.14492
1.14497
1.145
1.14503
1.14506
1.14507
1.14509
1.14509
1.1451
1.14509
1.14509
1.14508
1.14507
1.14505
1.14504
1.14502
1.145
1.14498
1.14495
1.14493
1.1449
1.14488
1.14486
1.14483
1.14481
1.14479
1.14478
1.14476
1.14475
1.14474
1.14474
1.14474
1.14474
1.14476
1.14477
1.1448
1.14483
1.14487
1.14491
1.14497
1.14503
1.1451
1.14518
1.14528
1.14538
1.14549
1.14561
1.14574
1.14588
1.14604
1.1462
1.14637
1.14656
1.14676
1.14696
1.14718
1.14741
1.14764
1.14789
1.14815
1.14841
1.14869
1.14897
1.14926
1.14956
1.14986
1.15017
1.15048
1.15079
1.15111
1.15143
1.15175
1.15207
1.15239
1.15271
1.15302
1.15334
1.15365
1.15395
1.15425
1.15455
1.15484
1.15512
1.15539
1.15566
1.15592
1.15617
1.1564
1.15663
1.15685
1.15705
1.15725
1.15744
1.15761
1.15777
1.15793
1.15807
1.15821
1.15834
1.15846
1.15857
1.15868
1.15878
1.15888
1.15897
1.15906
1.15914
1.15923
1.15931
1.15939
1.15946
1.15954
1.15962
1.15969
1.15977
1.15984
1.15992
1.15999
1.16007
1.16014
1.16022
1.16029
1.16037
1.16044
1.16052
1.16059
1.16067
1.16074
1.16082
1.16089
1.16097
1.16104
1.16111
1.16118
1.16126
1.16133
1.1614
1.16147
1.16153
1.1616
1.16167
1.16173
1.1618
1.16186
1.16193
1.16199
1.16205
1.16211
1.16216
1.16222
1.16228
1.16233
1.16238
1.16244
1.16249
1.16254
1.16259
1.16264
1.16268
1.16273
1.16278
1.16283
1.16287
1.16292
1.16296
1.16301
1.16305
1.16309
1.16314
1.16318
1.16323
1.16327
1.16332
1.16336
1.16341
1.16345
1.1635
1.16355
1.1636
1.16365
1.1637
1.16375
1.1638
1.16385
1.16391
1.16396
1.16402
1.16408
1.16414
1.1642
1.16427
1.16433
1.1644
1.16447
1.16454
1.16462
1.16469
1.16477
1.16485
1.16494
1.16502
1.16511
1.1652
1.1653
1.1654
1.1655
1.1656
1.16571
1.16582
1.16594
1.16605
1.16618
1.1663
1.16644
1.16657
1.16671
1.16686
1.16701
1.16717
1.16733
1.1675
1.16767
1.16785
1.16804
1.16823
1.16843
1.16864
1.16885
1.16907
1.1693
1.16954
1.16978
1.17003
1.17029
1.17056
1.17083
1.17111
1.1714
1.1717
1.172
1.17231
1.17262
1.17294
1.17326
1.17359
1.17392
1.17425
1.17459
1.17493
1.17526
1.1756
1.17593
1.17626
1.17659
1.17692
1.17723
1.17755
1.17785
1.17815
1.17844
1.17873
1.179
1.17927
1.17953
1.17978
1.18003
1.18026
1.18049
1.18071
1.18093
1.18114
1.18134
1.18154
1.18173
1.18192
1.1821
1.18228
1.18245
1.18262
1.18279
1.18296
1.18312
1.18328
1.18343
1.18358
1.18373
1.18387
1.18401
1.18414
1.18427
1.1844
1.18452
1.18463
1.18474
1.18484
1.18493
1.18502
1.1851
1.18517
1.18524
1.1853
1.18535
1.1854
1.18544
1.18547
1.1855
1.18552
1.18554
1.18556
1.18557
1.18559
1.18559
1.1856
1.18561
1.18562
1.18563
1.18564
1.18566
1.18568
1.1857
1.18573
1.18577
1.18582
1.18587
1.18594
1.18601
1.1861
1.1862
1.18632
1.18645
1.1866
1.18677
1.18695
1.18716
1.18739
1.18764
1.18791
1.18821
1.18853
1.18888
1.18925
1.18965
1.19009
1.19055
1.19104
1.19157
1.19213
1.19272
1.19335
1.19402
1.19472
1.19546
1.19624
1.19706
1.19793
1.19884
1.19979
1.2008
1.20186
1.20298
1.20416
1.2054
1.20671
1.20808
1.20953
1.21103
1.21257
1.21414
1.21567
1.2171
1.21834
1.2193
1.21988
1.22002
1.21968
1.14091
1.14061
1.14048
1.14049
1.14063
1.14086
1.14115
1.14148
1.14181
1.14214
1.14246
1.14276
1.14303
1.14328
1.14351
1.14371
1.14389
1.14406
1.1442
1.14433
1.14444
1.14454
1.14463
1.1447
1.14477
1.14482
1.14487
1.14491
1.14494
1.14497
1.14499
1.145
1.14501
1.14502
1.14502
1.14501
1.14501
1.145
1.14498
1.14497
1.14495
1.14493
1.14491
1.14489
1.14486
1.14484
1.14482
1.14479
1.14477
1.14475
1.14473
1.14471
1.1447
1.14469
1.14468
1.14467
1.14468
1.14468
1.14469
1.14471
1.14473
1.14476
1.1448
1.14485
1.1449
1.14497
1.14504
1.14512
1.14521
1.14531
1.14542
1.14555
1.14568
1.14582
1.14598
1.14614
1.14632
1.1465
1.1467
1.14691
1.14713
1.14736
1.1476
1.14784
1.1481
1.14837
1.14865
1.14894
1.14923
1.14953
1.14983
1.15015
1.15046
1.15078
1.1511
1.15142
1.15175
1.15207
1.1524
1.15272
1.15304
1.15335
1.15367
1.15397
1.15428
1.15457
1.15487
1.15515
1.15543
1.15569
1.15595
1.1562
1.15644
1.15667
1.15689
1.15709
1.15729
1.15747
1.15764
1.1578
1.15795
1.1581
1.15823
1.15835
1.15847
1.15858
1.15868
1.15878
1.15888
1.15896
1.15905
1.15913
1.15921
1.15929
1.15937
1.15945
1.15952
1.1596
1.15967
1.15974
1.15982
1.15989
1.15996
1.16004
1.16011
1.16019
1.16026
1.16033
1.16041
1.16048
1.16056
1.16063
1.16071
1.16078
1.16085
1.16093
1.161
1.16107
1.16115
1.16122
1.16129
1.16136
1.16143
1.16149
1.16156
1.16163
1.16169
1.16176
1.16182
1.16188
1.16194
1.162
1.16206
1.16212
1.16218
1.16223
1.16229
1.16234
1.16239
1.16244
1.1625