# vtk DataFile Version 2.0
LBE mesh
ASCII
DATASET STRUCTURED_POINTS
DIMENSIONS 400 100 1
ASPECT_RATIO 1 1 1
ORIGIN 0 0 0
POINT_DATA 40000
SCALARS rho double 1
LOOKUP_TABLE default
1.03805
1.09329
1.10982
1.11398
1.11616
1.11787
1.11906
1.11984
1.12037
1.12076
1.12106
1.12129
1.12146
1.12161
1.12172
1.1218
1.12187
1.12193
1.12197
1.122
1.12203
1.12205
1.12206
1.12207
1.12207
1.12208
1.12207
1.12207
1.12207
1.12206
1.12206
1.12205
1.12205
1.12204
1.12204
1.12204
1.12204
1.12205
1.12205
1.12206
1.12207
1.12209
1.12211
1.12213
1.12216
1.12219
1.12223
1.12227
1.12232
1.12237
1.12243
1.1225
1.12257
1.12265
1.12274
1.12284
1.12294
1.12305
1.12317
1.1233
1.12344
1.12359
1.12374
1.1239
1.12408
1.12426
1.12445
1.12465
1.12486
1.12507
1.1253
1.12554
1.12578
1.12603
1.12629
1.12656
1.12684
1.12712
1.12741
1.12771
1.12802
1.12833
1.12865
1.12897
1.1293
1.12963
1.12997
1.13031
1.13066
1.13101
1.13136
1.13171
1.13206
1.13241
1.13276
1.13311
1.13345
1.1338
1.13413
1.13447
1.1348
1.13512
1.13544
1.13575
1.13606
1.13635
1.13664
1.13692
1.13719
1.13744
1.13769
1.13793
1.13816
1.13837
1.13857
1.13877
1.13895
1.13912
1.13927
1.13942
1.13956
1.13968
1.13979
1.1399
1.13999
1.14008
1.14016
1.14023
1.14029
1.14035
1.1404
1.14045
1.14049
1.14052
1.14056
1.14059
1.14062
1.14064
1.14067
1.14069
1.14072
1.14074
1.14076
1.14079
1.14081
1.14084
1.14087
1.1409
1.14093
1.14097
1.14101
1.14105
1.14109
1.14114
1.14119
1.14124
1.14129
1.14136
1.14142
1.14149
1.14156
1.14163
1.14171
1.14179
1.14188
1.14197
1.14206
1.14215
1.14225
1.14235
1.14246
1.14257
1.14268
1.14279
1.14291
1.14302
1.14314
1.14327
1.14339
1.14352
1.14364
1.14377
1.1439
1.14403
1.14416
1.14429
1.14442
1.14456
1.14469
1.14482
1.14495
1.14508
1.14521
1.14535
1.14548
1.14561
1.14573
1.14586
1.14599
1.14612
1.14624
1.14636
1.14649
1.14661
1.14673
1.14685
1.14696
1.14708
1.14719
1.14731
1.14742
1.14753
1.14764
1.14775
1.14785
1.14796
1.14807
1.14817
1.14827
1.14838
1.14848
1.14858
1.14869
1.14879
1.14889
1.149
1.1491
1.14921
1.14932
1.14943
1.14954
1.14966
1.14978
1.14991
1.15003
1.15017
1.15031
1.15045
1.1506
1.15075
1.15092
1.15109
1.15126
1.15145
1.15164
1.15185
1.15206
1.15229
1.15252
1.15276
1.15302
1.15328
1.15356
1.15385
1.15415
1.15447
1.15479
1.15513
1.15548
1.15584
1.15622
1.1566
1.157
1.15741
1.15783
1.15826
1.1587
1.15915
1.1596
1.16007
1.16054
1.16101
1.1615
1.16198
1.16247
1.16296
1.16345
1.16394
1.16443
1.16492
1.1654
1.16588
1.16635
1.16681
1.16727
1.16772
1.16816
1.16859
1.16901
1.16941
1.16981
1.1702
1.17057
1.17093
1.17128
1.17162
1.17194
1.17225
1.17255
1.17284
1.17312
1.17339
1.17364
1.17388
1.17412
1.17434
1.17455
1.17475
1.17494
1.17513
1.1753
1.17546
1.17561
1.17576
1.17589
1.17602
1.17614
1.17625
1.17635
1.17644
1.17653
1.17661
1.17668
1.17674
1.1768
1.17685
1.1769
1.17694
1.17697
1.177
1.17703
1.17706
1.17708
1.1771
1.17713
1.17715
1.17717
1.17719
1.17722
1.17725
1.17728
1.17732
1.17737
1.17742
1.17748
1.17755
1.17763
1.17772
1.17782
1.17794
1.17807
1.17821
1.17837
1.17855
1.17875
1.17896
1.1792
1.17946
1.17974
1.18004
1.18037
1.18072
1.1811
1.18151
1.18195
1.18241
1.18291
1.18344
1.184
1.1846
1.18522
1.18589
1.18659
1.18733
1.18811
1.18893
1.1898
1.19071
1.19167
1.19269
1.19375
1.19488
1.19608
1.19735
1.19871
1.20016
1.20172
1.20342
1.20526
1.2073
1.20957
1.21215
1.21511
1.2186
1.22282
1.22825
1.23594
1.24684
1.26091
1.2856
1.07937
1.0909
1.1017
1.10969
1.11391
1.11618
1.11763
1.11866
1.11942
1.11998
1.1204
1.12072
1.12097
1.12117
1.12134
1.12147
1.12157
1.12166
1.12172
1.12178
1.12182
1.12186
1.12189
1.12191
1.12192
1.12194
1.12194
1.12195
1.12195
1.12196
1.12196
1.12196
1.12196
1.12196
1.12196
1.12197
1.12197
1.12198
1.12199
1.122
1.12201
1.12203
1.12205
1.12208
1.12211
1.12215
1.12219
1.12223
1.12228
1.12234
1.1224
1.12247
1.12255
1.12263
1.12272
1.12282
1.12292
1.12304
1.12316
1.12329
1.12343
1.12358
1.12373
1.1239
1.12407
1.12426
1.12445
1.12465
1.12486
1.12508
1.1253
1.12554
1.12579
1.12604
1.1263
1.12657
1.12685
1.12713
1.12743
1.12773
1.12803
1.12835
1.12866
1.12899
1.12932
1.12965
1.12999
1.13033
1.13068
1.13102
1.13137
1.13172
1.13207
1.13242
1.13277
1.13312
1.13347
1.13381
1.13415
1.13448
1.13481
1.13513
1.13545
1.13576
1.13606
1.13635
1.13664
1.13692
1.13718
1.13744
1.13769
1.13792
1.13815
1.13836
1.13856
1.13875
1.13893
1.1391
1.13926
1.1394
1.13954
1.13966
1.13977
1.13988
1.13997
1.14006
1.14014
1.14021
1.14027
1.14033
1.14038
1.14043
1.14047
1.14051
1.14054
1.14057
1.1406
1.14063
1.14065
1.14068
1.1407
1.14073
1.14075
1.14078
1.14081
1.14083
1.14086
1.14089
1.14093
1.14096
1.141
1.14104
1.14109
1.14114
1.14119
1.14124
1.1413
1.14136
1.14142
1.14149
1.14156
1.14164
1.14171
1.1418
1.14188
1.14197
1.14206
1.14216
1.14226
1.14236
1.14247
1.14258
1.14269
1.1428
1.14291
1.14303
1.14315
1.14327
1.1434
1.14352
1.14365
1.14378
1.14391
1.14404
1.14417
1.1443
1.14443
1.14456
1.14469
1.14483
1.14496
1.14509
1.14522
1.14535
1.14548
1.14561
1.14574
1.14587
1.14599
1.14612
1.14624
1.14637
1.14649
1.14661
1.14673
1.14685
1.14697
1.14708
1.1472
1.14731
1.14742
1.14753
1.14764
1.14775
1.14786
1.14796
1.14807
1.14817
1.14828
1.14838
1.14848
1.14859
1.14869
1.14879
1.1489
1.149
1.14911
1.14922
1.14933
1.14944
1.14955
1.14967
1.14979
1.14992
1.15004
1.15018
1.15032
1.15046
1.15061
1.15077
1.15093
1.1511
1.15128
1.15147
1.15167
1.15187
1.15209
1.15231
1.15254
1.15279
1.15305
1.15331
1.15359
1.15388
1.15419
1.1545
1.15483
1.15517
1.15552
1.15588
1.15625
1.15664
1.15704
1.15745
1.15787
1.1583
1.15874
1.15918
1.15964
1.1601
1.16057
1.16105
1.16153
1.16201
1.1625
1.16299
1.16348
1.16397
1.16445
1.16494
1.16542
1.16589
1.16636
1.16682
1.16728
1.16772
1.16816
1.16859
1.169
1.16941
1.1698
1.17019
1.17056
1.17092
1.17126
1.1716
1.17192
1.17223
1.17253
1.17282
1.1731
1.17336
1.17362
1.17386
1.17409
1.17431
1.17452
1.17473
1.17492
1.1751
1.17527
1.17543
1.17559
1.17573
1.17587
1.17599
1.17611
1.17622
1.17632
1.17642
1.1765
1.17658
1.17665
1.17671
1.17677
1.17682
1.17687
1.17691
1.17695
1.17698
1.17701
1.17704
1.17706
1.17708
1.1771
1.17713
1.17715
1.17718
1.1772
1.17723
1.17727
1.17731
1.17736
1.17741
1.17748
1.17755
1.17763
1.17772
1.17783
1.17794
1.17808
1.17822
1.17839
1.17857
1.17877
1.17899
1.17923
1.17949
1.17977
1.18008
1.18041
1.18077
1.18115
1.18157
1.18201
1.18248
1.18298
1.18351
1.18408
1.18468
1.18531
1.18598
1.18669
1.18744
1.18822
1.18905
1.18993
1.19085
1.19181
1.19284
1.19392
1.19506
1.19627
1.19756
1.19894
1.20041
1.20201
1.20374
1.20564
1.20774
1.2101
1.21278
1.2159
1.21961
1.22418
1.22994
1.23732
1.24786
1.26685
1.29796
1.09746
1.09765
1.10396
1.10912
1.11246
1.11484
1.11655
1.11776
1.11864
1.1193
1.11981
1.12021
1.12052
1.12078
1.12098
1.12115
1.12128
1.12139
1.12149
1.12156
1.12162
1.12167
1.12171
1.12175
1.12178
1.1218
1.12182
1.12183
1.12184
1.12185
1.12186
1.12186
1.12187
1.12188
1.12188
1.12189
1.1219
1.12191
1.12192
1.12194
1.12196
1.12198
1.122
1.12203
1.12206
1.1221
1.12214
1.12219
1.12224
1.1223
1.12237
1.12244
1.12252
1.1226
1.12269
1.12279
1.1229
1.12302
1.12314
1.12327
1.12341
1.12356
1.12372
1.12388
1.12406
1.12424
1.12444
1.12464
1.12485
1.12507
1.1253
1.12554
1.12578
1.12604
1.1263
1.12657
1.12685
1.12714
1.12743
1.12773
1.12804
1.12835
1.12867
1.129
1.12933
1.12966
1.13
1.13034
1.13069
1.13104
1.13139
1.13174
1.13209
1.13244
1.13279
1.13313
1.13348
1.13382
1.13416
1.13449
1.13482
1.13514
1.13546
1.13577
1.13607
1.13636
1.13665
1.13692
1.13719
1.13744
1.13769
1.13792
1.13815
1.13836
1.13856
1.13875
1.13893
1.13909
1.13925
1.13939
1.13953
1.13965
1.13976
1.13987
1.13996
1.14005
1.14012
1.14019
1.14026
1.14031
1.14037
1.14041
1.14045
1.14049
1.14053
1.14056
1.14059
1.14062
1.14064
1.14067
1.1407
1.14072
1.14075
1.14077
1.1408
1.14083
1.14086
1.14089
1.14093
1.14096
1.141
1.14105
1.14109
1.14114
1.14119
1.14125
1.1413
1.14136
1.14143
1.1415
1.14157
1.14165
1.14172
1.14181
1.14189
1.14198
1.14208
1.14217
1.14227
1.14237
1.14248
1.14259
1.1427
1.14281
1.14293
1.14305
1.14317
1.14329
1.14341
1.14354
1.14366
1.14379
1.14392
1.14405
1.14418
1.14431
1.14444
1.14457
1.1447
1.14484
1.14497
1.1451
1.14523
1.14536
1.14549
1.14562
1.14575
1.14588
1.146
1.14613
1.14625
1.14638
1.1465
1.14662
1.14674
1.14686
1.14697
1.14709
1.1472
1.14732
1.14743
1.14754
1.14765
1.14776
1.14786
1.14797
1.14807
1.14818
1.14828
1.14839
1.14849
1.14859
1.14869
1.1488
1.1489
1.14901
1.14912
1.14922
1.14933
1.14945
1.14956
1.14968
1.1498
1.14993
1.15006
1.15019
1.15033
1.15047
1.15063
1.15078
1.15095
1.15112
1.1513
1.15149
1.15168
1.15189
1.1521
1.15233
1.15257
1.15281
1.15307
1.15334
1.15362
1.15391
1.15421
1.15453
1.15485
1.15519
1.15555
1.15591
1.15629
1.15667
1.15707
1.15748
1.1579
1.15833
1.15877
1.15922
1.15967
1.16014
1.16061
1.16108
1.16156
1.16205
1.16253
1.16302
1.16351
1.16399
1.16448
1.16496
1.16544
1.16591
1.16638
1.16684
1.16729
1.16774
1.16817
1.1686
1.16901
1.16941
1.16981
1.17019
1.17055
1.17091
1.17126
1.17159
1.17191
1.17222
1.17252
1.17281
1.17308
1.17335
1.1736
1.17384
1.17407
1.17429
1.1745
1.1747
1.1749
1.17508
1.17525
1.17541
1.17556
1.17571
1.17584
1.17597
1.17609
1.1762
1.1763
1.17639
1.17648
1.17656
1.17663
1.17669
1.17675
1.1768
1.17685
1.17689
1.17692
1.17696
1.17699
1.17701
1.17704
1.17706
1.17708
1.17711
1.17713
1.17716
1.17719
1.17722
1.17725
1.1773
1.17734
1.1774
1.17746
1.17754
1.17762
1.17771
1.17782
1.17794
1.17807
1.17822
1.17839
1.17857
1.17877
1.17899
1.17924
1.1795
1.17979
1.1801
1.18043
1.18079
1.18118
1.18159
1.18204
1.18251
1.18302
1.18355
1.18412
1.18473
1.18536
1.18604
1.18675
1.1875
1.18829
1.18912
1.19
1.19092
1.1919
1.19293
1.19401
1.19516
1.19638
1.19767
1.19906
1.20054
1.20215
1.20389
1.2058
1.20792
1.21029
1.21299
1.21611
1.21977
1.22418
1.2297
1.23685
1.24573
1.25535
1.26545
1.10575
1.10504
1.10718
1.10975
1.11237
1.11445
1.11599
1.11716
1.11807
1.11878
1.11934
1.11978
1.12013
1.12042
1.12066
1.12086
1.12102
1.12115
1.12126
1.12136
1.12143
1.1215
1.12155
1.1216
1.12163
1.12167
1.12169
1.12171
1.12173
1.12175
1.12176
1.12177
1.12178
1.12179
1.1218
1.12182
1.12183
1.12184
1.12186
1.12188
1.1219
1.12192
1.12195
1.12198
1.12202
1.12206
1.1221
1.12215
1.1222
1.12226
1.12233
1.1224
1.12248
1.12257
1.12266
1.12276
1.12287
1.12299
1.12311
1.12324
1.12339
1.12354
1.12369
1.12386
1.12404
1.12422
1.12442
1.12462
1.12483
1.12506
1.12529
1.12552
1.12577
1.12603
1.12629
1.12656
1.12684
1.12713
1.12743
1.12773
1.12804
1.12835
1.12867
1.129
1.12933
1.12967
1.13001
1.13035
1.1307
1.13104
1.13139
1.13175
1.1321
1.13245
1.1328
1.13315
1.13349
1.13384
1.13417
1.13451
1.13484
1.13516
1.13547
1.13578
1.13608
1.13638
1.13666
1.13694
1.1372
1.13746
1.1377
1.13793
1.13816
1.13837
1.13857
1.13876
1.13893
1.1391
1.13925
1.1394
1.13953
1.13965
1.13976
1.13986
1.13996
1.14004
1.14012
1.14019
1.14025
1.14031
1.14036
1.14041
1.14045
1.14049
1.14052
1.14055
1.14058
1.14061
1.14064
1.14067
1.14069
1.14072
1.14075
1.14077
1.1408
1.14083
1.14086
1.1409
1.14093
1.14097
1.14101
1.14105
1.1411
1.14115
1.1412
1.14126
1.14131
1.14138
1.14144
1.14151
1.14158
1.14166
1.14174
1.14182
1.14191
1.142
1.14209
1.14219
1.14229
1.14239
1.1425
1.14261
1.14272
1.14283
1.14295
1.14306
1.14318
1.14331
1.14343
1.14355
1.14368
1.14381
1.14394
1.14407
1.1442
1.14433
1.14446
1.14459
1.14472
1.14485
1.14498
1.14511
1.14525
1.14538
1.1455
1.14563
1.14576
1.14589
1.14602
1.14614
1.14626
1.14639
1.14651
1.14663
1.14675
1.14687
1.14698
1.1471
1.14721
1.14733
1.14744
1.14755
1.14766
1.14777
1.14787
1.14798
1.14808
1.14819
1.14829
1.1484
1.1485
1.1486
1.1487
1.14881
1.14891
1.14902
1.14913
1.14923
1.14934
1.14946
1.14957
1.14969
1.14981
1.14994
1.15007
1.1502
1.15034
1.15049
1.15064
1.1508
1.15096
1.15113
1.15131
1.1515
1.1517
1.15191
1.15212
1.15235
1.15258
1.15283
1.15309
1.15336
1.15364
1.15393
1.15423
1.15455
1.15488
1.15522
1.15557
1.15593
1.15631
1.1567
1.1571
1.15751
1.15793
1.15836
1.1588
1.15925
1.1597
1.16017
1.16064
1.16111
1.16159
1.16208
1.16256
1.16305
1.16354
1.16402
1.16451
1.16499
1.16547
1.16594
1.1664
1.16686
1.16731
1.16776
1.16819
1.16861
1.16902
1.16942
1.16981
1.17019
1.17056
1.17091
1.17126
1.17159
1.17191
1.17222
1.17251
1.1728
1.17307
1.17333
1.17359
1.17383
1.17406
1.17428
1.17449
1.17469
1.17488
1.17506
1.17523
1.17539
1.17555
1.17569
1.17583
1.17595
1.17607
1.17618
1.17628
1.17637
1.17646
1.17654
1.17661
1.17667
1.17673
1.17678
1.17683
1.17687
1.17691
1.17694
1.17697
1.17699
1.17702
1.17704
1.17706
1.17709
1.17711
1.17714
1.17717
1.1772
1.17723
1.17728
1.17733
1.17738
1.17744
1.17752
1.1776
1.1777
1.1778
1.17792
1.17806
1.17821
1.17837
1.17856
1.17876
1.17898
1.17923
1.17949
1.17978
1.18009
1.18043
1.18079
1.18118
1.18159
1.18204
1.18252
1.18302
1.18356
1.18413
1.18474
1.18538
1.18605
1.18677
1.18752
1.18831
1.18915
1.19003
1.19095
1.19193
1.19295
1.19404
1.19519
1.1964
1.1977
1.19908
1.20056
1.20215
1.20388
1.20577
1.20785
1.21017
1.21279
1.21578
1.21924
1.22328
1.228
1.23347
1.23962
1.24461
1.24491
1.10986
1.10937
1.11002
1.11142
1.11308
1.11457
1.11585
1.1169
1.11775
1.11844
1.119
1.11945
1.11983
1.12014
1.12039
1.12061
1.12078
1.12094
1.12106
1.12117
1.12126
1.12134
1.1214
1.12145
1.1215
1.12154
1.12157
1.1216
1.12162
1.12165
1.12167
1.12168
1.1217
1.12171
1.12173
1.12174
1.12176
1.12178
1.1218
1.12182
1.12184
1.12187
1.1219
1.12193
1.12197
1.12201
1.12205
1.1221
1.12216
1.12222
1.12229
1.12236
1.12244
1.12253
1.12262
1.12273
1.12284
1.12295
1.12308
1.12321
1.12335
1.1235
1.12366
1.12383
1.12401
1.1242
1.12439
1.1246
1.12481
1.12503
1.12526
1.1255
1.12575
1.12601
1.12627
1.12655
1.12683
1.12712
1.12741
1.12771
1.12802
1.12834
1.12866
1.12899
1.12932
1.12966
1.13
1.13035
1.1307
1.13105
1.1314
1.13175
1.13211
1.13246
1.13281
1.13316
1.13351
1.13385
1.13419
1.13453
1.13485
1.13518
1.13549
1.1358
1.1361
1.1364
1.13668
1.13696
1.13722
1.13748
1.13772
1.13796
1.13818
1.13839
1.13859
1.13877
1.13895
1.13911
1.13927
1.13941
1.13954
1.13966
1.13977
1.13987
1.13996
1.14005
1.14012
1.14019
1.14025
1.14031
1.14036
1.14041
1.14045
1.14049
1.14052
1.14055
1.14058
1.14061
1.14064
1.14067
1.1407
1.14072
1.14075
1.14078
1.14081
1.14084
1.14087
1.1409
1.14094
1.14098
1.14102
1.14106
1.14111
1.14116
1.14121
1.14127
1.14133
1.14139
1.14146
1.14153
1.1416
1.14168
1.14176
1.14184
1.14193
1.14202
1.14211
1.14221
1.14231
1.14241
1.14252
1.14263
1.14274
1.14285
1.14297
1.14309
1.14321
1.14333
1.14345
1.14358
1.1437
1.14383
1.14396
1.14409
1.14422
1.14435
1.14448
1.14461
1.14474
1.14487
1.145
1.14513
1.14526
1.1454
1.14552
1.14565
1.14578
1.14591
1.14603
1.14616
1.14628
1.14641
1.14653
1.14665
1.14677
1.14688
1.147
1.14712
1.14723
1.14734
1.14745
1.14756
1.14767
1.14778
1.14789
1.14799
1.1481
1.1482
1.1483
1.14841
1.14851
1.14861
1.14872
1.14882
1.14893
1.14903
1.14914
1.14925
1.14936
1.14947
1.14958
1.1497
1.14982
1.14995
1.15008
1.15022
1.15036
1.1505
1.15065
1.15081
1.15097
1.15115
1.15133
1.15152
1.15171
1.15192
1.15214
1.15236
1.1526
1.15284
1.1531
1.15337
1.15365
1.15394
1.15425
1.15457
1.15489
1.15523
1.15559
1.15595
1.15633
1.15672
1.15712
1.15753
1.15795
1.15838
1.15882
1.15927
1.15973
1.16019
1.16066
1.16114
1.16162
1.1621
1.16259
1.16308
1.16357
1.16405
1.16454
1.16502
1.16549
1.16597
1.16643
1.16689
1.16734
1.16778
1.16821
1.16863
1.16904
1.16944
1.16983
1.17021
1.17057
1.17092
1.17127
1.1716
1.17191
1.17222
1.17251
1.1728
1.17307
1.17333
1.17358
1.17382
1.17405
1.17427
1.17448
1.17468
1.17487
1.17505
1.17522
1.17538
1.17553
1.17568
1.17581
1.17594
1.17606
1.17617
1.17627
1.17636
1.17645
1.17652
1.17659
1.17666
1.17672
1.17677
1.17681
1.17685
1.17689
1.17692
1.17695
1.17698
1.177
1.17702
1.17705
1.17707
1.17709
1.17712
1.17714
1.17718
1.17721
1.17725
1.1773
1.17736
1.17742
1.17749
1.17757
1.17767
1.17778
1.17789
1.17803
1.17818
1.17834
1.17853
1.17873
1.17895
1.1792
1.17946
1.17975
1.18006
1.18039
1.18076
1.18115
1.18156
1.18201
1.18249
1.18299
1.18353
1.18411
1.18471
1.18535
1.18603
1.18674
1.18749
1.18829
1.18912
1.19
1.19092
1.19189
1.19292
1.194
1.19514
1.19635
1.19763
1.19899
1.20045
1.20201
1.2037
1.20554
1.20755
1.20976
1.21223
1.21499
1.21809
1.22157
1.2254
1.22932
1.23287
1.23537
1.23472
1.11256
1.1121
1.11227
1.11301
1.11399
1.11504
1.11602
1.11689
1.11763
1.11826
1.11878
1.11923
1.1196
1.11991
1.12017
1.1204
1.12059
1.12075
1.12088
1.121
1.1211
1.12119
1.12126
1.12132
1.12137
1.12142
1.12146
1.12149
1.12152
1.12155
1.12157
1.1216
1.12161
1.12163
1.12165
1.12167
1.12169
1.12171
1.12173
1.12176
1.12178
1.12181
1.12184
1.12188
1.12192
1.12196
1.122
1.12206
1.12211
1.12218
1.12225
1.12232
1.1224
1.12249
1.12258
1.12269
1.1228
1.12291
1.12304
1.12317
1.12332
1.12347
1.12363
1.1238
1.12397
1.12416
1.12436
1.12456
1.12478
1.125
1.12523
1.12547
1.12572
1.12598
1.12625
1.12652
1.1268
1.12709
1.12739
1.12769
1.12801
1.12832
1.12865
1.12898
1.12931
1.12965
1.13
1.13034
1.13069
1.13105
1.1314
1.13176
1.13211
1.13247
1.13282
1.13317
1.13352
1.13387
1.13421
1.13455
1.13488
1.1352
1.13552
1.13583
1.13613
1.13643
1.13671
1.13699
1.13725
1.13751
1.13775
1.13798
1.13821
1.13842
1.13861
1.1388
1.13898
1.13914
1.13929
1.13943
1.13956
1.13968
1.13979
1.13989
1.13998
1.14006
1.14013
1.1402
1.14026
1.14032
1.14037
1.14041
1.14045
1.14049
1.14053
1.14056
1.14059
1.14062
1.14065
1.14068
1.1407
1.14073
1.14076
1.14079
1.14082
1.14085
1.14088
1.14092
1.14095
1.14099
1.14104
1.14108
1.14113
1.14118
1.14123
1.14129
1.14135
1.14141
1.14148
1.14155
1.14163
1.1417
1.14178
1.14187
1.14196
1.14205
1.14214
1.14224
1.14234
1.14244
1.14255
1.14266
1.14277
1.14288
1.143
1.14312
1.14323
1.14336
1.14348
1.1436
1.14373
1.14386
1.14399
1.14412
1.14424
1.14438
1.14451
1.14464
1.14477
1.1449
1.14503
1.14516
1.14529
1.14542
1.14555
1.14568
1.1458
1.14593
1.14606
1.14618
1.14631
1.14643
1.14655
1.14667
1.14679
1.14691
1.14702
1.14714
1.14725
1.14736
1.14747
1.14758
1.14769
1.1478
1.14791
1.14801
1.14812
1.14822
1.14832
1.14843
1.14853
1.14863
1.14873
1.14884
1.14894
1.14905
1.14915
1.14926
1.14937
1.14948
1.1496
1.14972
1.14984
1.14996
1.15009
1.15023
1.15037
1.15051
1.15067
1.15082
1.15099
1.15116
1.15134
1.15153
1.15172
1.15193
1.15215
1.15237
1.15261
1.15286
1.15311
1.15338
1.15366
1.15396
1.15426
1.15458
1.1549
1.15525
1.1556
1.15596
1.15634
1.15673
1.15713
1.15754
1.15796
1.1584
1.15884
1.15929
1.15975
1.16021
1.16068
1.16116
1.16164
1.16213
1.16262
1.16311
1.1636
1.16408
1.16457
1.16505
1.16553
1.166
1.16646
1.16692
1.16737
1.16781
1.16824
1.16866
1.16907
1.16947
1.16985
1.17023
1.17059
1.17094
1.17128
1.17161
1.17192
1.17223
1.17252
1.1728
1.17307
1.17333
1.17358
1.17382
1.17405
1.17427
1.17447
1.17467
1.17486
1.17504
1.17521
1.17537
1.17553
1.17567
1.1758
1.17593
1.17605
1.17616
1.17626
1.17635
1.17644
1.17651
1.17658
1.17665
1.1767
1.17676
1.1768
1.17684
1.17688
1.17691
1.17693
1.17696
1.17698
1.177
1.17703
1.17705
1.17707
1.17709
1.17712
1.17715
1.17719
1.17723
1.17727
1.17733
1.17739
1.17746
1.17754
1.17763
1.17774
1.17786
1.17799
1.17814
1.1783
1.17848
1.17868
1.17891
1.17915
1.17941
1.1797
1.18001
1.18034
1.1807
1.18109
1.18151
1.18195
1.18243
1.18294
1.18348
1.18405
1.18465
1.18529
1.18597
1.18668
1.18743
1.18822
1.18905
1.18992
1.19084
1.19181
1.19282
1.19389
1.19502
1.19621
1.19746
1.1988
1.20022
1.20174
1.20337
1.20513
1.20703
1.20911
1.21137
1.21385
1.21653
1.21939
1.22232
1.22509
1.22723
1.22836
1.22812
1.11444
1.11397
1.11397
1.11434
1.11493
1.11565
1.11637
1.11705
1.11767
1.11821
1.11869
1.1191
1.11945
1.11975
1.12001
1.12023
1.12043
1.12059
1.12073
1.12086
1.12096
1.12105
1.12113
1.1212
1.12126
1.12131
1.12136
1.12139
1.12143
1.12146
1.12149
1.12151
1.12154
1.12156
1.12158
1.1216
1.12162
1.12165
1.12167
1.1217
1.12173
1.12176
1.12179
1.12183
1.12186
1.12191
1.12196
1.12201
1.12207
1.12213
1.1222
1.12228
1.12236
1.12245
1.12254
1.12264
1.12275
1.12287
1.123
1.12313
1.12327
1.12343
1.12359
1.12375
1.12393
1.12412
1.12432
1.12452
1.12474
1.12496
1.12519
1.12543
1.12568
1.12594
1.12621
1.12649
1.12677
1.12706
1.12736
1.12767
1.12798
1.1283
1.12862
1.12896
1.12929
1.12964
1.12998
1.13033
1.13068
1.13104
1.1314
1.13176
1.13211
1.13247
1.13283
1.13318
1.13353
1.13388
1.13423
1.13457
1.1349
1.13522
1.13554
1.13586
1.13616
1.13646
1.13674
1.13702
1.13728
1.13754
1.13779
1.13802
1.13824
1.13845
1.13865
1.13884
1.13901
1.13917
1.13932
1.13946
1.13959
1.13971
1.13981
1.13991
1.14
1.14008
1.14015
1.14022
1.14028
1.14033
1.14038
1.14043
1.14047
1.14051
1.14054
1.14057
1.1406
1.14063
1.14066
1.14069
1.14072
1.14074
1.14077
1.1408
1.14083
1.14087
1.1409
1.14094
1.14097
1.14101
1.14106
1.1411
1.14115
1.1412
1.14126
1.14132
1.14138
1.14144
1.14151
1.14158
1.14165
1.14173
1.14181
1.1419
1.14199
1.14208
1.14217
1.14227
1.14237
1.14247
1.14258
1.14269
1.1428
1.14291
1.14303
1.14315
1.14327
1.14339
1.14351
1.14364
1.14376
1.14389
1.14402
1.14415
1.14428
1.14441
1.14454
1.14467
1.1448
1.14493
1.14506
1.14519
1.14532
1.14545
1.14558
1.14571
1.14583
1.14596
1.14609
1.14621
1.14633
1.14646
1.14658
1.1467
1.14681
1.14693
1.14705
1.14716
1.14728
1.14739
1.1475
1.14761
1.14772
1.14782
1.14793
1.14803
1.14814
1.14824
1.14834
1.14845
1.14855
1.14865
1.14875
1.14886
1.14896
1.14907
1.14917
1.14928
1.14939
1.1495
1.14962
1.14973
1.14985
1.14998
1.15011
1.15024
1.15038
1.15053
1.15068
1.15083
1.151
1.15117
1.15135
1.15154
1.15173
1.15194
1.15215
1.15238
1.15262
1.15286
1.15312
1.15339
1.15367
1.15396
1.15426
1.15458
1.15491
1.15525
1.1556
1.15597
1.15635
1.15674
1.15714
1.15755
1.15797
1.1584
1.15885
1.1593
1.15976
1.16023
1.1607
1.16118
1.16166
1.16215
1.16264
1.16313
1.16362
1.16411
1.1646
1.16508
1.16556
1.16603
1.1665
1.16696
1.16741
1.16785
1.16827
1.16869
1.1691
1.1695
1.16988
1.17026
1.17062
1.17097
1.1713
1.17163
1.17194
1.17224
1.17253
1.17281
1.17308
1.17334
1.17359
1.17382
1.17405
1.17427
1.17447
1.17467
1.17486
1.17504
1.17521
1.17537
1.17552
1.17567
1.1758
1.17593
1.17604
1.17615
1.17625
1.17635
1.17643
1.17651
1.17658
1.17664
1.1767
1.17675
1.17679
1.17683
1.17686
1.17689
1.17692
1.17695
1.17697
1.17699
1.17701
1.17703
1.17705
1.17707
1.17709
1.17712
1.17716
1.17719
1.17724
1.17729
1.17735
1.17742
1.1775
1.17759
1.17769
1.17781
1.17794
1.17808
1.17825
1.17843
1.17862
1.17884
1.17908
1.17934
1.17963
1.17993
1.18027
1.18063
1.18101
1.18143
1.18187
1.18234
1.18285
1.18338
1.18395
1.18455
1.18519
1.18586
1.18657
1.18732
1.1881
1.18893
1.18979
1.1907
1.19166
1.19266
1.19371
1.19482
1.19598
1.19721
1.19851
1.19988
1.20134
1.2029
1.20456
1.20634
1.20824
1.21028
1.21245
1.21472
1.21702
1.21922
1.22114
1.22252
1.22307
1.22288
1.11576
1.11534
1.11525
1.11542
1.11579
1.11626
1.11678
1.11731
1.11781
1.11826
1.11868
1.11904
1.11937
1.11965
1.1199
1.12011
1.1203
1.12047
1.12061
1.12073
1.12084
1.12094
1.12102
1.12109
1.12115
1.12121
1.12126
1.1213
1.12134
1.12137
1.12141
1.12143
1.12146
1.12149
1.12151
1.12154
1.12156
1.12159
1.12161
1.12164
1.12167
1.1217
1.12173
1.12177
1.12181
1.12186
1.12191
1.12196
1.12202
1.12208
1.12215
1.12223
1.12231
1.1224
1.12249
1.1226
1.12271
1.12283
1.12295
1.12309
1.12323
1.12338
1.12354
1.12371
1.12389
1.12407
1.12427
1.12448
1.12469
1.12492
1.12515
1.12539
1.12564
1.1259
1.12617
1.12645
1.12673
1.12702
1.12732
1.12763
1.12795
1.12827
1.1286
1.12893
1.12927
1.12961
1.12996
1.13032
1.13067
1.13103
1.13139
1.13175
1.13212
1.13248
1.13284
1.13319
1.13355
1.1339
1.13425
1.13459
1.13492
1.13525
1.13557
1.13589
1.13619
1.13649
1.13678
1.13706
1.13732
1.13758
1.13783
1.13806
1.13828
1.1385
1.13869
1.13888
1.13905
1.13921
1.13936
1.1395
1.13963
1.13974
1.13985
1.13994
1.14003
1.14011
1.14018
1.14025
1.1403
1.14036
1.1404
1.14045
1.14049
1.14052
1.14056
1.14059
1.14062
1.14065
1.14068
1.14071
1.14073
1.14076
1.14079
1.14082
1.14085
1.14089
1.14092
1.14096
1.141
1.14104
1.14108
1.14113
1.14118
1.14123
1.14129
1.14134
1.14141
1.14147
1.14154
1.14161
1.14169
1.14177
1.14185
1.14193
1.14202
1.14211
1.14221
1.14231
1.14241
1.14251
1.14262
1.14273
1.14284
1.14295
1.14307
1.14319
1.14331
1.14343
1.14355
1.14367
1.1438
1.14393
1.14406
1.14418
1.14431
1.14444
1.14457
1.1447
1.14483
1.14497
1.1451
1.14523
1.14535
1.14548
1.14561
1.14574
1.14587
1.14599
1.14612
1.14624
1.14637
1.14649
1.14661
1.14673
1.14685
1.14696
1.14708
1.14719
1.14731
1.14742
1.14753
1.14764
1.14774
1.14785
1.14796
1.14806
1.14816
1.14827
1.14837
1.14847
1.14857
1.14868
1.14878
1.14888
1.14898
1.14909
1.14919
1.1493
1.14941
1.14952
1.14964
1.14975
1.14987
1.15
1.15013
1.15026
1.1504
1.15054
1.15069
1.15085
1.15101
1.15118
1.15136
1.15155
1.15174
1.15195
1.15216
1.15239
1.15262
1.15287
1.15312
1.15339
1.15367
1.15396
1.15426
1.15458
1.15491
1.15525
1.1556
1.15597
1.15635
1.15674
1.15714
1.15755
1.15797
1.15841
1.15885
1.15931
1.15977
1.16024
1.16071
1.1612
1.16168
1.16217
1.16266
1.16316
1.16365
1.16414
1.16463
1.16512
1.1656
1.16607
1.16654
1.167
1.16744
1.16788
1.16831
1.16873
1.16914
1.16953
1.16992
1.17029
1.17065
1.17099
1.17133
1.17165
1.17196
1.17226
1.17255
1.17283
1.17309
1.17335
1.17359
1.17383
1.17406
1.17427
1.17448
1.17467
1.17486
1.17504
1.17521
1.17537
1.17552
1.17566
1.1758
1.17593
1.17604
1.17615
1.17625
1.17634
1.17643
1.17651
1.17657
1.17664
1.17669
1.17674
1.17678
1.17682
1.17686
1.17688
1.17691
1.17693
1.17695
1.17697
1.17699
1.17701
1.17702
1.17704
1.17707
1.17709
1.17712
1.17716
1.1772
1.17725
1.17731
1.17737
1.17745
1.17754
1.17764
1.17775
1.17788
1.17802
1.17818
1.17835
1.17855
1.17876
1.179
1.17926
1.17954
1.17984
1.18017
1.18053
1.18091
1.18132
1.18176
1.18223
1.18273
1.18326
1.18383
1.18443
1.18506
1.18573
1.18643
1.18717
1.18794
1.18876
1.18962
1.19051
1.19145
1.19244
1.19347
1.19455
1.19569
1.19688
1.19813
1.19945
1.20084
1.20231
1.20386
1.2055
1.20723
1.20904
1.21091
1.21279
1.21462
1.21629
1.21763
1.21853
1.21885
1.21857
1.11673
1.11637
1.11624
1.11631
1.11652
1.11684
1.11721
1.11761
1.11801
1.11838
1.11873
1.11905
1.11934
1.1196
1.11983
1.12004
1.12022
1.12037
1.12051
1.12064
1.12075
1.12084
1.12093
1.121
1.12106
1.12112
1.12117
1.12122
1.12126
1.1213
1.12133
1.12136
1.12139
1.12142
1.12145
1.12147
1.1215
1.12153
1.12156
1.12158
1.12162
1.12165
1.12168
1.12172
1.12177
1.12181
1.12186
1.12192
1.12197
1.12204
1.12211
1.12218
1.12226
1.12235
1.12245
1.12255
1.12266
1.12278
1.1229
1.12304
1.12318
1.12333
1.12349
1.12366
1.12383
1.12402
1.12422
1.12442
1.12464
1.12486
1.1251
1.12534
1.12559
1.12585
1.12612
1.1264
1.12668
1.12698
1.12728
1.12759
1.1279
1.12823
1.12856
1.12889
1.12924
1.12958
1.12994
1.13029
1.13065
1.13102
1.13138
1.13174
1.13211
1.13248
1.13284
1.1332
1.13356
1.13391
1.13426
1.13461
1.13495
1.13528
1.1356
1.13592
1.13623
1.13653
1.13682
1.1371
1.13737
1.13763
1.13787
1.13811
1.13833
1.13854
1.13874
1.13893
1.1391
1.13926
1.13941
1.13955
1.13967
1.13979
1.13989
1.13998
1.14007
1.14014
1.14021
1.14028
1.14033
1.14038
1.14043
1.14047
1.14051
1.14055
1.14058
1.14061
1.14064
1.14067
1.1407
1.14073
1.14076
1.14078
1.14081
1.14085
1.14088
1.14091
1.14095
1.14098
1.14102
1.14107
1.14111
1.14116
1.14121
1.14126
1.14132
1.14138
1.14144
1.14151
1.14158
1.14165
1.14172
1.1418
1.14189
1.14197
1.14206
1.14215
1.14225
1.14235
1.14245
1.14255
1.14266
1.14277
1.14288
1.14299
1.14311
1.14323
1.14335
1.14347
1.14359
1.14372
1.14384
1.14397
1.1441
1.14423
1.14435
1.14448
1.14461
1.14474
1.14487
1.145
1.14513
1.14526
1.14539
1.14552
1.14565
1.14578
1.14591
1.14603
1.14616
1.14628
1.1464
1.14652
1.14664
1.14676
1.14688
1.147
1.14711
1.14723
1.14734
1.14745
1.14756
1.14767
1.14778
1.14788
1.14799
1.14809
1.14819
1.1483
1.1484
1.1485
1.1486
1.1487
1.1488
1.14891
1.14901
1.14911
1.14922
1.14932
1.14943
1.14954
1.14966
1.14977
1.14989
1.15002
1.15014
1.15028
1.15041
1.15056
1.1507
1.15086
1.15102
1.15119
1.15137
1.15155
1.15175
1.15195
1.15216
1.15239
1.15262
1.15286
1.15312
1.15339
1.15367
1.15396
1.15426
1.15457
1.1549
1.15524
1.15559
1.15596
1.15634
1.15673
1.15713
1.15754
1.15797
1.1584
1.15885
1.15931
1.15977
1.16024
1.16072
1.16121
1.16169
1.16219
1.16268
1.16318
1.16368
1.16417
1.16466
1.16515
1.16563
1.16611
1.16658
1.16704
1.16749
1.16793
1.16836
1.16877
1.16918
1.16957
1.16996
1.17033
1.17068
1.17103
1.17136
1.17168
1.17199
1.17229
1.17257
1.17285
1.17311
1.17337
1.17361
1.17384
1.17407
1.17428
1.17449
1.17468
1.17487
1.17505
1.17521
1.17537
1.17553
1.17567
1.1758
1.17593
1.17605
1.17615
1.17625
1.17635
1.17643
1.17651
1.17657
1.17664
1.17669
1.17674
1.17678
1.17682
1.17685
1.17688
1.1769
1.17692
1.17694
1.17695
1.17697
1.17698
1.177
1.17702
1.17704
1.17706
1.17709
1.17712
1.17716
1.17721
1.17726
1.17732
1.17739
1.17748
1.17757
1.17768
1.17781
1.17794
1.1781
1.17827
1.17846
1.17867
1.1789
1.17916
1.17943
1.17973
1.18006
1.18041
1.18079
1.18119
1.18163
1.18209
1.18259
1.18311
1.18367
1.18426
1.18489
1.18555
1.18624
1.18698
1.18774
1.18855
1.18939
1.19027
1.19119
1.19216
1.19317
1.19422
1.19532
1.19647
1.19767
1.19893
1.20024
1.20162
1.20305
1.20455
1.2061
1.20769
1.20929
1.21085
1.2123
1.21357
1.21454
1.21514
1.21531
1.215
1.11747
1.11717
1.11702
1.11703
1.11715
1.11736
1.11762
1.11792
1.11823
1.11854
1.11883
1.11911
1.11936
1.11959
1.1198
1.11999
1.12016
1.12031
1.12044
1.12056
1.12067
1.12076
1.12084
1.12092
1.12099
1.12104
1.1211
1.12115
1.12119
1.12123
1.12126
1.1213
1.12133
1.12136
1.12139
1.12141
1.12144
1.12147
1.1215
1.12153
1.12156
1.1216
1.12163
1.12167
1.12172
1.12176
1.12181
1.12187
1.12193
1.12199
1.12206
1.12214
1.12222
1.12231
1.1224
1.1225
1.12261
1.12273
1.12285
1.12299
1.12313
1.12328
1.12344
1.1236
1.12378
1.12397
1.12416
1.12437
1.12459
1.12481
1.12504
1.12529
1.12554
1.1258
1.12607
1.12635
1.12663
1.12693
1.12723
1.12754
1.12786
1.12819
1.12852
1.12886
1.1292
1.12955
1.12991
1.13027
1.13063
1.131
1.13137
1.13174
1.1321
1.13247
1.13284
1.13321
1.13357
1.13393
1.13428
1.13463
1.13497
1.13531
1.13563
1.13595
1.13627
1.13657
1.13686
1.13714
1.13742
1.13768
1.13793
1.13816
1.13839
1.1386
1.1388
1.13898
1.13916
1.13932
1.13946
1.1396
1.13972
1.13983
1.13994
1.14003
1.14011
1.14018
1.14025
1.14031
1.14037
1.14042
1.14046
1.1405
1.14054
1.14057
1.14061
1.14064
1.14067
1.1407
1.14073
1.14075
1.14078
1.14081
1.14084
1.14087
1.14091
1.14094
1.14098
1.14102
1.14106
1.1411
1.14114
1.14119
1.14124
1.1413
1.14136
1.14142
1.14148
1.14155
1.14162
1.14169
1.14177
1.14185
1.14193
1.14202
1.14211
1.1422
1.14229
1.14239
1.14249
1.1426
1.14271
1.14281
1.14293
1.14304
1.14316
1.14327
1.14339
1.14352
1.14364