# vtk DataFile Version 2.0
LBE mesh
ASCII
DATASET STRUCTURED_POINTS
DIMENSIONS 400 100 1
ASPECT_RATIO 1 1 1
ORIGIN 0 0 0
POINT_DATA 40000
SCALARS rho double 1
LOOKUP_TABLE default
1.18038
1.27465
1.30144
1.30602
1.30809
1.31011
1.31163
1.3126
1.31325
1.31373
1.31411
1.3144
1.31463
1.31481
1.31495
1.31507
1.31516
1.31524
1.31529
1.31533
1.31536
1.31538
1.31538
1.31538
1.31537
1.31535
1.31532
1.31529
1.31525
1.3152
1.31515
1.3151
1.31504
1.31498
1.31491
1.31484
1.31477
1.31469
1.31462
1.31454
1.31446
1.31438
1.3143
1.31422
1.31414
1.31406
1.31398
1.31391
1.31384
1.31377
1.3137
1.31364
1.31358
1.31352
1.31347
1.31343
1.31339
1.31336
1.31333
1.31331
1.3133
1.3133
1.3133
1.31331
1.31333
1.31336
1.3134
1.31344
1.3135
1.31356
1.31364
1.31372
1.31381
1.31391
1.31402
1.31414
1.31427
1.3144
1.31455
1.3147
1.31486
1.31503
1.31521
1.31539
1.31558
1.31578
1.31598
1.31619
1.31641
1.31663
1.31685
1.31708
1.31731
1.31755
1.31779
1.31803
1.31827
1.31851
1.31875
1.31899
1.31923
1.31947
1.3197
1.31993
1.32016
1.32038
1.32059
1.3208
1.32101
1.3212
1.32139
1.32157
1.32174
1.3219
1.32205
1.32219
1.32232
1.32244
1.32255
1.32265
1.32273
1.32281
1.32287
1.32293
1.32297
1.32301
1.32303
1.32304
1.32305
1.32305
1.32304
1.32303
1.323
1.32298
1.32294
1.3229
1.32286
1.32281
1.32276
1.32271
1.32265
1.3226
1.32254
1.32247
1.32241
1.32235
1.32228
1.32221
1.32215
1.32208
1.32201
1.32195
1.32188
1.32181
1.32175
1.32168
1.32161
1.32155
1.32148
1.32141
1.32135
1.32128
1.32122
1.32115
1.32109
1.32103
1.32096
1.3209
1.32084
1.32077
1.32071
1.32065
1.32059
1.32052
1.32046
1.3204
1.32034
1.32028
1.32022
1.32015
1.32009
1.32003
1.31997
1.31991
1.31985
1.31979
1.31973
1.31967
1.31961
1.31955
1.3195
1.31944
1.31938
1.31933
1.31928
1.31922
1.31917
1.31912
1.31907
1.31902
1.31897
1.31893
1.31889
1.31885
1.31881
1.31877
1.31874
1.3187
1.31867
1.31865
1.31862
1.3186
1.31859
1.31857
1.31856
1.31856
1.31855
1.31855
1.31856
1.31857
1.31859
1.3186
1.31863
1.31866
1.31869
1.31873
1.31878
1.31883
1.31889
1.31895
1.31902
1.3191
1.31918
1.31927
1.31937
1.31947
1.31959
1.3197
1.31983
1.31996
1.32011
1.32026
1.32041
1.32058
1.32075
1.32093
1.32112
1.32132
1.32153
1.32174
1.32196
1.3222
1.32243
1.32268
1.32293
1.3232
1.32347
1.32374
1.32402
1.32431
1.32461
1.32491
1.32522
1.32553
1.32585
1.32617
1.32649
1.32682
1.32715
1.32748
1.32781
1.32814
1.32847
1.3288
1.32912
1.32945
1.32976
1.33008
1.33039
1.33069
1.33099
1.33127
1.33155
1.33183
1.33209
1.33234
1.33259
1.33282
1.33305
1.33326
1.33347
1.33367
1.33385
1.33403
1.3342
1.33436
1.33451
1.33466
1.33479
1.33492
1.33504
1.33516
1.33527
1.33538
1.33548
1.33557
1.33567
1.33575
1.33584
1.33592
1.33599
1.33607
1.33614
1.33621
1.33628
1.33634
1.3364
1.33646
1.33652
1.33657
1.33663
1.33668
1.33673
1.33678
1.33682
1.33687
1.33692
1.33696
1.337
1.33705
1.33709
1.33713
1.33718
1.33722
1.33727
1.33732
1.33737
1.33742
1.33748
1.33755
1.33762
1.33769
1.33777
1.33786
1.33796
1.33807
1.33818
1.33831
1.33845
1.3386
1.33877
1.33894
1.33914
1.33935
1.33958
1.33982
1.34009
1.34037
1.34067
1.341
1.34135
1.34172
1.34212
1.34254
1.34299
1.34347
1.34397
1.34451
1.34507
1.34567
1.34631
1.34698
1.34768
1.34843
1.34922
1.35005
1.35093
1.35186
1.35285
1.35389
1.355
1.35618
1.35744
1.35879
1.36024
1.3618
1.36349
1.36534
1.36738
1.36963
1.37217
1.37505
1.37839
1.38234
1.38716
1.39339
1.40203
1.41417
1.43246
1.47059
1.26652
1.27457
1.2876
1.29925
1.30519
1.30807
1.30983
1.31111
1.31206
1.31276
1.31329
1.3137
1.31402
1.31428
1.31449
1.31466
1.3148
1.3149
1.31499
1.31506
1.31511
1.31515
1.31517
1.31518
1.31518
1.31518
1.31516
1.31514
1.31511
1.31507
1.31503
1.31498
1.31493
1.31487
1.31481
1.31474
1.31467
1.3146
1.31453
1.31446
1.31438
1.31431
1.31423
1.31415
1.31408
1.314
1.31393
1.31386
1.31379
1.31372
1.31365
1.31359
1.31354
1.31348
1.31344
1.3134
1.31336
1.31333
1.31331
1.31329
1.31328
1.31328
1.31329
1.3133
1.31332
1.31335
1.31339
1.31344
1.3135
1.31356
1.31364
1.31372
1.31382
1.31392
1.31403
1.31415
1.31428
1.31442
1.31456
1.31471
1.31488
1.31505
1.31522
1.31541
1.3156
1.3158
1.316
1.31621
1.31643
1.31665
1.31687
1.3171
1.31734
1.31757
1.31781
1.31805
1.31829
1.31853
1.31877
1.31901
1.31924
1.31948
1.31971
1.31994
1.32017
1.32039
1.3206
1.32081
1.32101
1.3212
1.32139
1.32157
1.32173
1.32189
1.32204
1.32218
1.32231
1.32243
1.32253
1.32263
1.32271
1.32279
1.32285
1.3229
1.32295
1.32298
1.323
1.32302
1.32302
1.32302
1.32301
1.323
1.32297
1.32295
1.32291
1.32288
1.32283
1.32279
1.32274
1.32268
1.32263
1.32257
1.32251
1.32245
1.32239
1.32232
1.32226
1.32219
1.32213
1.32206
1.322
1.32193
1.32186
1.3218
1.32173
1.32166
1.3216
1.32153
1.32147
1.3214
1.32134
1.32127
1.32121
1.32114
1.32108
1.32102
1.32095
1.32089
1.32083
1.32076
1.3207
1.32064
1.32058
1.32052
1.32045
1.32039
1.32033
1.32027
1.32021
1.32015
1.32009
1.32002
1.31996
1.3199
1.31984
1.31978
1.31972
1.31967
1.31961
1.31955
1.31949
1.31944
1.31938
1.31932
1.31927
1.31922
1.31917
1.31912
1.31907
1.31902
1.31897
1.31893
1.31889
1.31884
1.31881
1.31877
1.31874
1.3187
1.31868
1.31865
1.31863
1.31861
1.31859
1.31858
1.31857
1.31856
1.31856
1.31856
1.31857
1.31858
1.31859
1.31861
1.31864
1.31867
1.3187
1.31875
1.31879
1.31884
1.3189
1.31897
1.31904
1.31912
1.3192
1.31929
1.31939
1.31949
1.31961
1.31973
1.31985
1.31999
1.32013
1.32028
1.32044
1.32061
1.32078
1.32096
1.32115
1.32135
1.32156
1.32177
1.322
1.32223
1.32247
1.32271
1.32297
1.32323
1.3235
1.32378
1.32406
1.32435
1.32465
1.32495
1.32526
1.32557
1.32588
1.3262
1.32653
1.32685
1.32718
1.32751
1.32784
1.32817
1.3285
1.32883
1.32915
1.32947
1.32979
1.3301
1.33041
1.33071
1.331
1.33129
1.33157
1.33184
1.3321
1.33235
1.33259
1.33283
1.33305
1.33326
1.33347
1.33366
1.33385
1.33402
1.33419
1.33435
1.3345
1.33464
1.33478
1.33491
1.33503
1.33515
1.33526
1.33536
1.33546
1.33556
1.33565
1.33574
1.33582
1.3359
1.33598
1.33606
1.33613
1.3362
1.33626
1.33633
1.33639
1.33645
1.33651
1.33656
1.33662
1.33667
1.33672
1.33677
1.33681
1.33686
1.3369
1.33695
1.33699
1.33704
1.33708
1.33712
1.33717
1.33721
1.33726
1.33731
1.33736
1.33742
1.33748
1.33754
1.33762
1.33769
1.33778
1.33787
1.33797
1.33807
1.33819
1.33832
1.33846
1.33862
1.33879
1.33897
1.33916
1.33938
1.33961
1.33986
1.34012
1.34041
1.34072
1.34105
1.3414
1.34178
1.34218
1.3426
1.34306
1.34354
1.34405
1.34459
1.34516
1.34576
1.3464
1.34708
1.34779
1.34854
1.34934
1.35018
1.35107
1.35201
1.35301
1.35406
1.35518
1.35638
1.35766
1.35903
1.3605
1.36209
1.36382
1.36572
1.36781
1.37014
1.37277
1.37579
1.37931
1.38352
1.38871
1.39528
1.40385
1.41646
1.43838
1.47269
1.28792
1.28398
1.29212
1.29902
1.30322
1.30625
1.30844
1.30998
1.31109
1.31192
1.31257
1.31307
1.31347
1.3138
1.31406
1.31427
1.31445
1.31459
1.3147
1.31479
1.31487
1.31492
1.31496
1.31499
1.315
1.31501
1.315
1.31499
1.31496
1.31494
1.3149
1.31486
1.31481
1.31476
1.3147
1.31464
1.31458
1.31451
1.31445
1.31438
1.3143
1.31423
1.31416
1.31408
1.31401
1.31394
1.31387
1.3138
1.31373
1.31367
1.3136
1.31355
1.31349
1.31344
1.3134
1.31336
1.31332
1.3133
1.31328
1.31326
1.31325
1.31325
1.31326
1.31328
1.3133
1.31334
1.31338
1.31343
1.31349
1.31356
1.31363
1.31372
1.31381
1.31392
1.31403
1.31415
1.31428
1.31442
1.31457
1.31472
1.31488
1.31505
1.31523
1.31542
1.31561
1.31581
1.31602
1.31623
1.31644
1.31666
1.31689
1.31712
1.31735
1.31759
1.31783
1.31807
1.31831
1.31855
1.31879
1.31902
1.31926
1.3195
1.31973
1.31996
1.32018
1.3204
1.32061
1.32082
1.32102
1.32121
1.3214
1.32157
1.32174
1.3219
1.32204
1.32218
1.32231
1.32242
1.32253
1.32262
1.3227
1.32278
1.32284
1.32289
1.32293
1.32296
1.32298
1.323
1.323
1.323
1.32299
1.32297
1.32295
1.32292
1.32289
1.32285
1.32281
1.32276
1.32271
1.32266
1.32261
1.32255
1.32249
1.32243
1.32237
1.3223
1.32224
1.32217
1.32211
1.32204
1.32198
1.32191
1.32185
1.32178
1.32171
1.32165
1.32158
1.32152
1.32145
1.32139
1.32132
1.32126
1.32119
1.32113
1.32107
1.321
1.32094
1.32088
1.32082
1.32075
1.32069
1.32063
1.32057
1.32051
1.32044
1.32038
1.32032
1.32026
1.3202
1.32014
1.32008
1.32002
1.31996
1.3199
1.31984
1.31978
1.31972
1.31966
1.3196
1.31954
1.31949
1.31943
1.31937
1.31932
1.31926
1.31921
1.31916
1.31911
1.31906
1.31901
1.31897
1.31892
1.31888
1.31884
1.3188
1.31877
1.31873
1.3187
1.31867
1.31865
1.31863
1.31861
1.31859
1.31858
1.31857
1.31856
1.31856
1.31856
1.31857
1.31858
1.3186
1.31862
1.31864
1.31867
1.31871
1.31875
1.3188
1.31885
1.31891
1.31898
1.31905
1.31913
1.31921
1.3193
1.3194
1.31951
1.31962
1.31974
1.31987
1.32
1.32015
1.3203
1.32046
1.32063
1.3208
1.32098
1.32118
1.32137
1.32158
1.3218
1.32202
1.32225
1.3225
1.32274
1.323
1.32326
1.32353
1.32381
1.32409
1.32438
1.32468
1.32498
1.32529
1.3256
1.32592
1.32624
1.32656
1.32689
1.32722
1.32754
1.32787
1.3282
1.32853
1.32886
1.32918
1.3295
1.32982
1.33013
1.33044
1.33073
1.33103
1.33131
1.33159
1.33186
1.33212
1.33237
1.33261
1.33284
1.33306
1.33327
1.33348
1.33367
1.33385
1.33403
1.33419
1.33435
1.3345
1.33464
1.33478
1.3349
1.33503
1.33514
1.33525
1.33536
1.33546
1.33555
1.33564
1.33573
1.33581
1.33589
1.33597
1.33605
1.33612
1.33619
1.33625
1.33632
1.33638
1.33644
1.3365
1.33655
1.33661
1.33666
1.33671
1.33676
1.3368
1.33685
1.33689
1.33694
1.33698
1.33702
1.33707
1.33711
1.33716
1.3372
1.33725
1.3373
1.33735
1.33741
1.33747
1.33754
1.33761
1.33769
1.33777
1.33786
1.33796
1.33807
1.33819
1.33832
1.33847
1.33862
1.33879
1.33898
1.33917
1.33939
1.33962
1.33987
1.34014
1.34043
1.34074
1.34107
1.34143
1.34181
1.34221
1.34264
1.3431
1.34358
1.34409
1.34464
1.34521
1.34582
1.34646
1.34714
1.34786
1.34862
1.34942
1.35026
1.35115
1.3521
1.3531
1.35416
1.35529
1.35649
1.35778
1.35916
1.36064
1.36224
1.36398
1.36589
1.368
1.37035
1.373
1.37603
1.37955
1.38371
1.38874
1.39504
1.40321
1.41349
1.42467
1.43493
1.29571
1.29449
1.29691
1.29976
1.30309
1.3058
1.30776
1.30924
1.31038
1.31128
1.31199
1.31255
1.313
1.31337
1.31367
1.31392
1.31413
1.31429
1.31443
1.31455
1.31464
1.31471
1.31476
1.3148
1.31483
1.31484
1.31485
1.31484
1.31483
1.31481
1.31478
1.31474
1.3147
1.31465
1.3146
1.31455
1.31449
1.31443
1.31436
1.3143
1.31423
1.31416
1.31409
1.31402
1.31394
1.31387
1.31381
1.31374
1.31367
1.31361
1.31355
1.31349
1.31344
1.31339
1.31335
1.31331
1.31328
1.31326
1.31324
1.31322
1.31322
1.31322
1.31323
1.31325
1.31328
1.31331
1.31335
1.31341
1.31347
1.31354
1.31362
1.3137
1.3138
1.31391
1.31402
1.31414
1.31428
1.31441
1.31456
1.31472
1.31488
1.31506
1.31524
1.31542
1.31562
1.31582
1.31602
1.31624
1.31645
1.31668
1.3169
1.31713
1.31737
1.3176
1.31784
1.31808
1.31832
1.31856
1.3188
1.31904
1.31928
1.31951
1.31975
1.31997
1.3202
1.32042
1.32063
1.32084
1.32103
1.32123
1.32141
1.32158
1.32175
1.32191
1.32205
1.32219
1.32231
1.32243
1.32253
1.32262
1.3227
1.32277
1.32283
1.32288
1.32292
1.32295
1.32297
1.32299
1.32299
1.32299
1.32297
1.32296
1.32293
1.3229
1.32287
1.32283
1.32279
1.32274
1.32269
1.32264
1.32258
1.32253
1.32247
1.32241
1.32235
1.32228
1.32222
1.32215
1.32209
1.32202
1.32196
1.32189
1.32183
1.32176
1.3217
1.32163
1.32157
1.3215
1.32144
1.32137
1.32131
1.32124
1.32118
1.32112
1.32105
1.32099
1.32093
1.32087
1.3208
1.32074
1.32068
1.32062
1.32056
1.3205
1.32043
1.32037
1.32031
1.32025
1.32019
1.32013
1.32007
1.32001
1.31995
1.31989
1.31983
1.31977
1.31971
1.31965
1.31959
1.31953
1.31948
1.31942
1.31937
1.31931
1.31926
1.31921
1.31915
1.3191
1.31906
1.31901
1.31896
1.31892
1.31888
1.31884
1.3188
1.31876
1.31873
1.3187
1.31867
1.31864
1.31862
1.3186
1.31859
1.31857
1.31857
1.31856
1.31856
1.31856
1.31857
1.31858
1.3186
1.31862
1.31864
1.31868
1.31871
1.31875
1.3188
1.31886
1.31892
1.31898
1.31905
1.31913
1.31922
1.31931
1.31941
1.31951
1.31963
1.31975
1.31988
1.32001
1.32016
1.32031
1.32047
1.32064
1.32081
1.321
1.32119
1.32139
1.3216
1.32182
1.32204
1.32227
1.32251
1.32276
1.32302
1.32328
1.32355
1.32383
1.32412
1.32441
1.32471
1.32501
1.32532
1.32563
1.32595
1.32627
1.32659
1.32692
1.32725
1.32758
1.32791
1.32824
1.32857
1.32889
1.32922
1.32954
1.32985
1.33016
1.33047
1.33077
1.33106
1.33134
1.33162
1.33189
1.33214
1.33239
1.33263
1.33286
1.33308
1.33329
1.33349
1.33368
1.33386
1.33404
1.3342
1.33436
1.33451
1.33465
1.33478
1.33491
1.33503
1.33514
1.33525
1.33535
1.33545
1.33555
1.33564
1.33573
1.33581
1.33589
1.33597
1.33604
1.33611
1.33618
1.33625
1.33631
1.33637
1.33643
1.33649
1.33654
1.3366
1.33665
1.3367
1.33675
1.33679
1.33684
1.33688
1.33693
1.33697
1.33701
1.33706
1.3371
1.33714
1.33719
1.33724
1.33729
1.33734
1.3374
1.33746
1.33752
1.3376
1.33767
1.33776
1.33785
1.33795
1.33806
1.33818
1.33831
1.33846
1.33861
1.33878
1.33897
1.33917
1.33938
1.33962
1.33987
1.34014
1.34043
1.34074
1.34108
1.34143
1.34181
1.34222
1.34265
1.34311
1.34359
1.34411
1.34465
1.34523
1.34584
1.34649
1.34717
1.34789
1.34864
1.34945
1.35029
1.35119
1.35213
1.35314
1.3542
1.35533
1.35653
1.35781
1.35918
1.36066
1.36226
1.36399
1.36588
1.36796
1.37028
1.37287
1.37581
1.37918
1.38309
1.38769
1.39308
1.39934
1.40626
1.41189
1.41199
1.30034
1.2999
1.30042
1.30204
1.30412
1.30597
1.30758
1.30891
1.30999
1.31086
1.31157
1.31214
1.31262
1.31301
1.31334
1.31361
1.31384
1.31403
1.31419
1.31432
1.31442
1.31451
1.31458
1.31463
1.31467
1.31469
1.3147
1.3147
1.3147
1.31468
1.31466
1.31463
1.31459
1.31455
1.3145
1.31445
1.3144
1.31434
1.31428
1.31421
1.31415
1.31408
1.31401
1.31394
1.31388
1.31381
1.31374
1.31368
1.31361
1.31355
1.31349
1.31344
1.31339
1.31334
1.3133
1.31326
1.31323
1.31321
1.31319
1.31318
1.31318
1.31318
1.31319
1.31321
1.31324
1.31328
1.31332
1.31338
1.31344
1.31351
1.31359
1.31368
1.31378
1.31389
1.314
1.31413
1.31426
1.3144
1.31455
1.31471
1.31488
1.31505
1.31523
1.31542
1.31562
1.31582
1.31603
1.31624
1.31646
1.31668
1.31691
1.31714
1.31738
1.31762
1.31786
1.3181
1.31834
1.31858
1.31882
1.31906
1.3193
1.31954
1.31977
1.32
1.32022
1.32044
1.32065
1.32086
1.32106
1.32125
1.32143
1.32161
1.32177
1.32193
1.32207
1.32221
1.32233
1.32244
1.32254
1.32263
1.32271
1.32278
1.32284
1.32289
1.32292
1.32295
1.32297
1.32298
1.32298
1.32298
1.32296
1.32294
1.32292
1.32289
1.32285
1.32281
1.32277
1.32272
1.32267
1.32262
1.32257
1.32251
1.32245
1.32239
1.32233
1.32226
1.3222
1.32213
1.32207
1.32201
1.32194
1.32187
1.32181
1.32174
1.32168
1.32161
1.32155
1.32149
1.32142
1.32136
1.32129
1.32123
1.32117
1.3211
1.32104
1.32098
1.32092
1.32085
1.32079
1.32073
1.32067
1.32061
1.32055
1.32048
1.32042
1.32036
1.3203
1.32024
1.32018
1.32012
1.32006
1.32
1.31994
1.31988
1.31982
1.31976
1.3197
1.31964
1.31958
1.31953
1.31947
1.31941
1.31936
1.3193
1.31925
1.3192
1.31915
1.3191
1.31905
1.319
1.31895
1.31891
1.31887
1.31883
1.31879
1.31875
1.31872
1.31869
1.31866
1.31864
1.31862
1.3186
1.31858
1.31857
1.31856
1.31855
1.31855
1.31856
1.31856
1.31858
1.31859
1.31861
1.31864
1.31867
1.31871
1.31875
1.3188
1.31885
1.31891
1.31898
1.31905
1.31913
1.31922
1.31931
1.31941
1.31951
1.31963
1.31975
1.31988
1.32002
1.32016
1.32031
1.32047
1.32064
1.32082
1.321
1.3212
1.3214
1.32161
1.32182
1.32205
1.32228
1.32253
1.32278
1.32303
1.3233
1.32357
1.32385
1.32414
1.32443
1.32473
1.32503
1.32534
1.32566
1.32597
1.3263
1.32662
1.32695
1.32728
1.32761
1.32794
1.32827
1.3286
1.32893
1.32925
1.32957
1.32989
1.3302
1.33051
1.33081
1.3311
1.33138
1.33166
1.33192
1.33218
1.33243
1.33266
1.33289
1.33311
1.33332
1.33352
1.33371
1.33389
1.33406
1.33422
1.33437
1.33452
1.33466
1.33479
1.33491
1.33503
1.33515
1.33525
1.33536
1.33545
1.33555
1.33564
1.33572
1.33581
1.33589
1.33596
1.33603
1.33611
1.33617
1.33624
1.3363
1.33636
1.33642
1.33648
1.33654
1.33659
1.33664
1.33669
1.33674
1.33678
1.33683
1.33687
1.33692
1.33696
1.337
1.33704
1.33709
1.33713
1.33718
1.33722
1.33727
1.33732
1.33738
1.33744
1.33751
1.33758
1.33765
1.33774
1.33783
1.33793
1.33804
1.33816
1.33829
1.33843
1.33859
1.33876
1.33895
1.33915
1.33936
1.3396
1.33985
1.34012
1.34041
1.34072
1.34106
1.34141
1.3418
1.3422
1.34263
1.34309
1.34358
1.34409
1.34464
1.34522
1.34583
1.34647
1.34715
1.34787
1.34863
1.34943
1.35028
1.35117
1.35211
1.35311
1.35417
1.35529
1.35648
1.35775
1.35911
1.36057
1.36214
1.36384
1.36568
1.36771
1.36994
1.37241
1.37517
1.37828
1.38178
1.38573
1.39007
1.39453
1.39853
1.40125
1.40051
1.30373
1.30313
1.30323
1.30412
1.3053
1.30658
1.30782
1.30891
1.30985
1.31064
1.31131
1.31187
1.31234
1.31274
1.31308
1.31336
1.3136
1.3138
1.31397
1.31411
1.31423
1.31433
1.31441
1.31447
1.31451
1.31454
1.31456
1.31457
1.31457
1.31456
1.31455
1.31452
1.31449
1.31445
1.31441
1.31436
1.31431
1.31425
1.3142
1.31413
1.31407
1.31401
1.31394
1.31387
1.31381
1.31374
1.31368
1.31361
1.31355
1.31349
1.31343
1.31338
1.31333
1.31329
1.31325
1.31321
1.31318
1.31316
1.31314
1.31313
1.31313
1.31314
1.31315
1.31317
1.3132
1.31324
1.31329
1.31334
1.31341
1.31348
1.31356
1.31365
1.31375
1.31386
1.31398
1.31411
1.31424
1.31438
1.31454
1.3147
1.31486
1.31504
1.31522
1.31541
1.31561
1.31581
1.31602
1.31624
1.31646
1.31669
1.31692
1.31715
1.31739
1.31763
1.31787
1.31811
1.31836
1.3186
1.31884
1.31908
1.31932
1.31956
1.31979
1.32002
1.32025
1.32046
1.32068
1.32088
1.32108
1.32128
1.32146
1.32163
1.3218
1.32195
1.3221
1.32223
1.32235
1.32247
1.32257
1.32265
1.32273
1.3228
1.32285
1.3229
1.32293
1.32296
1.32297
1.32298
1.32298
1.32297
1.32296
1.32294
1.32291
1.32288
1.32284
1.3228
1.32276
1.32271
1.32266
1.3226
1.32255
1.32249
1.32243
1.32237
1.32231
1.32224
1.32218
1.32212
1.32205
1.32199
1.32192
1.32186
1.32179
1.32173
1.32166
1.3216
1.32153
1.32147
1.32141
1.32134
1.32128
1.32122
1.32115
1.32109
1.32103
1.32097
1.3209
1.32084
1.32078
1.32072
1.32066
1.3206
1.32053
1.32047
1.32041
1.32035
1.32029
1.32023
1.32017
1.32011
1.32005
1.31999
1.31993
1.31987
1.31981
1.31975
1.31969
1.31963
1.31957
1.31952
1.31946
1.3194
1.31935
1.31929
1.31924
1.31919
1.31914
1.31909
1.31904
1.31899
1.31895
1.3189
1.31886
1.31882
1.31878
1.31875
1.31871
1.31868
1.31865
1.31863
1.31861
1.31859
1.31857
1.31856
1.31855
1.31855
1.31854
1.31855
1.31856
1.31857
1.31858
1.31861
1.31863
1.31866
1.3187
1.31874
1.31879
1.31884
1.3189
1.31897
1.31904
1.31912
1.31921
1.3193
1.3194
1.31951
1.31962
1.31974
1.31987
1.32001
1.32016
1.32031
1.32047
1.32064
1.32082
1.321
1.32119
1.3214
1.32161
1.32183
1.32205
1.32229
1.32253
1.32278
1.32304
1.3233
1.32358
1.32386
1.32415
1.32444
1.32474
1.32505
1.32536
1.32567
1.326
1.32632
1.32665
1.32698
1.32731
1.32764
1.32797
1.32831
1.32864
1.32897
1.32929
1.32961
1.32993
1.33024
1.33055
1.33085
1.33114
1.33142
1.3317
1.33197
1.33222
1.33247
1.3327
1.33293
1.33315
1.33335
1.33355
1.33374
1.33391
1.33408
1.33424
1.33439
1.33454
1.33468
1.3348
1.33493
1.33504
1.33516
1.33526
1.33536
1.33546
1.33555
1.33564
1.33572
1.33581
1.33588
1.33596
1.33603
1.3361
1.33617
1.33624
1.3363
1.33636
1.33642
1.33648
1.33653
1.33658
1.33663
1.33668
1.33673
1.33678
1.33682
1.33686
1.33691
1.33695
1.33699
1.33703
1.33707
1.33712
1.33716
1.33721
1.33725
1.3373
1.33736
1.33742
1.33748
1.33755
1.33763
1.33771
1.3378
1.3379
1.33801
1.33813
1.33826
1.3384
1.33856
1.33872
1.33891
1.33911
1.33932
1.33956
1.33981
1.34008
1.34037
1.34068
1.34102
1.34137
1.34175
1.34216
1.34259
1.34305
1.34353
1.34405
1.34459
1.34517
1.34578
1.34642
1.3471
1.34782
1.34858
1.34937
1.35021
1.3511
1.35204
1.35302
1.35407
1.35518
1.35635
1.3576
1.35894
1.36036
1.36189
1.36354
1.36531
1.36725
1.36936
1.37166
1.3742
1.37698
1.38001
1.38324
1.38654
1.38967
1.39207
1.39328
1.39298
1.30603
1.30538
1.30534
1.30578
1.30648
1.30736
1.30826
1.30911
1.30989
1.31058
1.31119
1.31171
1.31216
1.31254
1.31287
1.31316
1.3134
1.31361
1.31379
1.31394
1.31406
1.31416
1.31425
1.31432
1.31437
1.31441
1.31443
1.31445
1.31445
1.31445
1.31444
1.31441
1.31439
1.31435
1.31431
1.31427
1.31422
1.31417
1.31411
1.31405
1.31399
1.31393
1.31387
1.3138
1.31374
1.31367
1.31361
1.31354
1.31348
1.31343
1.31337
1.31332
1.31327
1.31323
1.31319
1.31315
1.31313
1.3131
1.31309
1.31308
1.31308
1.31308
1.3131
1.31312
1.31315
1.31319
1.31324
1.3133
1.31336
1.31344
1.31352
1.31362
1.31372
1.31383
1.31395
1.31408
1.31421
1.31436
1.31451
1.31467
1.31484
1.31502
1.31521
1.3154
1.3156
1.3158
1.31602
1.31623
1.31646
1.31669
1.31692
1.31715
1.31739
1.31764
1.31788
1.31812
1.31837
1.31862
1.31886
1.3191
1.31934
1.31958
1.31982
1.32005
1.32027
1.32049
1.32071
1.32092
1.32112
1.32131
1.32149
1.32167
1.32183
1.32199
1.32213
1.32226
1.32239
1.3225
1.32259
1.32268
1.32276
1.32282
1.32287
1.32292
1.32295
1.32297
1.32298
1.32299
1.32299
1.32298
1.32296
1.32294
1.32291
1.32287
1.32283
1.32279
1.32275
1.3227
1.32264
1.32259
1.32253
1.32247
1.32241
1.32235
1.32229
1.32223
1.32216
1.3221
1.32203
1.32197
1.3219
1.32184
1.32177
1.32171
1.32164
1.32158
1.32152
1.32145
1.32139
1.32133
1.32126
1.3212
1.32114
1.32107
1.32101
1.32095
1.32089
1.32083
1.32077
1.3207
1.32064
1.32058
1.32052
1.32046
1.3204
1.32034
1.32028
1.32022
1.32016
1.3201
1.32004
1.31998
1.31992
1.31986
1.3198
1.31974
1.31968
1.31962
1.31956
1.31951
1.31945
1.31939
1.31934
1.31928
1.31923
1.31918
1.31913
1.31908
1.31903
1.31898
1.31893
1.31889
1.31885
1.31881
1.31877
1.31873
1.3187
1.31867
1.31864
1.31862
1.3186
1.31858
1.31856
1.31855
1.31854
1.31853
1.31853
1.31854
1.31854
1.31855
1.31857
1.31859
1.31862
1.31865
1.31869
1.31873
1.31878
1.31883
1.31889
1.31896
1.31903
1.31911
1.3192
1.31929
1.31939
1.3195
1.31961
1.31973
1.31986
1.32
1.32014
1.3203
1.32046
1.32063
1.32081
1.32099
1.32119
1.32139
1.3216
1.32182
1.32205
1.32228
1.32253
1.32278
1.32304
1.32331
1.32358
1.32386
1.32415
1.32445
1.32475
1.32506
1.32537
1.32569
1.32601
1.32634
1.32667
1.327
1.32733
1.32767
1.32801
1.32834
1.32867
1.32901
1.32933
1.32966
1.32998
1.33029
1.3306
1.3309
1.33119
1.33148
1.33175
1.33202
1.33227
1.33252
1.33275
1.33298
1.33319
1.3334
1.33359
1.33378
1.33395
1.33412
1.33428
1.33442
1.33457
1.3347
1.33483
1.33495
1.33506
1.33517
1.33527
1.33537
1.33547
1.33556
1.33565
1.33573
1.33581
1.33589
1.33596
1.33603
1.3361
1.33617
1.33624
1.3363
1.33636
1.33642
1.33647
1.33653
1.33658
1.33663
1.33668
1.33672
1.33677
1.33681
1.33686
1.3369
1.33694
1.33698
1.33702
1.33706
1.3371
1.33714
1.33719
1.33723
1.33728
1.33733
1.33739
1.33745
1.33752
1.33759
1.33767
1.33776
1.33786
1.33797
1.33809
1.33821
1.33836
1.33851
1.33868
1.33886
1.33906
1.33927
1.3395
1.33975
1.34002
1.34031
1.34062
1.34096
1.34131
1.34169
1.34209
1.34252
1.34298
1.34346
1.34398
1.34452
1.34509
1.3457
1.34634
1.34702
1.34773
1.34848
1.34927
1.3501
1.35098
1.3519
1.35288
1.35391
1.355
1.35615
1.35737
1.35867
1.36005
1.36152
1.3631
1.36479
1.36662
1.36858
1.37069
1.37297
1.3754
1.37795
1.38054
1.38302
1.38516
1.38669
1.38728
1.38702
1.3076
1.30705
1.30692
1.30711
1.30755
1.30813
1.30878
1.30944
1.31007
1.31065
1.31117
1.31164
1.31205
1.31242
1.31273
1.31301
1.31325
1.31345
1.31363
1.31378
1.31391
1.31402
1.31411
1.31418
1.31424
1.31428
1.31431
1.31433
1.31434
1.31434
1.31433
1.31431
1.31429
1.31426
1.31422
1.31418
1.31414
1.31409
1.31403
1.31398
1.31392
1.31386
1.31379
1.31373
1.31367
1.3136
1.31354
1.31348
1.31342
1.31336
1.31331
1.31326
1.31321
1.31317
1.31313
1.31309
1.31307
1.31305
1.31303
1.31302
1.31302
1.31303
1.31305
1.31307
1.3131
1.31314
1.31319
1.31325
1.31332
1.31339
1.31348
1.31357
1.31368
1.31379
1.31391
1.31404
1.31418
1.31433
1.31448
1.31465
1.31482
1.315
1.31518
1.31538
1.31558
1.31579
1.316
1.31622
1.31645
1.31668
1.31691
1.31715
1.3174
1.31764
1.31789
1.31813
1.31838
1.31863
1.31888
1.31912
1.31937
1.31961
1.31984
1.32007
1.3203
1.32053
1.32074
1.32095
1.32115
1.32135
1.32153
1.32171
1.32187
1.32203
1.32217
1.3223
1.32243
1.32253
1.32263
1.32272
1.32279
1.32285
1.3229
1.32294
1.32297
1.32299
1.323
1.323
1.323
1.32298
1.32296
1.32294
1.32291
1.32287
1.32283
1.32278
1.32274
1.32269
1.32263
1.32258
1.32252
1.32246
1.3224
1.32233
1.32227
1.32221
1.32214
1.32208
1.32202
1.32195
1.32189
1.32182
1.32176
1.32169
1.32163
1.32156
1.3215
1.32144
1.32137
1.32131
1.32125
1.32118
1.32112
1.32106
1.321
1.32094
1.32088
1.32081
1.32075
1.32069
1.32063
1.32057
1.32051
1.32045
1.32039
1.32033
1.32027
1.32021
1.32015
1.32009
1.32003
1.31996
1.31991
1.31985
1.31979
1.31973
1.31967
1.31961
1.31955
1.31949
1.31944
1.31938
1.31933
1.31927
1.31922
1.31917
1.31911
1.31906
1.31902
1.31897
1.31892
1.31888
1.31884
1.3188
1.31876
1.31872
1.31869
1.31866
1.31863
1.3186
1.31858
1.31856
1.31855
1.31853
1.31852
1.31852
1.31852
1.31852
1.31853
1.31854
1.31856
1.31858
1.3186
1.31863
1.31867
1.31871
1.31876
1.31881
1.31887
1.31894
1.31901
1.31909
1.31918
1.31927
1.31937
1.31948
1.31959
1.31971
1.31984
1.31998
1.32012
1.32028
1.32044
1.32061
1.32079
1.32097
1.32117
1.32137
1.32158
1.3218
1.32203
1.32227
1.32251
1.32277
1.32303
1.3233
1.32357
1.32386
1.32415
1.32445
1.32475
1.32506
1.32538
1.3257
1.32602
1.32635
1.32668
1.32702
1.32736
1.3277
1.32803
1.32837
1.32871
1.32904
1.32937
1.3297
1.33002
1.33034
1.33065
1.33095
1.33125
1.33153
1.33181
1.33207
1.33233
1.33257
1.33281
1.33303
1.33325
1.33345
1.33364
1.33382
1.334
1.33416
1.33431
1.33446
1.3346
1.33473
1.33485
1.33497
1.33508
1.33519
1.33529
1.33539
1.33548
1.33557
1.33566
1.33574
1.33582
1.33589
1.33597
1.33604
1.33611
1.33617
1.33624
1.3363
1.33636
1.33642
1.33647
1.33652
1.33658
1.33663
1.33667
1.33672
1.33676
1.33681
1.33685
1.33689
1.33693
1.33696
1.337
1.33704
1.33708
1.33712
1.33716
1.33721
1.33725
1.33731
1.33736
1.33742
1.33748
1.33756
1.33763
1.33772
1.33782
1.33792
1.33804
1.33816
1.3383
1.33845
1.33862
1.3388
1.33899
1.33921
1.33944
1.33968
1.33995
1.34024
1.34055
1.34088
1.34123
1.34161
1.34201
1.34243
1.34289
1.34337
1.34388
1.34442
1.34499
1.34559
1.34622
1.34689
1.3476
1.34834
1.34912
1.34994
1.35081
1.35172
1.35268
1.35369
1.35475
1.35587
1.35706
1.35831
1.35964
1.36105
1.36255
1.36414
1.36584
1.36764
1.36955
1.37157
1.37365
1.37577
1.37782
1.37968
1.38118
1.38217
1.38249
1.38213
1.30875
1.3083
1.30813
1.30819
1.30845
1.30884
1.30931
1.30981
1.31031
1.31079
1.31123
1.31164
1.31201
1.31235
1.31264
1.3129
1.31313
1.31333
1.31351
1.31366
1.31379
1.31389
1.31399
1.31406
1.31412
1.31417
1.3142
1.31422
1.31424
1.31424
1.31423
1.31422
1.3142
1.31417
1.31414
1.3141
1.31405
1.314
1.31395
1.3139
1.31384
1.31378
1.31372
1.31366
1.3136
1.31353
1.31347
1.31341
1.31335
1.31329
1.31324
1.31319
1.31314
1.3131
1.31306
1.31303
1.313
1.31298
1.31297
1.31296
1.31296
1.31297
1.31299
1.31301
1.31305
1.31309
1.31314
1.3132
1.31327
1.31334
1.31343
1.31353
1.31363
1.31375
1.31387
1.314
1.31414
1.31429
1.31445
1.31461
1.31479
1.31497
1.31516
1.31535
1.31556
1.31577
1.31599
1.31621
1.31644
1.31667
1.31691
1.31715
1.3174
1.31764
1.31789
1.31814
1.31839
1.31864
1.31889
1.31914
1.31939
1.31963
1.31987
1.3201
1.32033
1.32056
1.32078
1.32099
1.32119
1.32139
1.32157
1.32175
1.32192
1.32207
1.32222
1.32235
1.32247
1.32258
1.32267
1.32275
1.32283
1.32288
1.32293
1.32297
1.323
1.32301
1.32302
1.32302
1.32301
1.32299
1.32297
1.32294
1.32291
1.32287
1.32283
1.32278
1.32273
1.32268
1.32262
1.32256
1.3225
1.32244
1.32238
1.32232
1.32225
1.32219
1.32213
1.32206
1.322
1.32193
1.32187
1.3218
1.32174
1.32167
1.32161
1.32154
1.32148
1.32142
1.32135
1.32129
1.32123
1.32117
1.32111
1.32104
1.32098
1.32092
1.32086
1.3208
1.32074
1.32068
1.32062
1.32056
1.3205
1.32043
1.32037
1.32031
1.32025
1.32019
1.32013
1.32007
1.32001
1.31995
1.31989
1.31983
1.31977
1.31971
1.31966
1.3196
1.31954
1.31948
1.31943
1.31937
1.31931
1.31926
1.31921
1.31915
1.3191
1.31905
1.319
1.31896
1.31891
1.31887
1.31882
1.31878
1.31874
1.31871
1.31867
1.31864
1.31861
1.31859
1.31857
1.31855
1.31853
1.31852
1.31851
1.3185
1.3185
1.3185
1.31851
1.31852
1.31854
1.31856
1.31858
1.31861
1.31865
1.31869
1.31874
1.31879
1.31885
1.31892
1.31899
1.31907
1.31915
1.31924
1.31934
1.31945
1.31957
1.31969
1.31982
1.31995
1.3201
1.32025
1.32041
1.32058
1.32076
1.32095
1.32114
1.32135
1.32156
1.32178
1.32201
1.32225
1.32249
1.32275
1.32301
1.32328
1.32356
1.32385
1.32414
1.32444
1.32475
1.32506
1.32538
1.3257
1.32603
1.32636
1.3267
1.32704
1.32738
1.32772
1.32806
1.3284
1.32874
1.32908
1.32942
1.32975
1.33007
1.33039
1.33071
1.33101
1.33131
1.33159
1.33187
1.33214
1.33239
1.33264
1.33287
1.33309
1.33331
1.33351
1.3337
1.33388
1.33405
1.33421
1.33436
1.3345
1.33464
1.33476
1.33489
1.335
1.33511
1.33521
1.33531
1.33541
1.3355
1.33559
1.33567
1.33575
1.33583
1.3359
1.33597
1.33604
1.33611
1.33618
1.33624
1.3363
1.33636
1.33642
1.33647
1.33652
1.33658
1.33662
1.33667
1.33672
1.33676
1.3368
1.33684
1.33688
1.33692
1.33695
1.33699
1.33703
1.33706
1.3371
1.33714
1.33718
1.33723
1.33727
1.33733
1.33738
1.33745
1.33751
1.33759
1.33767
1.33777
1.33787
1.33798
1.3381
1.33824
1.33839
1.33855
1.33873
1.33892
1.33913
1.33935
1.3396
1.33986
1.34015
1.34045
1.34078
1.34113
1.3415
1.3419
1.34232
1.34277
1.34325
1.34375
1.34429
1.34485
1.34545
1.34607
1.34674
1.34743
1.34816
1.34893
1.34974
1.35059
1.35148
1.35242
1.35341
1.35444
1.35553
1.35667
1.35788
1.35915
1.36049
1.3619
1.36339
1.36495
1.36659
1.3683
1.37006
1.37184
1.37358
1.3752
1.37661
1.37768
1.37833
1.3785
1.3781
1.30962
1.30925
1.30907
1.30906
1.30921
1.30947
1.30981
1.31019
1.31058
1.31097
1.31135
1.3117
1.31203
1.31232
1.31259
1.31284
1.31305
1.31324
1.31341
1.31355
1.31368
1.31379
1.31388
1.31395
1.31402
1.31406
1.3141
1.31412
1.31414
1.31414
1.31414
1.31413
1.31411
1.31408
1.31405
1.31401
1.31397
1.31393
1.31388
1.31382
1.31377
1.31371
1.31365
1.31359
1.31353
1.31347
1.3134
1.31334
1.31329
1.31323
1.31318
1.31313
1.31308
1.31304
1.313
1.31297
1.31294
1.31292
1.31291
1.3129
1.3129
1.31291
1.31293
1.31295
1.31299
1.31303
1.31308
1.31314
1.31321
1.31329
1.31338
1.31348
1.31359
1.3137
1.31383
1.31396
1.3141
1.31425
1.31441
1.31458
1.31475
1.31494
1.31513
1.31532
1.31553
1.31574
1.31596
1.31619
1.31642
1.31666
1.3169
1.31714
1.31739
1.31764
1.3179
1.31815
1.3184
1.31866
1.31891
1.31916
1.31941
1.31965
1.3199
1.32013
1.32036
1.32059
1.32081
1.32103
1.32123
1.32143
1.32162
1.3218
1.32196
1.32212
1.32227
1.3224
1.32252
1.32262
1.32272
1.3228
1.32287
1.32292
1.32297
1.323
1.32302
1.32304
1.32304
1.32304
1.32302
1.323
1.32298
1.32295
1.32291
1.32287
1.32282
1.32277
1.32272
1.32267
1.32261
1.32255
1.32249
1.32243
1.32237
1.3223
1.32224
1.32217
1.32211
1.32204
1.32198
1.32191
1.32185
1.32178
1.32172
1.32165
1.32159
1.32153
1.32146
1.3214
1.32134
1.32127
1.32121
1.32115
1.32109
1.32103
1.32097
1.32091
1.32084
1.32078
1.32072
1.32066
1.3206
1.32054
1.32048
1.32042
1.32036
1.3203
1.32024
1.32018
1.32012
1.32006
1.32
1.31994