# vtk DataFile Version 2.0
LBE mesh
ASCII
DATASET STRUCTURED_POINTS
DIMENSIONS 400 100 1
ASPECT_RATIO 1 1 1
ORIGIN 0 0 0
POINT_DATA 40000
SCALARS rho double 1
LOOKUP_TABLE default
1.02633
1.07842
1.09408
1.09818
1.10038
1.10206
1.10323
1.104
1.10453
1.10491
1.10521
1.10543
1.10561
1.10574
1.10585
1.10593
1.10599
1.10604
1.10607
1.10609
1.1061
1.10611
1.10611
1.1061
1.10608
1.10607
1.10604
1.10602
1.10599
1.10596
1.10593
1.10589
1.10586
1.10582
1.10578
1.10574
1.10571
1.10567
1.10563
1.10559
1.10556
1.10552
1.10548
1.10545
1.10542
1.10539
1.10536
1.10534
1.10532
1.1053
1.10528
1.10527
1.10527
1.10526
1.10527
1.10527
1.10529
1.1053
1.10533
1.10536
1.1054
1.10544
1.10549
1.10555
1.10561
1.10568
1.10576
1.10585
1.10595
1.10605
1.10616
1.10628
1.1064
1.10654
1.10668
1.10683
1.10698
1.10715
1.10732
1.10749
1.10768
1.10787
1.10806
1.10827
1.10847
1.10869
1.10891
1.10913
1.10936
1.10959
1.10983
1.11007
1.11031
1.11055
1.11079
1.11104
1.11129
1.11153
1.11178
1.11202
1.11226
1.1125
1.11274
1.11297
1.11321
1.11343
1.11366
1.11387
1.11409
1.11429
1.11449
1.11469
1.11488
1.11506
1.11523
1.1154
1.11556
1.11571
1.11586
1.11599
1.11612
1.11625
1.11636
1.11647
1.11657
1.11667
1.11676
1.11685
1.11693
1.11701
1.11709
1.11716
1.11723
1.11729
1.11736
1.11742
1.11748
1.11754
1.1176
1.11766
1.11772
1.11777
1.11783
1.11789
1.11795
1.11801
1.11807
1.11813
1.11819
1.11826
1.11832
1.11838
1.11845
1.11852
1.11858
1.11865
1.11872
1.11879
1.11886
1.11893
1.119
1.11908
1.11915
1.11922
1.1193
1.11937
1.11944
1.11952
1.11959
1.11966
1.11974
1.11981
1.11988
1.11995
1.12002
1.12009
1.12016
1.12023
1.1203
1.12036
1.12042
1.12048
1.12054
1.1206
1.12066
1.12071
1.12077
1.12082
1.12087
1.12092
1.12096
1.12101
1.12105
1.12109
1.12113
1.12117
1.12121
1.12125
1.12128
1.12132
1.12136
1.12139
1.12143
1.12146
1.1215
1.12154
1.12157
1.12161
1.12165
1.12169
1.12173
1.12177
1.12181
1.12185
1.12189
1.12194
1.12199
1.12203
1.12208
1.12213
1.12218
1.12223
1.12228
1.12233
1.12238
1.12243
1.12248
1.12254
1.12259
1.12264
1.12269
1.12275
1.1228
1.12285
1.12291
1.12296
1.12301
1.12307
1.12312
1.12318
1.12323
1.12329
1.12335
1.12341
1.12347
1.12354
1.12361
1.12368
1.12375
1.12383
1.12391
1.124
1.12409
1.12419
1.12429
1.1244
1.12452
1.12464
1.12477
1.12491
1.12506
1.12521
1.12537
1.12554
1.12572
1.12591
1.1261
1.12631
1.12652
1.12673
1.12696
1.12718
1.12742
1.12766
1.12791
1.12815
1.12841
1.12866
1.12891
1.12917
1.12943
1.12968
1.12993
1.13018
1.13043
1.13068
1.13091
1.13115
1.13138
1.1316
1.13182
1.13203
1.13223
1.13243
1.13262
1.1328
1.13298
1.13315
1.13331
1.13347
1.13362
1.13377
1.13391
1.13404
1.13417
1.1343
1.13442
1.13453
1.13464
1.13474
1.13484
1.13494
1.13503
1.13512
1.1352
1.13528
1.13536
1.13543
1.13549
1.13556
1.13562
1.13567
1.13572
1.13577
1.13581
1.13584
1.13588
1.13591
1.13593
1.13595
1.13597
1.13599
1.136
1.13601
1.13601
1.13602
1.13602
1.13602
1.13602
1.13602
1.13602
1.13602
1.13603
1.13603
1.13604
1.13606
1.13607
1.1361
1.13613
1.13617
1.13622
1.13628
1.13635
1.13643
1.13653
1.13665
1.13678
1.13693
1.1371
1.13729
1.13751
1.13775
1.13802
1.13832
1.13864
1.139
1.13939
1.13981
1.14027
1.14077
1.1413
1.14188
1.1425
1.14316
1.14387
1.14462
1.14542
1.14628
1.14719
1.14815
1.14918
1.15027
1.15143
1.15266
1.15399
1.1554
1.15693
1.15859
1.16039
1.16238
1.16459
1.16709
1.16997
1.17335
1.17745
1.18272
1.19007
1.20044
1.21517
1.24407
1.06398
1.0758
1.08642
1.0941
1.09818
1.1004
1.10183
1.10284
1.10359
1.10414
1.10455
1.10487
1.10512
1.10531
1.10547
1.10559
1.10569
1.10576
1.10582
1.10586
1.10589
1.10591
1.10593
1.10593
1.10593
1.10592
1.10591
1.10589
1.10587
1.10585
1.10582
1.10579
1.10576
1.10573
1.1057
1.10566
1.10563
1.10559
1.10556
1.10553
1.10549
1.10546
1.10543
1.1054
1.10537
1.10534
1.10532
1.10529
1.10528
1.10526
1.10525
1.10524
1.10523
1.10523
1.10524
1.10525
1.10526
1.10528
1.10531
1.10534
1.10538
1.10543
1.10548
1.10554
1.1056
1.10568
1.10576
1.10585
1.10595
1.10605
1.10616
1.10628
1.10641
1.10654
1.10668
1.10683
1.10699
1.10715
1.10733
1.1075
1.10769
1.10788
1.10808
1.10828
1.10849
1.1087
1.10892
1.10915
1.10938
1.10961
1.10984
1.11008
1.11032
1.11056
1.11081
1.11105
1.1113
1.11154
1.11179
1.11203
1.11227
1.11251
1.11275
1.11298
1.11321
1.11344
1.11366
1.11387
1.11409
1.11429
1.11449
1.11468
1.11487
1.11505
1.11522
1.11539
1.11555
1.1157
1.11584
1.11598
1.11611
1.11623
1.11634
1.11645
1.11656
1.11665
1.11674
1.11683
1.11691
1.11699
1.11707
1.11714
1.11721
1.11727
1.11734
1.1174
1.11746
1.11752
1.11758
1.11764
1.1177
1.11776
1.11782
1.11788
1.11794
1.118
1.11806
1.11812
1.11818
1.11824
1.11831
1.11837
1.11844
1.1185
1.11857
1.11864
1.11871
1.11878
1.11885
1.11892
1.11899
1.11907
1.11914
1.11921
1.11928
1.11936
1.11943
1.11951
1.11958
1.11965
1.11973
1.1198
1.11987
1.11994
1.12001
1.12008
1.12015
1.12022
1.12028
1.12035
1.12041
1.12047
1.12053
1.12059
1.12065
1.1207
1.12075
1.12081
1.12086
1.1209
1.12095
1.12099
1.12104
1.12108
1.12112
1.12116
1.1212
1.12124
1.12127
1.12131
1.12134
1.12138
1.12142
1.12145
1.12149
1.12152
1.12156
1.1216
1.12164
1.12168
1.12171
1.12176
1.1218
1.12184
1.12188
1.12193
1.12197
1.12202
1.12207
1.12212
1.12217
1.12222
1.12227
1.12232
1.12237
1.12242
1.12247
1.12252
1.12258
1.12263
1.12268
1.12274
1.12279
1.12284
1.12289
1.12295
1.123
1.12306
1.12311
1.12317
1.12322
1.12328
1.12334
1.1234
1.12347
1.12353
1.1236
1.12367
1.12375
1.12383
1.12391
1.124
1.1241
1.1242
1.1243
1.12441
1.12453
1.12466
1.12479
1.12493
1.12508
1.12523
1.1254
1.12557
1.12575
1.12594
1.12613
1.12633
1.12654
1.12676
1.12699
1.12722
1.12745
1.12769
1.12794
1.12819
1.12844
1.12869
1.12894
1.1292
1.12945
1.12971
1.12996
1.13021
1.13045
1.1307
1.13093
1.13117
1.13139
1.13161
1.13183
1.13204
1.13224
1.13244
1.13263
1.13281
1.13298
1.13315
1.13332
1.13347
1.13362
1.13377
1.13391
1.13404
1.13417
1.13429
1.13441
1.13452
1.13463
1.13474
1.13484
1.13493
1.13502
1.13511
1.13519
1.13527
1.13535
1.13542
1.13548
1.13555
1.1356
1.13566
1.13571
1.13575
1.13579
1.13583
1.13586
1.13589
1.13592
1.13594
1.13596
1.13597
1.13598
1.13599
1.136
1.136
1.136
1.13601
1.13601
1.13601
1.13601
1.13601
1.13602
1.13602
1.13603
1.13605
1.13607
1.13609
1.13613
1.13617
1.13622
1.13628
1.13636
1.13644
1.13655
1.13666
1.1368
1.13695
1.13713
1.13733
1.13755
1.13779
1.13807
1.13837
1.1387
1.13906
1.13945
1.13988
1.14035
1.14085
1.14139
1.14198
1.1426
1.14327
1.14398
1.14474
1.14556
1.14642
1.14734
1.14831
1.14935
1.15045
1.15162
1.15288
1.15422
1.15566
1.15722
1.15891
1.16077
1.16281
1.16511
1.16772
1.17074
1.17434
1.17877
1.18434
1.19155
1.20202
1.22048
1.24991
1.08181
1.08233
1.08848
1.0935
1.09677
1.0991
1.10076
1.10195
1.10281
1.10346
1.10396
1.10436
1.10466
1.10491
1.10511
1.10526
1.10539
1.10549
1.10557
1.10564
1.10568
1.10572
1.10575
1.10576
1.10577
1.10577
1.10577
1.10576
1.10575
1.10573
1.10571
1.10569
1.10566
1.10564
1.10561
1.10558
1.10555
1.10552
1.10549
1.10546
1.10543
1.1054
1.10537
1.10534
1.10531
1.10529
1.10527
1.10525
1.10523
1.10522
1.10521
1.1052
1.1052
1.1052
1.10521
1.10522
1.10523
1.10526
1.10528
1.10532
1.10536
1.10541
1.10546
1.10552
1.10559
1.10567
1.10575
1.10584
1.10594
1.10604
1.10616
1.10628
1.10641
1.10654
1.10668
1.10684
1.10699
1.10716
1.10733
1.10751
1.1077
1.10789
1.10809
1.10829
1.1085
1.10872
1.10894
1.10916
1.10939
1.10962
1.10986
1.1101
1.11034
1.11058
1.11082
1.11107
1.11131
1.11156
1.1118
1.11205
1.11229
1.11252
1.11276
1.11299
1.11322
1.11345
1.11367
1.11388
1.1141
1.1143
1.1145
1.11469
1.11488
1.11506
1.11523
1.11539
1.11555
1.1157
1.11584
1.11597
1.1161
1.11622
1.11634
1.11644
1.11655
1.11664
1.11673
1.11682
1.1169
1.11698
1.11705
1.11712
1.11719
1.11726
1.11732
1.11738
1.11744
1.1175
1.11756
1.11762
1.11768
1.11774
1.1178
1.11786
1.11792
1.11798
1.11804
1.1181
1.11816
1.11823
1.11829
1.11835
1.11842
1.11849
1.11855
1.11862
1.11869
1.11876
1.11883
1.1189
1.11897
1.11905
1.11912
1.11919
1.11927
1.11934
1.11941
1.11949
1.11956
1.11963
1.11971
1.11978
1.11985
1.11992
1.11999
1.12006
1.12013
1.1202
1.12026
1.12033
1.12039
1.12045
1.12051
1.12057
1.12062
1.12068
1.12073
1.12078
1.12083
1.12088
1.12093
1.12097
1.12101
1.12106
1.1211
1.12114
1.12117
1.12121
1.12125
1.12129
1.12132
1.12136
1.12139
1.12143
1.12147
1.1215
1.12154
1.12158
1.12161
1.12165
1.12169
1.12173
1.12178
1.12182
1.12186
1.12191
1.12195
1.122
1.12205
1.12209
1.12214
1.12219
1.12224
1.12229
1.12234
1.1224
1.12245
1.1225
1.12255
1.12261
1.12266
1.12271
1.12276
1.12282
1.12287
1.12293
1.12298
1.12303
1.12309
1.12315
1.1232
1.12326
1.12332
1.12339
1.12345
1.12352
1.12359
1.12366
1.12374
1.12382
1.1239
1.12399
1.12409
1.12419
1.1243
1.12441
1.12453
1.12466
1.12479
1.12494
1.12509
1.12524
1.12541
1.12558
1.12576
1.12595
1.12615
1.12636
1.12657
1.12679
1.12701
1.12724
1.12748
1.12772
1.12797
1.12822
1.12847
1.12872
1.12898
1.12923
1.12949
1.12974
1.12999
1.13024
1.13048
1.13072
1.13096
1.13119
1.13142
1.13164
1.13185
1.13206
1.13226
1.13245
1.13264
1.13282
1.133
1.13316
1.13333
1.13348
1.13363
1.13378
1.13391
1.13405
1.13417
1.1343
1.13441
1.13453
1.13463
1.13474
1.13484
1.13493
1.13502
1.13511
1.13519
1.13527
1.13534
1.13541
1.13548
1.13554
1.1356
1.13565
1.1357
1.13574
1.13578
1.13582
1.13585
1.13588
1.1359
1.13592
1.13594
1.13596
1.13597
1.13598
1.13598
1.13599
1.13599
1.13599
1.13599
1.13599
1.13599
1.13599
1.136
1.13601
1.13602
1.13603
1.13605
1.13608
1.13612
1.13616
1.13621
1.13627
1.13635
1.13644
1.13654
1.13666
1.1368
1.13696
1.13714
1.13734
1.13756
1.13781
1.13809
1.13839
1.13872
1.13909
1.13949
1.13992
1.14039
1.1409
1.14145
1.14203
1.14266
1.14334
1.14405
1.14482
1.14564
1.1465
1.14743
1.14841
1.14945
1.15056
1.15174
1.153
1.15435
1.1558
1.15737
1.15907
1.16094
1.163
1.16531
1.16793
1.17096
1.17451
1.17879
1.18414
1.19105
1.1997
1.20909
1.2182
1.09014
1.08945
1.09156
1.09411
1.09667
1.0987
1.10021
1.10136
1.10225
1.10294
1.10349
1.10392
1.10427
1.10455
1.10478
1.10497
1.10512
1.10524
1.10534
1.10542
1.10548
1.10553
1.10557
1.1056
1.10562
1.10563
1.10563
1.10563
1.10563
1.10562
1.1056
1.10559
1.10557
1.10554
1.10552
1.10549
1.10547
1.10544
1.10541
1.10539
1.10536
1.10533
1.10531
1.10528
1.10526
1.10523
1.10521
1.1052
1.10518
1.10517
1.10516
1.10516
1.10516
1.10516
1.10517
1.10518
1.1052
1.10522
1.10525
1.10529
1.10533
1.10538
1.10544
1.1055
1.10557
1.10564
1.10573
1.10582
1.10592
1.10603
1.10614
1.10626
1.10639
1.10653
1.10668
1.10683
1.10699
1.10715
1.10733
1.10751
1.1077
1.10789
1.10809
1.10829
1.10851
1.10872
1.10894
1.10917
1.1094
1.10963
1.10987
1.11011
1.11035
1.1106
1.11084
1.11109
1.11133
1.11158
1.11182
1.11207
1.11231
1.11255
1.11278
1.11301
1.11324
1.11347
1.11369
1.1139
1.11411
1.11432
1.11452
1.11471
1.11489
1.11507
1.11524
1.1154
1.11556
1.11571
1.11585
1.11598
1.11611
1.11623
1.11634
1.11645
1.11655
1.11664
1.11673
1.11681
1.11689
1.11697
1.11704
1.11711
1.11718
1.11724
1.11731
1.11737
1.11743
1.11749
1.11755
1.1176
1.11766
1.11772
1.11778
1.11784
1.1179
1.11796
1.11802
1.11808
1.11814
1.1182
1.11827
1.11833
1.1184
1.11846
1.11853
1.1186
1.11867
1.11874
1.11881
1.11888
1.11895
1.11902
1.11909
1.11916
1.11924
1.11931
1.11938
1.11946
1.11953
1.1196
1.11968
1.11975
1.11982
1.11989
1.11996
1.12003
1.1201
1.12016
1.12023
1.12029
1.12036
1.12042
1.12048
1.12053
1.12059
1.12064
1.1207
1.12075
1.1208
1.12084
1.12089
1.12094
1.12098
1.12102
1.12106
1.1211
1.12114
1.12118
1.12121
1.12125
1.12129
1.12132
1.12136
1.1214
1.12143
1.12147
1.1215
1.12154
1.12158
1.12162
1.12166
1.1217
1.12174
1.12178
1.12183
1.12187
1.12192
1.12196
1.12201
1.12206
1.12211
1.12216
1.12221
1.12226
1.12231
1.12236
1.12241
1.12247
1.12252
1.12257
1.12262
1.12268
1.12273
1.12278
1.12284
1.12289
1.12294
1.123
1.12306
1.12311
1.12317
1.12323
1.12329
1.12335
1.12342
1.12349
1.12356
1.12363
1.12371
1.1238
1.12388
1.12397
1.12407
1.12417
1.12428
1.1244
1.12452
1.12465
1.12479
1.12493
1.12508
1.12524
1.12541
1.12559
1.12577
1.12596
1.12616
1.12637
1.12658
1.12681
1.12703
1.12727
1.12751
1.12775
1.128
1.12825
1.1285
1.12875
1.12901
1.12927
1.12952
1.12977
1.13002
1.13027
1.13052
1.13076
1.13099
1.13122
1.13145
1.13167
1.13188
1.13208
1.13228
1.13248
1.13266
1.13284
1.13302
1.13318
1.13334
1.1335
1.13365
1.13379
1.13393
1.13406
1.13418
1.1343
1.13442
1.13453
1.13464
1.13474
1.13484
1.13494
1.13503
1.13511
1.13519
1.13527
1.13534
1.13541
1.13548
1.13554
1.1356
1.13565
1.1357
1.13574
1.13578
1.13581
1.13585
1.13587
1.1359
1.13592
1.13593
1.13595
1.13596
1.13596
1.13597
1.13597
1.13597
1.13597
1.13597
1.13597
1.13597
1.13598
1.13598
1.13599
1.136
1.13601
1.13603
1.13606
1.13609
1.13614
1.13619
1.13625
1.13633
1.13642
1.13652
1.13664
1.13678
1.13694
1.13712
1.13732
1.13755
1.1378
1.13808
1.13838
1.13872
1.13909
1.13949
1.13992
1.1404
1.14091
1.14146
1.14205
1.14268
1.14335
1.14408
1.14485
1.14566
1.14653
1.14746
1.14844
1.14949
1.15059
1.15178
1.15303
1.15438
1.15583
1.15738
1.15907
1.16092
1.16295
1.16521
1.16775
1.17065
1.174
1.17792
1.18249
1.18779
1.19368
1.19847
1.19864
1.09418
1.09367
1.09433
1.09571
1.09733
1.0988
1.10005
1.10108
1.10192
1.10259
1.10314
1.10358
1.10395
1.10425
1.1045
1.1047
1.10487
1.10501
1.10512
1.10522
1.10529
1.10535
1.1054
1.10544
1.10547
1.10549
1.1055
1.10551
1.10551
1.1055
1.10549
1.10548
1.10547
1.10545
1.10543
1.10541
1.10539
1.10536
1.10534
1.10531
1.10529
1.10526
1.10524
1.10522
1.1052
1.10518
1.10516
1.10514
1.10513
1.10512
1.10511
1.10511
1.10511
1.10512
1.10513
1.10514
1.10516
1.10518
1.10522
1.10525
1.1053
1.10535
1.1054
1.10547
1.10554
1.10562
1.1057
1.1058
1.1059
1.10601
1.10612
1.10625
1.10638
1.10652
1.10666
1.10682
1.10698
1.10715
1.10732
1.1075
1.10769
1.10789
1.10809
1.1083
1.10851
1.10873
1.10895
1.10918
1.10941
1.10965
1.10988
1.11013
1.11037
1.11061
1.11086
1.11111
1.11136
1.1116
1.11185
1.11209
1.11233
1.11257
1.11281
1.11304
1.11327
1.1135
1.11372
1.11393
1.11414
1.11435
1.11455
1.11474
1.11492
1.1151
1.11527
1.11543
1.11558
1.11573
1.11587
1.116
1.11612
1.11624
1.11635
1.11645
1.11655
1.11664
1.11673
1.11681
1.11689
1.11697
1.11704
1.1171
1.11717
1.11723
1.11729
1.11735
1.11741
1.11747
1.11753
1.11759
1.11764
1.1177
1.11776
1.11781
1.11787
1.11793
1.11799
1.11805
1.11811
1.11817
1.11824
1.1183
1.11837
1.11843
1.1185
1.11857
1.11863
1.1187
1.11877
1.11884
1.11891
1.11899
1.11906
1.11913
1.1192
1.11927
1.11935
1.11942
1.11949
1.11957
1.11964
1.11971
1.11978
1.11985
1.11992
1.11999
1.12006
1.12012
1.12019
1.12025
1.12031
1.12037
1.12043
1.12049
1.12055
1.1206
1.12065
1.1207
1.12075
1.1208
1.12085
1.12089
1.12093
1.12098
1.12102
1.12106
1.1211
1.12113
1.12117
1.12121
1.12124
1.12128
1.12132
1.12135
1.12139
1.12142
1.12146
1.1215
1.12154
1.12158
1.12162
1.12166
1.1217
1.12174
1.12178
1.12183
1.12187
1.12192
1.12197
1.12202
1.12206
1.12211
1.12216
1.12221
1.12226
1.12232
1.12237
1.12242
1.12247
1.12252
1.12258
1.12263
1.12268
1.12274
1.12279
1.12284
1.1229
1.12295
1.12301
1.12307
1.12313
1.12319
1.12325
1.12331
1.12338
1.12345
1.12352
1.1236
1.12368
1.12376
1.12385
1.12394
1.12404
1.12414
1.12426
1.12437
1.1245
1.12463
1.12477
1.12492
1.12507
1.12523
1.1254
1.12558
1.12577
1.12596
1.12617
1.12638
1.12659
1.12682
1.12705
1.12729
1.12753
1.12777
1.12802
1.12828
1.12853
1.12879
1.12904
1.1293
1.12956
1.12981
1.13006
1.13031
1.13056
1.1308
1.13103
1.13126
1.13149
1.1317
1.13191
1.13212
1.13232
1.13251
1.13269
1.13287
1.13304
1.13321
1.13337
1.13352
1.13367
1.13381
1.13394
1.13407
1.1342
1.13432
1.13443
1.13455
1.13465
1.13475
1.13485
1.13495
1.13503
1.13512
1.1352
1.13528
1.13535
1.13542
1.13548
1.13554
1.1356
1.13565
1.1357
1.13574
1.13578
1.13581
1.13584
1.13587
1.13589
1.13591
1.13593
1.13594
1.13595
1.13595
1.13596
1.13596
1.13596
1.13596
1.13595
1.13595
1.13595
1.13595
1.13596
1.13596
1.13597
1.13598
1.136
1.13603
1.13606
1.13611
1.13616
1.13622
1.1363
1.13638
1.13649
1.13661
1.13675
1.13691
1.13709
1.13729
1.13751
1.13776
1.13804
1.13835
1.13869
1.13905
1.13946
1.13989
1.14037
1.14088
1.14143
1.14202
1.14265
1.14333
1.14405
1.14482
1.14564
1.14651
1.14743
1.14841
1.14945
1.15055
1.15173
1.15297
1.15431
1.15573
1.15726
1.15891
1.16071
1.16267
1.16483
1.16722
1.1699
1.1729
1.17626
1.17996
1.18375
1.18715
1.1895
1.18888
1.0968
1.09634
1.09651
1.09724
1.09821
1.09923
1.1002
1.10105
1.10178
1.10239
1.10291
1.10334
1.1037
1.10401
1.10426
1.10447
1.10465
1.1048
1.10493
1.10503
1.10512
1.10519
1.10524
1.10529
1.10532
1.10535
1.10537
1.10538
1.10539
1.10539
1.10539
1.10538
1.10537
1.10535
1.10534
1.10532
1.1053
1.10528
1.10526
1.10524
1.10522
1.10519
1.10517
1.10515
1.10513
1.10512
1.1051
1.10509
1.10507
1.10507
1.10506
1.10506
1.10506
1.10507
1.10508
1.10509
1.10512
1.10514
1.10517
1.10521
1.10526
1.10531
1.10537
1.10543
1.1055
1.10558
1.10567
1.10577
1.10587
1.10598
1.1061
1.10622
1.10635
1.10649
1.10664
1.1068
1.10696
1.10713
1.10731
1.10749
1.10768
1.10788
1.10808
1.10829
1.10851
1.10873
1.10895
1.10918
1.10942
1.10965
1.1099
1.11014
1.11039
1.11063
1.11088
1.11113
1.11138
1.11163
1.11188
1.11212
1.11236
1.11261
1.11284
1.11308
1.11331
1.11353
1.11376
1.11397
1.11418
1.11439
1.11458
1.11477
1.11496
1.11513
1.1153
1.11546
1.11562
1.11576
1.1159
1.11603
1.11615
1.11626
1.11637
1.11647
1.11657
1.11666
1.11674
1.11682
1.1169
1.11697
1.11704
1.1171
1.11716
1.11722
1.11728
1.11734
1.1174
1.11745
1.11751
1.11757
1.11762
1.11768
1.11773
1.11779
1.11785
1.1179
1.11796
1.11802
1.11808
1.11814
1.1182
1.11827
1.11833
1.1184
1.11846
1.11853
1.1186
1.11866
1.11873
1.1188
1.11887
1.11894
1.11901
1.11909
1.11916
1.11923
1.1193
1.11937
1.11945
1.11952
1.11959
1.11966
1.11973
1.1198
1.11987
1.11994
1.12
1.12007
1.12014
1.1202
1.12026
1.12032
1.12038
1.12044
1.12049
1.12055
1.1206
1.12065
1.1207
1.12075
1.12079
1.12084
1.12088
1.12092
1.12096
1.121
1.12104
1.12108
1.12111
1.12115
1.12119
1.12122
1.12126
1.1213
1.12133
1.12137
1.12141
1.12144
1.12148
1.12152
1.12156
1.1216
1.12164
1.12169
1.12173
1.12177
1.12182
1.12186
1.12191
1.12196
1.12201
1.12206
1.12211
1.12216
1.12221
1.12226
1.12231
1.12236
1.12241
1.12246
1.12252
1.12257
1.12262
1.12268
1.12273
1.12278
1.12284
1.12289
1.12295
1.12301
1.12307
1.12313
1.12319
1.12326
1.12332
1.12339
1.12347
1.12354
1.12362
1.12371
1.1238
1.1239
1.124
1.1241
1.12422
1.12434
1.12446
1.1246
1.12474
1.12489
1.12505
1.12521
1.12538
1.12557
1.12576
1.12596
1.12616
1.12638
1.1266
1.12682
1.12706
1.1273
1.12754
1.12779
1.12805
1.1283
1.12856
1.12882
1.12908
1.12934
1.1296
1.12985
1.13011
1.13036
1.1306
1.13084
1.13108
1.13131
1.13153
1.13175
1.13196
1.13216
1.13236
1.13255
1.13273
1.13291
1.13308
1.13324
1.1334
1.13355
1.13369
1.13383
1.13397
1.1341
1.13422
1.13434
1.13445
1.13456
1.13467
1.13477
1.13487
1.13496
1.13505
1.13513
1.13521
1.13529
1.13536
1.13543
1.13549
1.13555
1.13561
1.13566
1.13571
1.13575
1.13578
1.13582
1.13585
1.13587
1.13589
1.13591
1.13592
1.13593
1.13594
1.13594
1.13595
1.13594
1.13594
1.13594
1.13594
1.13593
1.13593
1.13593
1.13593
1.13593
1.13594
1.13595
1.13597
1.13599
1.13602
1.13606
1.13611
1.13618
1.13625
1.13634
1.13644
1.13656
1.13669
1.13685
1.13703
1.13723
1.13745
1.1377
1.13798
1.13829
1.13862
1.13899
1.13939
1.13983
1.1403
1.14081
1.14136
1.14195
1.14258
1.14326
1.14398
1.14474
1.14556
1.14642
1.14734
1.14831
1.14934
1.15043
1.15159
1.15282
1.15412
1.15551
1.157
1.1586
1.16032
1.16217
1.16419
1.16639
1.16879
1.17139
1.17416
1.17697
1.17963
1.18168
1.18274
1.18251
1.09861
1.09815
1.09815
1.09851
1.09909
1.09979
1.1005
1.10117
1.10178
1.10232
1.10278
1.10318
1.10353
1.10382
1.10407
1.10429
1.10447
1.10462
1.10475
1.10486
1.10495
1.10503
1.10509
1.10514
1.10519
1.10522
1.10524
1.10526
1.10527
1.10527
1.10528
1.10527
1.10527
1.10526
1.10525
1.10523
1.10522
1.1052
1.10518
1.10516
1.10514
1.10512
1.1051
1.10508
1.10507
1.10505
1.10504
1.10502
1.10502
1.10501
1.105
1.105
1.10501
1.10501
1.10503
1.10504
1.10507
1.10509
1.10513
1.10517
1.10521
1.10527
1.10532
1.10539
1.10547
1.10555
1.10563
1.10573
1.10583
1.10595
1.10607
1.10619
1.10633
1.10647
1.10662
1.10678
1.10694
1.10711
1.10729
1.10748
1.10767
1.10787
1.10807
1.10829
1.1085
1.10873
1.10895
1.10919
1.10942
1.10966
1.10991
1.11015
1.1104
1.11065
1.11091
1.11116
1.11141
1.11166
1.11191
1.11216
1.1124
1.11264
1.11288
1.11312
1.11335
1.11358
1.1138
1.11402
1.11423
1.11443
1.11463
1.11482
1.115
1.11518
1.11535
1.11551
1.11566
1.1158
1.11594
1.11606
1.11618
1.11629
1.1164
1.1165
1.11659
1.11667
1.11676
1.11683
1.1169
1.11697
1.11704
1.1171
1.11716
1.11722
1.11727
1.11733
1.11738
1.11744
1.11749
1.11754
1.1176
1.11765
1.11771
1.11776
1.11782
1.11787
1.11793
1.11799
1.11805
1.1181
1.11817
1.11823
1.11829
1.11835
1.11842
1.11848
1.11855
1.11862
1.11869
1.11875
1.11882
1.11889
1.11896
1.11903
1.11911
1.11918
1.11925
1.11932
1.11939
1.11946
1.11953
1.1196
1.11967
1.11974
1.11981
1.11988
1.11994
1.12001
1.12007
1.12014
1.1202
1.12026
1.12032
1.12037
1.12043
1.12048
1.12053
1.12058
1.12063
1.12068
1.12073
1.12077
1.12081
1.12086
1.1209
1.12094
1.12097
1.12101
1.12105
1.12109
1.12112
1.12116
1.1212
1.12123
1.12127
1.1213
1.12134
1.12138
1.12142
1.12146
1.1215
1.12154
1.12158
1.12162
1.12166
1.12171
1.12175
1.1218
1.12185
1.12189
1.12194
1.12199
1.12204
1.12209
1.12214
1.12219
1.12224
1.12229
1.12234
1.1224
1.12245
1.1225
1.12255
1.12261
1.12266
1.12271
1.12277
1.12282
1.12288
1.12294
1.123
1.12306
1.12312
1.12319
1.12326
1.12333
1.1234
1.12348
1.12356
1.12365
1.12374
1.12384
1.12394
1.12405
1.12417
1.12429
1.12442
1.12455
1.1247
1.12485
1.12501
1.12518
1.12536
1.12554
1.12574
1.12594
1.12615
1.12637
1.12659
1.12682
1.12706
1.12731
1.12755
1.12781
1.12807
1.12833
1.12859
1.12885
1.12911
1.12938
1.12964
1.1299
1.13015
1.1304
1.13065
1.13089
1.13113
1.13136
1.13158
1.1318
1.132
1.13221
1.1324
1.13259
1.13277
1.13295
1.13312
1.13328
1.13343
1.13358
1.13373
1.13386
1.134
1.13412
1.13425
1.13436
1.13448
1.13459
1.13469
1.13479
1.13489
1.13498
1.13507
1.13515
1.13523
1.13531
1.13538
1.13545
1.13551
1.13557
1.13562
1.13567
1.13572
1.13576
1.13579
1.13582
1.13585
1.13588
1.13589
1.13591
1.13592
1.13593
1.13593
1.13594
1.13594
1.13593
1.13593
1.13592
1.13592
1.13591
1.13591
1.1359
1.1359
1.1359
1.1359
1.13591
1.13593
1.13595
1.13598
1.13601
1.13606
1.13612
1.13619
1.13628
1.13637
1.13649
1.13663
1.13678
1.13695
1.13715
1.13737
1.13762
1.1379
1.1382
1.13853
1.1389
1.1393
1.13973
1.1402
1.14071
1.14126
1.14184
1.14247
1.14314
1.14386
1.14462
1.14543
1.14628
1.14719
1.14815
1.14917
1.15024
1.15137
1.15257
1.15384
1.15519
1.15662
1.15814
1.15977
1.1615
1.16336
1.16534
1.16744
1.16964
1.17186
1.17397
1.17581
1.17712
1.17764
1.17745
1.09988
1.09947
1.09938
1.09954
1.0999
1.10036
1.10088
1.10139
1.10188
1.10234
1.10274
1.1031
1.10342
1.10369
1.10393
1.10414
1.10432
1.10447
1.1046
1.10471
1.10481
1.10489
1.10495
1.10501
1.10506
1.10509
1.10512
1.10514
1.10516
1.10517
1.10517
1.10517
1.10517
1.10516
1.10515
1.10514
1.10513
1.10511
1.1051
1.10508
1.10507
1.10505
1.10503
1.10502
1.105
1.10499
1.10497
1.10496
1.10495
1.10495
1.10495
1.10495
1.10495
1.10496
1.10497
1.10499
1.10501
1.10504
1.10508
1.10512
1.10516
1.10522
1.10528
1.10534
1.10542
1.1055
1.10559
1.10569
1.10579
1.10591
1.10603
1.10616
1.10629
1.10644
1.10659
1.10675
1.10691
1.10709
1.10727
1.10745
1.10765
1.10785
1.10806
1.10827
1.10849
1.10872
1.10895
1.10919
1.10943
1.10967
1.10992
1.11017
1.11042
1.11067
1.11093
1.11118
1.11144
1.11169
1.11194
1.11219
1.11244
1.11268
1.11293
1.11316
1.1134
1.11363
1.11385
1.11407
1.11428
1.11449
1.11468
1.11487
1.11506
1.11523
1.1154
1.11556
1.11571
1.11585
1.11598
1.11611
1.11622
1.11633
1.11643
1.11653
1.11661
1.1167
1.11677
1.11685
1.11692
1.11698
1.11704
1.1171
1.11716
1.11721
1.11726
1.11732
1.11737
1.11742
1.11747
1.11752
1.11757
1.11762
1.11768
1.11773
1.11778
1.11784
1.11789
1.11795
1.118
1.11806
1.11812
1.11818
1.11824
1.11831
1.11837
1.11843
1.1185
1.11856
1.11863
1.1187
1.11877
1.11884
1.11891
1.11897
1.11905
1.11912
1.11919
1.11926
1.11933
1.1194
1.11947
1.11954
1.11961
1.11967
1.11974
1.11981
1.11987
1.11994
1.12
1.12006
1.12013
1.12019
1.12024
1.1203
1.12035
1.12041
1.12046
1.12051
1.12056
1.1206
1.12065
1.12069
1.12074
1.12078
1.12082
1.12086
1.1209
1.12094
1.12097
1.12101
1.12105
1.12108
1.12112
1.12116
1.12119
1.12123
1.12127
1.1213
1.12134
1.12138
1.12142
1.12146
1.1215
1.12154
1.12159
1.12163
1.12168
1.12172
1.12177
1.12182
1.12186
1.12191
1.12196
1.12201
1.12206
1.12211
1.12216
1.12221
1.12226
1.12231
1.12237
1.12242
1.12247
1.12252
1.12258
1.12263
1.12269
1.12274
1.1228
1.12286
1.12292
1.12298
1.12304
1.12311
1.12318
1.12325
1.12333
1.1234
1.12349
1.12358
1.12367
1.12377
1.12387
1.12398
1.1241
1.12423
1.12436
1.1245
1.12464
1.1248
1.12496
1.12514
1.12532
1.12551
1.1257
1.12591
1.12612
1.12635
1.12658
1.12681
1.12706
1.12731
1.12756
1.12782
1.12808
1.12834
1.12861
1.12888
1.12915
1.12941
1.12968
1.12994
1.1302
1.13045
1.1307
1.13094
1.13118
1.13141
1.13163
1.13185
1.13206
1.13226
1.13245
1.13264
1.13282
1.133
1.13316
1.13332
1.13348
1.13362
1.13376
1.1339
1.13403
1.13416
1.13428
1.13439
1.13451
1.13461
1.13472
1.13482
1.13491
1.135
1.13509
1.13517
1.13525
1.13533
1.1354
1.13547
1.13553
1.13559
1.13564
1.13569
1.13573
1.13577
1.13581
1.13584
1.13586
1.13588
1.1359
1.13591
1.13592
1.13593
1.13593
1.13593
1.13593
1.13592
1.13592
1.13591
1.1359
1.13589
1.13588
1.13587
1.13587
1.13586
1.13587
1.13587
1.13588
1.1359
1.13592
1.13596
1.136
1.13605
1.13612
1.1362
1.1363
1.13641
1.13654
1.13669
1.13686
1.13705
1.13727
1.13752
1.13779
1.13809
1.13842
1.13878
1.13917
1.1396
1.14007
1.14057
1.14111
1.14169
1.14232
1.14298
1.14369
1.14444
1.14524
1.14608
1.14698
1.14792
1.14892
1.14997
1.15107
1.15224
1.15346
1.15476
1.15612
1.15756
1.15908
1.16068
1.16237
1.16412
1.16594
1.16776
1.16952
1.17112
1.17241
1.17326
1.17356
1.17329
1.10079
1.10044
1.10031
1.10037
1.10058
1.10089
1.10126
1.10165
1.10204
1.10241
1.10275
1.10307
1.10335
1.1036
1.10382
1.10402
1.10419
1.10434
1.10447
1.10458
1.10467
1.10476
1.10482
1.10488
1.10493
1.10497
1.105
1.10503
1.10504
1.10506
1.10507
1.10507
1.10507
1.10507
1.10506
1.10505
1.10504
1.10503
1.10502
1.105
1.10499
1.10497
1.10496
1.10494
1.10493
1.10492
1.10491
1.1049
1.10489
1.10489
1.10489
1.10489
1.10489
1.1049
1.10492
1.10493
1.10496
1.10499
1.10502
1.10506
1.10511
1.10517
1.10523
1.1053
1.10537
1.10546
1.10555
1.10564
1.10575
1.10587
1.10599
1.10612
1.10626
1.1064
1.10655
1.10671
1.10688
1.10706
1.10724
1.10743
1.10763
1.10783
1.10804
1.10826
1.10848
1.10871
1.10895
1.10919
1.10943
1.10968
1.10993
1.11018
1.11044
1.11069
1.11095
1.11121
1.11147
1.11172
1.11198
1.11223
1.11248
1.11273
1.11298
1.11321
1.11345
1.11368
1.11391
1.11413
1.11434
1.11454
1.11474
1.11493
1.11512
1.11529
1.11546
1.11562
1.11576
1.1159
1.11603
1.11615
1.11627
1.11637
1.11647
1.11656
1.11665
1.11672
1.1168
1.11686
1.11693
1.11699
1.11705
1.1171
1.11715
1.1172
1.11725
1.1173
1.11735
1.1174
1.11745
1.1175
1.11754
1.11759
1.11764
1.11769
1.11774
1.1178
1.11785
1.1179
1.11796
1.11802
1.11807
1.11813
1.11819
1.11825
1.11831
1.11838
1.11844
1.11851
1.11857
1.11864
1.1187
1.11877
1.11884
1.11891
1.11898
1.11905
1.11912
1.11919
1.11926
1.11933
1.11939
1.11946
1.11953
1.1196
1.11967
1.11973
1.1198
1.11986
1.11992
1.11999
1.12005
1.1201
1.12016
1.12022
1.12027
1.12032
1.12038
1.12043
1.12047
1.12052
1.12057
1.12061
1.12065
1.12069
1.12074
1.12077
1.12081
1.12085
1.12089
1.12093
1.12096
1.121
1.12103
1.12107
1.12111
1.12114
1.12118
1.12122
1.12126
1.1213
1.12134
1.12138
1.12142
1.12146
1.1215
1.12155
1.12159
1.12164
1.12168
1.12173
1.12178
1.12182
1.12187
1.12192
1.12197
1.12202
1.12207
1.12212
1.12217
1.12222
1.12228
1.12233
1.12238
1.12243
1.12249
1.12254
1.12259
1.12265
1.12271
1.12277
1.12283
1.12289
1.12295
1.12302
1.12309
1.12316
1.12324
1.12332
1.1234
1.12349
1.12359
1.12369
1.12379
1.12391
1.12403
1.12415
1.12429
1.12443
1.12458
1.12474
1.12491
1.12508
1.12527
1.12546
1.12566
1.12587
1.12609
1.12632
1.12655
1.1268
1.12704
1.1273
1.12756
1.12782
1.12809
1.12836
1.12863
1.12891
1.12918
1.12945
1.12972
1.12998
1.13024
1.1305
1.13075
1.131
1.13124
1.13147
1.13169
1.13191
1.13212
1.13232
1.13251
1.1327
1.13288
1.13305
1.13321
1.13337
1.13352
1.13367
1.13381
1.13394
1.13407
1.13419
1.13431
1.13443
1.13454
1.13465
1.13475
1.13485
1.13494
1.13503
1.13512
1.1352
1.13528
1.13535
1.13542
1.13549
1.13555
1.13561
1.13566
1.13571
1.13575
1.13579
1.13582
1.13585
1.13587
1.13589
1.13591
1.13592
1.13593
1.13593
1.13593
1.13593
1.13592
1.13591
1.1359
1.13589
1.13588
1.13586
1.13585
1.13584
1.13583
1.13582
1.13582
1.13582
1.13583
1.13584
1.13586
1.13589
1.13593
1.13598
1.13604
1.13612
1.13621
1.13632
1.13644
1.13659
1.13675
1.13694
1.13715
1.13739
1.13766
1.13795
1.13828
1.13863
1.13902
1.13945
1.13991
1.1404
1.14094
1.14151
1.14213
1.14278
1.14348
1.14422
1.14501
1.14584
1.14672
1.14764
1.14861
1.14963
1.1507
1.15183
1.15301
1.15424
1.15553
1.15688
1.15829
1.15975
1.16126
1.16281
1.16436
1.16587
1.16727
1.16848
1.16941
1.16998
1.17014
1.16984
1.10148
1.10118
1.10103
1.10103
1.10115
1.10136
1.10162
1.10191
1.10222
1.10252
1.10281
1.10308
1.10332
1.10355
1.10375
1.10393
1.10409
1.10423
1.10436
1.10446
1.10456
1.10464
1.10471
1.10477
1.10482
1.10486
1.10489
1.10492
1.10494
1.10495
1.10497
1.10497
1.10497
1.10497
1.10497
1.10496
1.10496
1.10495
1.10494
1.10492
1.10491
1.1049
1.10489
1.10487
1.10486
1.10485
1.10484
1.10483
1.10483
1.10482
1.10482
1.10483
1.10483
1.10484
1.10486
1.10488
1.1049
1.10493
1.10497
1.10501
1.10506
1.10511
1.10517
1.10524
1.10532
1.1054
1.1055
1.1056
1.1057
1.10582
1.10594
1.10607
1.10621
1.10636
1.10651
1.10668
1.10685
1.10703
1.10721
1.1074
1.1076
1.10781
1.10802
1.10824
1.10847
1.1087
1.10894
1.10918
1.10943
1.10968
1.10993
1.11019
1.11045
1.11071
1.11097
1.11124
1.1115
1.11176
1.11202
1.11227
1.11253
1.11278
1.11302
1.11327
1.1135
1.11374
1.11396
1.11419
1.1144
1.11461
1.11481
1.115
1.11518
1.11536
1.11552
1.11568
1.11583
1.11596
1.11609
1.11621
1.11632
1.11642
1.11651
1.1166
1.11668
1.11675
1.11682
1.11688
1.11694
1.117
1.11705
1.1171
1.11715
1.1172
1.11725
1.11729
1.11734
1.11738
1.11742
1.11747
1.11751
1.11756
1.11761
1.11766
1.1177
1.11775
1.1178
1.11786
1.11791
1.11796
1.11802
1.11808
1.11813
1.11819
1.11825
1.11831
1.11838
1.11844
1.1185
1.11857
1.11863
1.1187
1.11877
1.11884
1.1189
1.11897
1.11904
1.11911
1.11918
1.11924
1.11931
1.11938
1.11945
1.11951
1.11958
1.11965
1.11971
1.11977
1.11984
1.1199