# vtk DataFile Version 2.0
LBE mesh
ASCII
DATASET STRUCTURED_POINTS
DIMENSIONS 400 100 1
ASPECT_RATIO 1 1 1
ORIGIN 0 0 0
POINT_DATA 40000
SCALARS rho double 1
LOOKUP_TABLE default
0.932084
0.959538
0.968424
0.972292
0.9747
0.976269
0.977288
0.977975
0.978474
0.978854
0.979164
0.979427
0.979664
0.979885
0.980103
0.98032
0.980543
0.980772
0.98101
0.981257
0.981514
0.98178
0.982057
0.982341
0.982635
0.982934
0.98324
0.98355
0.983865
0.984179
0.984496
0.984809
0.985121
0.985427
0.985728
0.986019
0.986302
0.986572
0.986832
0.987076
0.987308
0.987523
0.987724
0.987907
0.988075
0.988224
0.988359
0.988474
0.988575
0.988657
0.988726
0.988776
0.988813
0.988834
0.988843
0.988837
0.988821
0.988793
0.988758
0.988712
0.988664
0.988608
0.988553
0.988496
0.988442
0.98839
0.988345
0.988305
0.988276
0.988253
0.988243
0.988241
0.988253
0.988272
0.988305
0.988345
0.988397
0.988455
0.988523
0.988596
0.988677
0.988763
0.988857
0.988955
0.989061
0.989173
0.989294
0.989422
0.989563
0.989713
0.989878
0.990057
0.990252
0.990463
0.990692
0.990938
0.991202
0.991482
0.991778
0.992087
0.992408
0.992737
0.993074
0.993413
0.993754
0.994091
0.994423
0.994747
0.995061
0.995363
0.99565
0.995922
0.996178
0.996418
0.996641
0.996847
0.997038
0.997213
0.997375
0.997524
0.997661
0.997787
0.997904
0.998013
0.998116
0.998213
0.998306
0.998396
0.998485
0.998573
0.998662
0.998753
0.998847
0.998944
0.999046
0.999154
0.999267
0.999388
0.999515
0.999651
0.999794
0.999946
1.00011
1.00028
1.00045
1.00064
1.00083
1.00103
1.00124
1.00146
1.00169
1.00192
1.00216
1.0024
1.00265
1.0029
1.00316
1.00342
1.00368
1.00394
1.0042
1.00446
1.00472
1.00497
1.00522
1.00545
1.00569
1.00591
1.00613
1.00633
1.00653
1.00671
1.00689
1.00705
1.0072
1.00734
1.00747
1.00759
1.0077
1.00779
1.00788
1.00795
1.00801
1.00806
1.00809
1.00811
1.00812
1.00812
1.0081
1.00806
1.00802
1.00795
1.00788
1.00779
1.00768
1.00757
1.00744
1.00731
1.00717
1.00703
1.00688
1.00674
1.0066
1.00646
1.00633
1.00621
1.0061
1.00601
1.00593
1.00587
1.00583
1.00581
1.00581
1.00583
1.00588
1.00596
1.00606
1.00619
1.00635
1.00654
1.00677
1.00702
1.00731
1.00763
1.00799
1.00837
1.00878
1.00922
1.00969
1.01017
1.01067
1.01119
1.01171
1.01224
1.01278
1.0133
1.01382
1.01433
1.01482
1.0153
1.01576
1.01619
1.0166
1.01699
1.01736
1.0177
1.01802
1.01832
1.01859
1.01883
1.01906
1.01926
1.01944
1.01959
1.01972
1.01983
1.01991
1.01997
1.02001
1.02003
1.02003
1.02001
1.01997
1.01992
1.01986
1.01979
1.01971
1.01963
1.01955
1.01947
1.0194
1.01934
1.01928
1.01924
1.0192
1.01918
1.01917
1.01917
1.01919
1.01921
1.01925
1.0193
1.01936
1.01943
1.0195
1.01959
1.01969
1.0198
1.01992
1.02006
1.02021
1.02037
1.02056
1.02075
1.02097
1.0212
1.02146
1.02173
1.02201
1.02231
1.02262
1.02293
1.02326
1.02359
1.02391
1.02424
1.02455
1.02486
1.02516
1.02544
1.02571
1.02595
1.02619
1.0264
1.02659
1.02677
1.02693
1.02708
1.02722
1.02734
1.02745
1.02756
1.02765
1.02775
1.02784
1.02793
1.02803
1.02813
1.02823
1.02833
1.02845
1.02857
1.0287
1.02884
1.029
1.02916
1.02933
1.02952
1.02972
1.02993
1.03015
1.03038
1.03062
1.03086
1.03112
1.03138
1.03164
1.03191
1.03218
1.03246
1.03273
1.033
1.03327
1.03353
1.0338
1.03406
1.03431
1.03456
1.0348
1.03504
1.03527
1.03549
1.03571
1.03591
1.03611
1.0363
1.03648
1.03666
1.03682
1.03699
1.03715
1.0373
1.03746
1.03762
1.0378
1.03798
1.03818
1.0384
1.03865
1.03893
1.03926
1.03963
1.04006
1.04055
1.04113
1.0418
1.04258
1.04351
1.04459
1.04587
1.0474
1.04922
1.05144
1.05415
1.05754
1.06202
1.06848
1.07773
1.09002
1.11209
0.940575
0.955092
0.964537
0.96998
0.973011
0.974894
0.976178
0.977091
0.977765
0.978278
0.978693
0.979038
0.979345
0.979622
0.979887
0.980143
0.980399
0.980655
0.980917
0.981183
0.981458
0.981737
0.982026
0.98232
0.982622
0.982927
0.98324
0.983553
0.983872
0.984189
0.984508
0.984822
0.985136
0.985442
0.985744
0.986035
0.98632
0.98659
0.986851
0.987096
0.98733
0.987545
0.987749
0.987932
0.988103
0.988254
0.988391
0.988508
0.988612
0.988696
0.988768
0.98882
0.988861
0.988883
0.988896
0.988891
0.988879
0.988852
0.98882
0.988776
0.988729
0.988674
0.988621
0.988563
0.988511
0.988457
0.988413
0.988371
0.988341
0.988315
0.988303
0.988297
0.988306
0.988322
0.988351
0.988387
0.988435
0.988489
0.988554
0.988623
0.988702
0.988784
0.988875
0.98897
0.989075
0.989184
0.989303
0.989429
0.989568
0.989716
0.98988
0.990056
0.990249
0.990457
0.990684
0.990927
0.991188
0.991465
0.991758
0.992064
0.992383
0.99271
0.993045
0.993382
0.993722
0.994059
0.994392
0.994716
0.995032
0.995335
0.995624
0.995899
0.996158
0.996401
0.996628
0.996838
0.997033
0.997213
0.997379
0.997531
0.997672
0.997803
0.997924
0.998037
0.998143
0.998244
0.998341
0.998435
0.998528
0.99862
0.998712
0.998807
0.998903
0.999004
0.999109
0.999219
0.999336
0.999459
0.999589
0.999726
0.999872
1.00003
1.00019
1.00036
1.00054
1.00072
1.00092
1.00112
1.00133
1.00155
1.00177
1.00201
1.00224
1.00249
1.00274
1.00299
1.00325
1.0035
1.00376
1.00402
1.00428
1.00454
1.0048
1.00505
1.00529
1.00553
1.00576
1.00598
1.00619
1.0064
1.00659
1.00678
1.00695
1.00711
1.00726
1.0074
1.00753
1.00765
1.00775
1.00785
1.00793
1.008
1.00806
1.00811
1.00814
1.00817
1.00818
1.00817
1.00815
1.00812
1.00807
1.00801
1.00794
1.00785
1.00775
1.00764
1.00752
1.00739
1.00726
1.00712
1.00698
1.00684
1.0067
1.00656
1.00644
1.00632
1.00621
1.00612
1.00605
1.00599
1.00595
1.00593
1.00593
1.00596
1.00601
1.00609
1.00619
1.00632
1.00649
1.00668
1.0069
1.00716
1.00745
1.00777
1.00812
1.0085
1.00891
1.00935
1.00981
1.01029
1.01078
1.0113
1.01181
1.01234
1.01286
1.01338
1.0139
1.0144
1.01489
1.01536
1.01581
1.01624
1.01666
1.01704
1.01741
1.01775
1.01807
1.01836
1.01863
1.01888
1.01911
1.01931
1.01949
1.01965
1.01978
1.01989
1.01997
1.02004
1.02008
1.0201
1.0201
1.02008
1.02005
1.02
1.01994
1.01987
1.01979
1.01971
1.01963
1.01955
1.01948
1.01942
1.01936
1.01931
1.01928
1.01925
1.01924
1.01924
1.01925
1.01928
1.01931
1.01936
1.01942
1.01948
1.01956
1.01965
1.01975
1.01986
1.01998
1.02011
1.02026
1.02042
1.0206
1.0208
1.02101
1.02124
1.02149
1.02176
1.02204
1.02233
1.02264
1.02295
1.02327
1.0236
1.02392
1.02425
1.02456
1.02487
1.02516
1.02545
1.02571
1.02596
1.0262
1.02641
1.02661
1.02679
1.02696
1.02711
1.02724
1.02737
1.02749
1.02759
1.0277
1.02779
1.02789
1.02799
1.02808
1.02818
1.02829
1.0284
1.02852
1.02864
1.02878
1.02892
1.02907
1.02924
1.02942
1.02961
1.02981
1.03002
1.03024
1.03047
1.03071
1.03095
1.03121
1.03147
1.03173
1.032
1.03227
1.03254
1.03281
1.03308
1.03335
1.03361
1.03387
1.03413
1.03438
1.03463
1.03487
1.03511
1.03534
1.03556
1.03577
1.03598
1.03618
1.03636
1.03655
1.03672
1.03689
1.03705
1.03721
1.03736
1.03752
1.03769
1.03786
1.03805
1.03826
1.03848
1.03874
1.03903
1.03937
1.03975
1.04019
1.04071
1.04131
1.04201
1.04283
1.04379
1.04493
1.04628
1.04789
1.04982
1.05217
1.05509
1.05878
1.06355
1.06976
1.07878
1.0951
1.12179
0.956707
0.96007
0.965214
0.969261
0.972064
0.97404
0.975447
0.97647
0.977244
0.977848
0.97834
0.978752
0.979115
0.97944
0.979747
0.980038
0.980324
0.980606
0.980891
0.981176
0.981468
0.981761
0.982062
0.982366
0.982677
0.982989
0.983308
0.983626
0.983949
0.984269
0.98459
0.984907
0.985222
0.985529
0.985832
0.986124
0.986409
0.98668
0.986942
0.987187
0.987422
0.987638
0.987843
0.988028
0.9882
0.988352
0.988491
0.98861
0.988716
0.988802
0.988875
0.988929
0.988972
0.988996
0.98901
0.989007
0.988996
0.98897
0.988938
0.988895
0.988849
0.988794
0.98874
0.988681
0.988627
0.988571
0.988524
0.988479
0.988444
0.988415
0.988398
0.988387
0.98839
0.9884
0.988423
0.988453
0.988495
0.988542
0.988601
0.988664
0.988737
0.988813
0.988899
0.988989
0.989088
0.989193
0.989307
0.989429
0.989564
0.989708
0.989868
0.99004
0.990229
0.990434
0.990657
0.990897
0.991155
0.991429
0.991719
0.992023
0.99234
0.992666
0.993001
0.993339
0.993679
0.994018
0.994353
0.99468
0.994999
0.995306
0.995601
0.99588
0.996145
0.996394
0.996626
0.996843
0.997044
0.99723
0.997402
0.997561
0.997709
0.997846
0.997973
0.998092
0.998205
0.998312
0.998415
0.998515
0.998613
0.99871
0.998808
0.998908
0.999009
0.999115
0.999224
0.999339
0.999459
0.999586
0.999719
0.99986
1.00001
1.00017
1.00033
1.0005
1.00068
1.00087
1.00107
1.00127
1.00149
1.0017
1.00193
1.00216
1.0024
1.00265
1.0029
1.00315
1.0034
1.00366
1.00392
1.00418
1.00444
1.0047
1.00495
1.0052
1.00544
1.00568
1.00591
1.00613
1.00634
1.00654
1.00674
1.00692
1.00709
1.00725
1.0074
1.00754
1.00767
1.00778
1.00789
1.00798
1.00806
1.00813
1.00819
1.00824
1.00828
1.0083
1.00831
1.00831
1.00829
1.00826
1.00822
1.00816
1.00809
1.008
1.00791
1.0078
1.00768
1.00756
1.00743
1.00729
1.00716
1.00702
1.00688
1.00675
1.00663
1.00652
1.00642
1.00633
1.00625
1.0062
1.00616
1.00614
1.00615
1.00618
1.00623
1.00631
1.00642
1.00655
1.00671
1.00691
1.00713
1.00739
1.00768
1.00799
1.00834
1.00872
1.00913
1.00956
1.01002
1.01049
1.01098
1.01149
1.012
1.01252
1.01304
1.01355
1.01406
1.01455
1.01503
1.0155
1.01595
1.01638
1.01678
1.01717
1.01753
1.01787
1.01819
1.01848
1.01876
1.019
1.01923
1.01943
1.01961
1.01977
1.0199
1.02002
1.0201
1.02017
1.02021
1.02023
1.02023
1.02022
1.02018
1.02013
1.02007
1.02
1.01993
1.01985
1.01977
1.01969
1.01961
1.01954
1.01948
1.01943
1.0194
1.01937
1.01935
1.01935
1.01936
1.01938
1.01942
1.01946
1.01952
1.01958
1.01966
1.01975
1.01984
1.01995
1.02007
1.0202
1.02035
1.02051
1.02069
1.02088
1.02109
1.02132
1.02157
1.02183
1.02211
1.0224
1.0227
1.02301
1.02333
1.02365
1.02398
1.0243
1.02461
1.02492
1.02522
1.0255
1.02577
1.02602
1.02626
1.02647
1.02667
1.02686
1.02703
1.02718
1.02732
1.02745
1.02757
1.02768
1.02779
1.02789
1.02799
1.02809
1.02819
1.0283
1.02841
1.02852
1.02864
1.02877
1.02891
1.02906
1.02921
1.02938
1.02956
1.02975
1.02995
1.03017
1.03039
1.03062
1.03086
1.03111
1.03136
1.03162
1.03189
1.03215
1.03242
1.03269
1.03296
1.03323
1.03349
1.03376
1.03402
1.03427
1.03453
1.03477
1.03501
1.03525
1.03547
1.03569
1.03591
1.03611
1.0363
1.03649
1.03667
1.03684
1.03701
1.03717
1.03732
1.03748
1.03764
1.0378
1.03798
1.03816
1.03837
1.03859
1.03885
1.03914
1.03948
1.03986
1.04031
1.04083
1.04144
1.04215
1.04298
1.04396
1.04511
1.04648
1.04811
1.05006
1.05242
1.0553
1.05887
1.06343
1.06944
1.07699
1.08521
1.09375
0.965631
0.965376
0.96747
0.969972
0.972158
0.973859
0.975161
0.976172
0.976971
0.977613
0.978146
0.978599
0.978999
0.979361
0.979698
0.980018
0.980329
0.980634
0.980938
0.981241
0.981547
0.981855
0.982167
0.982481
0.9828
0.983119
0.983443
0.983767
0.984093
0.984417
0.98474
0.985059
0.985375
0.985684
0.985987
0.98628
0.986565
0.986836
0.987098
0.987344
0.987579
0.987797
0.988002
0.988188
0.988361
0.988514
0.988654
0.988774
0.988881
0.988968
0.989043
0.989098
0.989141
0.989166
0.989181
0.989179
0.989167
0.989142
0.989109
0.989065
0.989018
0.988962
0.988905
0.988844
0.988786
0.988727
0.988675
0.988625
0.988585
0.988549
0.988526
0.988508
0.988503
0.988505
0.98852
0.988541
0.988574
0.988613
0.988662
0.988717
0.988781
0.98885
0.988927
0.989009
0.989101
0.989198
0.989305
0.989421
0.989549
0.989687
0.98984
0.990007
0.990191
0.990391
0.99061
0.990845
0.9911
0.991371
0.991659
0.991962
0.992278
0.992605
0.99294
0.99328
0.993623
0.993965
0.994304
0.994636
0.994961
0.995274
0.995575
0.995863
0.996135
0.996392
0.996633
0.996858
0.997068
0.997262
0.997443
0.997611
0.997768
0.997913
0.998049
0.998177
0.998298
0.998414
0.998525
0.998632
0.998738
0.998843
0.998948
0.999054
0.999162
0.999274
0.999389
0.999509
0.999635
0.999766
0.999905
1.00005
1.0002
1.00036
1.00053
1.00071
1.00089
1.00108
1.00128
1.00149
1.0017
1.00192
1.00215
1.00239
1.00263
1.00287
1.00312
1.00338
1.00364
1.00389
1.00415
1.00441
1.00467
1.00493
1.00518
1.00543
1.00567
1.00591
1.00613
1.00635
1.00657
1.00677
1.00696
1.00714
1.00731
1.00747
1.00762
1.00775
1.00788
1.00799
1.0081
1.00819
1.00827
1.00834
1.0084
1.00845
1.00849
1.00851
1.00852
1.00852
1.00851
1.00848
1.00844
1.00838
1.00831
1.00823
1.00814
1.00804
1.00793
1.00781
1.00768
1.00755
1.00742
1.00729
1.00716
1.00703
1.00691
1.0068
1.0067
1.00662
1.00655
1.00649
1.00646
1.00645
1.00645
1.00648
1.00654
1.00662
1.00673
1.00686
1.00703
1.00722
1.00745
1.0077
1.00799
1.00831
1.00865
1.00903
1.00943
1.00986
1.01031
1.01078
1.01127
1.01176
1.01227
1.01278
1.01329
1.0138
1.0143
1.01478
1.01526
1.01572
1.01616
1.01659
1.01699
1.01737
1.01773
1.01807
1.01838
1.01868
1.01895
1.0192
1.01942
1.01962
1.0198
1.01996
1.0201
1.02021
1.0203
1.02036
1.0204
1.02043
1.02043
1.02041
1.02038
1.02033
1.02026
1.02019
1.02011
1.02003
1.01995
1.01987
1.01979
1.01972
1.01965
1.0196
1.01956
1.01953
1.01951
1.0195
1.01951
1.01953
1.01956
1.0196
1.01966
1.01972
1.0198
1.01988
1.01997
1.02008
1.0202
1.02033
1.02047
1.02063
1.02081
1.021
1.02121
1.02143
1.02168
1.02193
1.02221
1.0225
1.0228
1.02311
1.02343
1.02375
1.02407
1.02439
1.02471
1.02501
1.02531
1.0256
1.02587
1.02612
1.02636
1.02658
1.02678
1.02697
1.02714
1.0273
1.02745
1.02758
1.02771
1.02782
1.02793
1.02804
1.02814
1.02825
1.02836
1.02846
1.02858
1.0287
1.02882
1.02896
1.0291
1.02925
1.02941
1.02958
1.02977
1.02996
1.03016
1.03038
1.0306
1.03083
1.03108
1.03132
1.03158
1.03184
1.0321
1.03237
1.03264
1.0329
1.03317
1.03344
1.0337
1.03397
1.03423
1.03448
1.03473
1.03498
1.03522
1.03545
1.03567
1.03589
1.0361
1.0363
1.03649
1.03668
1.03685
1.03702
1.03718
1.03734
1.03749
1.03765
1.0378
1.03796
1.03813
1.03831
1.03851
1.03873
1.03898
1.03927
1.03959
1.03997
1.04041
1.04092
1.04152
1.04222
1.04304
1.044
1.04514
1.04648
1.04807
1.04996
1.05222
1.05493
1.05818
1.06207
1.06666
1.07185
1.07605
1.07619
0.969573
0.969133
0.970005
0.971366
0.972828
0.974145
0.975259
0.97618
0.97694
0.977575
0.978116
0.978587
0.979008
0.979392
0.979752
0.980093
0.980424
0.980747
0.981068
0.981386
0.981706
0.982025
0.982347
0.98267
0.982997
0.983323
0.983653
0.983981
0.98431
0.984636
0.984962
0.985282
0.9856
0.985909
0.986212
0.986505
0.98679
0.987061
0.987323
0.987569
0.987804
0.988022
0.988226
0.988413
0.988586
0.98874
0.98888
0.989001
0.989108
0.989196
0.989271
0.989326
0.98937
0.989395
0.98941
0.989407
0.989395
0.989369
0.989335
0.98929
0.98924
0.989181
0.989121
0.989056
0.988994
0.98893
0.988871
0.988815
0.988767
0.988724
0.988691
0.988664
0.98865
0.988642
0.988646
0.988656
0.988678
0.988706
0.988745
0.988788
0.988841
0.988899
0.988966
0.989038
0.98912
0.989207
0.989305
0.989412
0.989531
0.989662
0.989807
0.989967
0.990144
0.990338
0.990552
0.990783
0.991033
0.991302
0.991588
0.991889
0.992206
0.992533
0.99287
0.993213
0.99356
0.993907
0.994252
0.994592
0.994924
0.995246
0.995556
0.995852
0.996135
0.996402
0.996653
0.996889
0.99711
0.997316
0.997508
0.997687
0.997854
0.998011
0.998158
0.998296
0.998428
0.998554
0.998675
0.998792
0.998908
0.999022
0.999135
0.99925
0.999366
0.999486
0.999608
0.999735
0.999867
1
1.00015
1.0003
1.00046
1.00062
1.00079
1.00097
1.00116
1.00136
1.00156
1.00177
1.00199
1.00221
1.00244
1.00268
1.00293
1.00317
1.00343
1.00368
1.00394
1.0042
1.00446
1.00472
1.00498
1.00524
1.00549
1.00574
1.00598
1.00621
1.00644
1.00666
1.00687
1.00707
1.00726
1.00744
1.00761
1.00776
1.00791
1.00805
1.00817
1.00829
1.00839
1.00848
1.00856
1.00864
1.00869
1.00874
1.00878
1.0088
1.00882
1.00882
1.00881
1.00878
1.00874
1.00869
1.00863
1.00855
1.00846
1.00837
1.00826
1.00814
1.00802
1.0079
1.00777
1.00764
1.00752
1.00739
1.00728
1.00717
1.00708
1.007
1.00693
1.00688
1.00685
1.00684
1.00685
1.00688
1.00694
1.00702
1.00713
1.00727
1.00743
1.00763
1.00785
1.00811
1.00839
1.00871
1.00906
1.00943
1.00983
1.01025
1.0107
1.01116
1.01164
1.01213
1.01263
1.01313
1.01363
1.01413
1.01462
1.0151
1.01557
1.01602
1.01646
1.01688
1.01727
1.01765
1.01801
1.01834
1.01865
1.01894
1.01921
1.01946
1.01968
1.01989
1.02007
1.02022
1.02036
1.02047
1.02056
1.02062
1.02066
1.02069
1.02069
1.02067
1.02063
1.02058
1.02052
1.02044
1.02036
1.02027
1.02019
1.0201
1.02002
1.01994
1.01987
1.01981
1.01977
1.01973
1.01971
1.0197
1.01971
1.01972
1.01975
1.01979
1.01984
1.0199
1.01997
1.02006
1.02015
1.02025
1.02037
1.0205
1.02064
1.0208
1.02097
1.02116
1.02136
1.02158
1.02182
1.02208
1.02235
1.02264
1.02294
1.02325
1.02356
1.02388
1.02421
1.02453
1.02484
1.02515
1.02545
1.02574
1.02601
1.02627
1.02651
1.02674
1.02694
1.02714
1.02731
1.02748
1.02763
1.02776
1.02789
1.02802
1.02813
1.02824
1.02835
1.02846
1.02858
1.02869
1.02881
1.02893
1.02906
1.0292
1.02935
1.02951
1.02967
1.02985
1.03003
1.03023
1.03044
1.03066
1.03088
1.03112
1.03136
1.03161
1.03186
1.03212
1.03238
1.03265
1.03292
1.03319
1.03345
1.03372
1.03399
1.03425
1.03451
1.03476
1.03501
1.03525
1.03549
1.03572
1.03595
1.03616
1.03637
1.03657
1.03676
1.03694
1.03711
1.03727
1.03743
1.03758
1.03773
1.03788
1.03803
1.03818
1.03834
1.03851
1.0387
1.03891
1.03915
1.03942
1.03973
1.04009
1.04051
1.04101
1.04158
1.04225
1.04304
1.04397
1.04506
1.04634
1.04785
1.04961
1.05168
1.0541
1.05689
1.06003
1.0633
1.06627
1.0683
1.0676
0.972031
0.971781
0.972123
0.972872
0.973823
0.974788
0.975678
0.976463
0.977146
0.977741
0.978265
0.978732
0.979156
0.979549
0.979919
0.980273
0.980617
0.980952
0.981284
0.981614
0.981943
0.982271
0.982602
0.982932
0.983264
0.983596
0.983929
0.984261
0.984593
0.984921
0.985248
0.985569
0.985886
0.986195
0.986498
0.98679
0.987074
0.987345
0.987606
0.987851
0.988085
0.988302
0.988506
0.988692
0.988865
0.989019
0.989158
0.989279
0.989386
0.989474
0.989549
0.989605
0.989648
0.989673
0.989686
0.989684
0.98967
0.989643
0.989607
0.989559
0.989506
0.989444
0.98938
0.98931
0.989241
0.989171
0.989105
0.98904
0.988983
0.98893
0.988887
0.98885
0.988823
0.988803
0.988795
0.988793
0.988802
0.988817
0.988842
0.988872
0.988912
0.988957
0.989011
0.989071
0.98914
0.989216
0.989302
0.989398
0.989506
0.989627
0.989763
0.989914
0.990083
0.99027
0.990477
0.990703
0.990949
0.991215
0.991499
0.9918
0.992116
0.992446
0.992786
0.993133
0.993486
0.99384
0.994193
0.994541
0.994883
0.995215
0.995536
0.995844
0.996139
0.996418
0.996683
0.996931
0.997165
0.997385
0.99759
0.997783
0.997963
0.998133
0.998293
0.998444
0.998589
0.998727
0.99886
0.998989
0.999116
0.999241
0.999365
0.99949
0.999616
0.999744
0.999875
1.00001
1.00015
1.00029
1.00044
1.0006
1.00076
1.00093
1.00111
1.0013
1.00149
1.00169
1.0019
1.00211
1.00233
1.00256
1.0028
1.00304
1.00329
1.00354
1.00379
1.00405
1.00431
1.00457
1.00484
1.0051
1.00536
1.00562
1.00587
1.00612
1.00636
1.00659
1.00682
1.00704
1.00725
1.00744
1.00763
1.00781
1.00798
1.00814
1.00828
1.00842
1.00854
1.00865
1.00876
1.00885
1.00893
1.009
1.00906
1.00911
1.00915
1.00917
1.00919
1.00919
1.00918
1.00916
1.00912
1.00908
1.00902
1.00895
1.00886
1.00877
1.00867
1.00856
1.00844
1.00832
1.0082
1.00808
1.00795
1.00784
1.00773
1.00763
1.00753
1.00746
1.00739
1.00735
1.00732
1.00731
1.00732
1.00736
1.00742
1.0075
1.00761
1.00775
1.00792
1.00812
1.00834
1.0086
1.00888
1.0092
1.00954
1.00991
1.01031
1.01073
1.01116
1.01162
1.01209
1.01257
1.01306
1.01356
1.01405
1.01454
1.01502
1.01549
1.01595
1.0164
1.01683
1.01724
1.01763
1.018
1.01835
1.01868
1.01899
1.01928
1.01954
1.01979
1.02001
1.02021
1.02039
1.02054
1.02068
1.02079
1.02087
1.02094
1.02098
1.021
1.021
1.02098
1.02094
1.02088
1.02082
1.02074
1.02065
1.02056
1.02047
1.02038
1.02029
1.02021
1.02013
1.02007
1.02002
1.01998
1.01995
1.01994
1.01994
1.01995
1.01998
1.02002
1.02006
1.02012
1.02019
1.02027
1.02036
1.02046
1.02057
1.0207
1.02084
1.02099
1.02116
1.02134
1.02155
1.02177
1.022
1.02226
1.02253
1.02281
1.02311
1.02342
1.02373
1.02405
1.02438
1.0247
1.02502
1.02533
1.02563
1.02592
1.0262
1.02646
1.0267
1.02693
1.02714
1.02734
1.02752
1.02769
1.02785
1.02799
1.02813
1.02825
1.02838
1.02849
1.02861
1.02873
1.02884
1.02897
1.02909
1.02922
1.02936
1.0295
1.02965
1.02982
1.02999
1.03017
1.03036
1.03056
1.03077
1.03099
1.03122
1.03145
1.0317
1.03195
1.0322
1.03246
1.03273
1.033
1.03326
1.03353
1.0338
1.03407
1.03433
1.03459
1.03485
1.0351
1.03535
1.03559
1.03583
1.03606
1.03628
1.03649
1.0367
1.03689
1.03708
1.03726
1.03742
1.03758
1.03774
1.03788
1.03802
1.03816
1.0383
1.03845
1.0386
1.03876
1.03893
1.03913
1.03935
1.0396
1.03989
1.04023
1.04062
1.04108
1.04162
1.04226
1.043
1.04387
1.04489
1.04608
1.04747
1.04907
1.05092
1.053
1.05529
1.05769
1.05999
1.06174
1.06259
1.06219
0.973925
0.973699
0.973831
0.974277
0.9749
0.975594
0.976285
0.976936
0.977531
0.978071
0.978562
0.979012
0.979429
0.979822
0.980195
0.980555
0.980906
0.98125
0.98159
0.981927
0.982264
0.982599
0.982935
0.98327
0.983607
0.983942
0.984278
0.984612
0.984945
0.985274
0.9856
0.985921
0.986237
0.986545
0.986847
0.987137
0.98742
0.987689
0.987947
0.988191
0.988423
0.988639
0.988841
0.989026
0.989197
0.989351
0.989489
0.98961
0.989716
0.989804
0.989878
0.989933
0.989976
0.990001
0.990013
0.99001
0.989995
0.989966
0.989928
0.989877
0.98982
0.989754
0.989685
0.989609
0.989533
0.989455
0.989381
0.989307
0.98924
0.989176
0.989121
0.989071
0.989031
0.988998
0.988975
0.988959
0.988953
0.988954
0.988963
0.988979
0.989004
0.989034
0.989073
0.989118
0.989173
0.989235
0.989308
0.989391
0.989487
0.989596
0.989721
0.989862
0.990022
0.990201
0.9904
0.99062
0.990862
0.991124
0.991406
0.991707
0.992024
0.992356
0.992701
0.993054
0.993413
0.993775
0.994137
0.994496
0.994849
0.995193
0.995527
0.995849
0.996158
0.996452
0.996731
0.996995
0.997244
0.997478
0.997699
0.997907
0.998103
0.998288
0.998463
0.998629
0.998788
0.998941
0.999088
0.999231
0.99937
0.999508
0.999644
0.99978
0.999917
1.00006
1.0002
1.00034
1.00049
1.00064
1.0008
1.00096
1.00113
1.00131
1.00149
1.00168
1.00188
1.00209
1.0023
1.00252
1.00275
1.00298
1.00322
1.00347
1.00372
1.00397
1.00423
1.00449
1.00476
1.00502
1.00529
1.00555
1.00581
1.00607
1.00632
1.00657
1.00681
1.00705
1.00727
1.00749
1.0077
1.0079
1.00808
1.00826
1.00843
1.00858
1.00873
1.00886
1.00899
1.0091
1.0092
1.00929
1.00937
1.00945
1.00951
1.00956
1.00959
1.00962
1.00964
1.00964
1.00964
1.00962
1.00959
1.00954
1.00949
1.00942
1.00934
1.00926
1.00916
1.00906
1.00894
1.00883
1.00871
1.00859
1.00848
1.00837
1.00826
1.00816
1.00808
1.008
1.00794
1.0079
1.00787
1.00787
1.00788
1.00792
1.00799
1.00807
1.00819
1.00833
1.0085
1.0087
1.00892
1.00918
1.00946
1.00978
1.01012
1.01048
1.01087
1.01129
1.01172
1.01217
1.01263
1.0131
1.01358
1.01407
1.01455
1.01503
1.0155
1.01597
1.01642
1.01685
1.01727
1.01768
1.01806
1.01843
1.01877
1.01909
1.0194
1.01968
1.01994
1.02018
1.0204
1.0206
1.02077
1.02093
1.02106
1.02117
1.02125
1.02132
1.02135
1.02137
1.02137
1.02135
1.0213
1.02124
1.02117
1.02109
1.021
1.0209
1.0208
1.02071
1.02061
1.02053
1.02045
1.02038
1.02032
1.02028
1.02025
1.02023
1.02022
1.02023
1.02025
1.02029
1.02033
1.02038
1.02045
1.02053
1.02061
1.02071
1.02082
1.02094
1.02108
1.02123
1.02139
1.02157
1.02177
1.02199
1.02222
1.02247
1.02274
1.02303
1.02332
1.02363
1.02394
1.02427
1.02459
1.02491
1.02523
1.02555
1.02585
1.02615
1.02643
1.02669
1.02694
1.02718
1.02739
1.0276
1.02778
1.02796
1.02812
1.02827
1.02841
1.02855
1.02868
1.0288
1.02892
1.02905
1.02917
1.0293
1.02943
1.02957
1.02971
1.02986
1.03002
1.03019
1.03037
1.03055
1.03075
1.03095
1.03117
1.03139
1.03162
1.03186
1.03211
1.03236
1.03262
1.03288
1.03314
1.03341
1.03368
1.03395
1.03421
1.03448
1.03475
1.03501
1.03527
1.03552
1.03577
1.03601
1.03624
1.03647
1.03669
1.0369
1.03711
1.0373
1.03748
1.03765
1.03782
1.03797
1.03812
1.03825
1.03839
1.03852
1.03865
1.03878
1.03892
1.03907
1.03923
1.0394
1.03961
1.03983
1.0401
1.04041
1.04077
1.04119
1.04169
1.04228
1.04297
1.04377
1.04471
1.0458
1.04705
1.04848
1.05009
1.05184
1.05368
1.05548
1.05705
1.05814
1.05846
1.05807
0.975457
0.97525
0.975304
0.975578
0.975999
0.976504
0.977039
0.977571
0.97808
0.97856
0.97901
0.979433
0.979833
0.980216
0.980585
0.980944
0.981295
0.981641
0.981984
0.982324
0.982664
0.983002
0.983341
0.983678
0.984016
0.984352
0.984689
0.985022
0.985354
0.985682
0.986007
0.986326
0.98664
0.986945
0.987243
0.987531
0.98781
0.988076
0.988332
0.988573
0.988802
0.989015
0.989215
0.989398
0.989567
0.989719
0.989856
0.989976
0.990081
0.990168
0.990241
0.990297
0.990338
0.990363
0.990375
0.99037
0.990354
0.990323
0.990283
0.990229
0.990169
0.990098
0.990023
0.989941
0.989858
0.989771
0.989687
0.989603
0.989524
0.989449
0.98938
0.989317
0.989263
0.989215
0.989176
0.989145
0.989122
0.989106
0.989099
0.989099
0.989106
0.98912
0.989143
0.989172
0.98921
0.989257
0.989315
0.989383
0.989465
0.989561
0.989673
0.989802
0.989952
0.990121
0.990312
0.990526
0.990762
0.99102
0.991301
0.991601
0.99192
0.992256
0.992605
0.992964
0.993332
0.993704
0.994076
0.994447
0.994813
0.995172
0.995521
0.995858
0.996183
0.996493
0.996789
0.99707
0.997337
0.997589
0.997827
0.998052
0.998265
0.998467
0.998659
0.998842
0.999018
0.999186
0.999349
0.999507
0.999661
0.999812
0.999962
1.00011
1.00026
1.00041
1.00056
1.00072
1.00087
1.00103
1.0012
1.00137
1.00155
1.00173
1.00192
1.00212
1.00232
1.00253
1.00275
1.00298
1.00321
1.00345
1.0037
1.00395
1.0042
1.00446
1.00473
1.00499
1.00526
1.00553
1.00579
1.00606
1.00632
1.00658
1.00684
1.00709
1.00733
1.00756
1.00779
1.00801
1.00822
1.00841
1.0086
1.00878
1.00894
1.0091
1.00924
1.00938
1.0095
1.00961
1.00971
1.0098
1.00989
1.00996
1.01002
1.01007
1.01011
1.01014
1.01016
1.01016
1.01016
1.01014
1.01012
1.01008
1.01003
1.00997
1.00989
1.00981
1.00972
1.00962
1.00952
1.00941
1.00929
1.00918
1.00907
1.00896
1.00886
1.00877
1.00869
1.00862
1.00856
1.00852
1.0085
1.0085
1.00852
1.00856
1.00863
1.00872
1.00884
1.00898
1.00915
1.00935
1.00958
1.00983
1.01012
1.01043
1.01077
1.01113
1.01151
1.01192
1.01235
1.01279
1.01324
1.01371
1.01418
1.01465
1.01512
1.01559
1.01605
1.01651
1.01695
1.01737
1.01778
1.01818
1.01855
1.01891
1.01925
1.01956
1.01986
1.02014
1.02039
1.02063
1.02084
1.02104
1.02121
1.02136
1.02149
1.0216
1.02168
1.02174
1.02178
1.02179
1.02178
1.02176
1.02171
1.02165
1.02157
1.02148
1.02138
1.02128
1.02118
1.02107
1.02097
1.02088
1.02079
1.02072
1.02066
1.02061
1.02057
1.02055
1.02054
1.02054
1.02056
1.02059
1.02063
1.02068
1.02074
1.02081
1.0209
1.02099
1.0211
1.02121
1.02134
1.02149
1.02165
1.02183
1.02202
1.02224
1.02247
1.02272
1.02298
1.02326
1.02356
1.02387
1.02418
1.02451
1.02483
1.02516
1.02548
1.0258
1.02611
1.0264
1.02669
1.02696
1.02722
1.02746
1.02768
1.02789
1.02808
1.02826
1.02843
1.02859
1.02874
1.02888
1.02902
1.02915
1.02928
1.02941
1.02955
1.02968
1.02982
1.02997
1.03012
1.03027
1.03044
1.03061
1.0308
1.03099
1.03119
1.0314
1.03162
1.03184
1.03208
1.03232
1.03257
1.03282
1.03308
1.03334
1.03361
1.03388
1.03415
1.03442
1.03469
1.03496
1.03522
1.03548
1.03574
1.036
1.03624
1.03648
1.03672
1.03695
1.03716
1.03737
1.03757
1.03776
1.03794
1.03811
1.03827
1.03842
1.03855
1.03869
1.03881
1.03893
1.03905
1.03917
1.0393
1.03943
1.03957
1.03973
1.03991
1.04011
1.04035
1.04063
1.04095
1.04133
1.04179
1.04232
1.04295
1.04368
1.04453
1.04551
1.04663
1.04788
1.04926
1.05071
1.05218
1.05353
1.05462
1.05528
1.05537
1.05487
0.976754
0.976574
0.976585
0.976759
0.977055
0.977432
0.977852
0.978289
0.978723
0.979148
0.979558
0.979953
0.980334
0.980704
0.981065
0.98142
0.981769
0.982114
0.982457
0.982798
0.983138
0.983477
0.983816
0.984153
0.98449
0.984826
0.98516
0.985492
0.985821
0.986146
0.986468
0.986783
0.987092
0.987394
0.987688
0.987971
0.988246
0.988508
0.988759
0.988996
0.989221
0.989431
0.989628
0.989808
0.989974
0.990124
0.990259
0.990377
0.990481
0.990568
0.99064
0.990695
0.990736
0.990761
0.990772
0.990767
0.990749
0.990717
0.990674
0.990619
0.990554
0.990479
0.990398
0.99031
0.990218
0.990124
0.990029
0.989935
0.989844
0.989756
0.989673
0.989596
0.989526
0.989463
0.989408
0.98936
0.98932
0.989287
0.989262
0.989244
0.989234
0.98923
0.989234
0.989246
0.989267
0.989297
0.989338
0.989391
0.989457
0.989538
0.989636
0.989753
0.98989
0.990049
0.990232
0.990438
0.990668
0.990923
0.991201
0.991501
0.991822
0.992162
0.992516
0.992884
0.99326
0.993642
0.994028
0.994412
0.994792
0.995167
0.995532
0.995887
0.996229
0.996557
0.996871
0.997171
0.997456
0.997727
0.997984
0.998228
0.99846
0.998681
0.998892
0.999093
0.999286
0.999472
0.999651
0.999826
0.999996
1.00016
1.00033
1.00049
1.00065
1.00081
1.00098
1.00114
1.00131
1.00148
1.00165
1.00183
1.00202
1.00221
1.00241
1.00261
1.00282
1.00304
1.00326
1.0035
1.00373
1.00398
1.00423
1.00449
1.00475
1.00501
1.00528
1.00555
1.00582
1.00609
1.00636
1.00663
1.0069
1.00716
1.00742
1.00767
1.00791
1.00815
1.00837
1.00859
1.0088
1.009
1.00918
1.00936
1.00953
1.00968
1.00982
1.00996
1.01008
1.01019
1.01029
1.01038
1.01047
1.01054
1.0106
1.01065
1.01069
1.01072
1.01074
1.01075
1.01075
1.01074
1.01072
1.01068
1.01064
1.01058
1.01052
1.01044
1.01035
1.01026
1.01016
1.01006
1.00995
1.00984
1.00974
1.00964
1.00954
1.00945
1.00938
1.00931
1.00926
1.00923
1.00921
1.00921
1.00924
1.00928
1.00935
1.00945
1.00957
1.00971
1.00989
1.01009
1.01032
1.01057
1.01085
1.01116
1.0115
1.01185
1.01223
1.01263
1.01305
1.01348
1.01393
1.01438
1.01484
1.01531
1.01577
1.01622
1.01667
1.01712
1.01755
1.01796
1.01836
1.01874
1.01911
1.01946
1.01979
1.0201
1.02038
1.02065
1.0209
1.02113
1.02134
1.02153
1.0217
1.02185
1.02197
1.02208
1.02216
1.02221
1.02225
1.02226
1.02225
1.02222
1.02217
1.0221
1.02202
1.02192
1.02182
1.02171
1.0216
1.02149
1.02138
1.02128
1.02119
1.02111
1.02104
1.02098
1.02094
1.02091
1.0209
1.0209
1.02091
1.02094
1.02097
1.02102
1.02108
1.02114
1.02122
1.02131
1.02141
1.02153
1.02165
1.02179
1.02195
1.02212
1.02231
1.02252
1.02275
1.023
1.02326
1.02354
1.02383
1.02414
1.02446
1.02478
1.02511
1.02544
1.02576
1.02609
1.0264
1.0267
1.02699
1.02727
1.02753
1.02778
1.02801
1.02823
1.02843
1.02862
1.02879
1.02896
1.02912
1.02927
1.02941
1.02955
1.02969
1.02983
1.02997
1.03012
1.03027
1.03042
1.03058
1.03074
1.03092
1.0311
1.03128
1.03148
1.03169
1.0319
1.03213
1.03236
1.03259
1.03284
1.03309
1.03335
1.03361
1.03387
1.03414
1.03441
1.03468
1.03496
1.03523
1.0355
1.03576
1.03603
1.03629
1.03654
1.03679
1.03703
1.03726
1.03749
1.03771
1.03792
1.03811
1.0383
1.03847
1.03864
1.03879
1.03894
1.03907
1.03919
1.03931
1.03942
1.03953
1.03964
1.03975
1.03987
1.03999
1.04013
1.04028
1.04046
1.04067
1.04092
1.04121
1.04155
1.04196
1.04244
1.043
1.04367
1.04443
1.04531
1.0463
1.04739
1.04856
1.04976
1.05092
1.05193
1.05269
1.05306
1.053
1.05243
0.977907
0.977763
0.977759
0.977878
0.978097
0.978387
0.978724
0.979087
0.979461
0.979836
0.980208
0.980574
0.980934
0.981288
0.981637
0.981983
0.982325
0.982665
0.983004
0.983342
0.983678