# vtk DataFile Version 2.0
LBE mesh
ASCII
DATASET STRUCTURED_POINTS
DIMENSIONS 400 100 1
ASPECT_RATIO 1 1 1
ORIGIN 0 0 0
POINT_DATA 40000
SCALARS rho double 1
LOOKUP_TABLE default
1.02312
1.07437
1.08981
1.09392
1.09613
1.09781
1.09897
1.09973
1.10026
1.10064
1.10093
1.10116
1.10133
1.10147
1.10158
1.10166
1.10173
1.10178
1.10182
1.10184
1.10186
1.10186
1.10186
1.10186
1.10185
1.10183
1.10181
1.10179
1.10176
1.10173
1.1017
1.10166
1.10163
1.10159
1.10155
1.10152
1.10148
1.10144
1.1014
1.10136
1.10132
1.10129
1.10125
1.10122
1.10119
1.10116
1.10114
1.10112
1.1011
1.10108
1.10107
1.10107
1.10107
1.10108
1.10109
1.1011
1.10113
1.10116
1.1012
1.10124
1.1013
1.10136
1.10142
1.1015
1.10159
1.10168
1.10178
1.1019
1.10202
1.10215
1.10229
1.10243
1.10259
1.10276
1.10293
1.10311
1.10331
1.10351
1.10371
1.10393
1.10416
1.10439
1.10463
1.10487
1.10512
1.10538
1.10565
1.10592
1.10619
1.10647
1.10675
1.10704
1.10732
1.10761
1.1079
1.10819
1.10849
1.10878
1.10907
1.10935
1.10964
1.10992
1.1102
1.11047
1.11074
1.11101
1.11127
1.11152
1.11176
1.112
1.11223
1.11245
1.11267
1.11287
1.11307
1.11325
1.11343
1.1136
1.11376
1.1139
1.11404
1.11417
1.11429
1.1144
1.1145
1.11459
1.11468
1.11475
1.11482
1.11489
1.11494
1.115
1.11504
1.11508
1.11512
1.11516
1.11519
1.11521
1.11524
1.11526
1.11529
1.11531
1.11533
1.11535
1.11537
1.11539
1.11541
1.11543
1.11545
1.11548
1.1155
1.11553
1.11556
1.11559
1.11562
1.11566
1.1157
1.11574
1.11578
1.11582
1.11587
1.11592
1.11597
1.11603
1.11608
1.11614
1.1162
1.11626
1.11632
1.11639
1.11645
1.11652
1.11659
1.11666
1.11672
1.11679
1.11686
1.11693
1.117
1.11707
1.11713
1.1172
1.11726
1.11733
1.11739
1.11745
1.11751
1.11757
1.11763
1.11768
1.11774
1.11779
1.11784
1.11789
1.11794
1.11799
1.11804
1.11808
1.11813
1.11817
1.11822
1.11826
1.1183
1.11835
1.11839
1.11843
1.11848
1.11853
1.11857
1.11862
1.11867
1.11872
1.11878
1.11883
1.11889
1.11895
1.11902
1.11908
1.11915
1.11923
1.1193
1.11938
1.11947
1.11955
1.11964
1.11974
1.11984
1.11994
1.12004
1.12015
1.12027
1.12039
1.12051
1.12063
1.12076
1.1209
1.12104
1.12118
1.12132
1.12147
1.12163
1.12179
1.12195
1.12212
1.12229
1.12247
1.12265
1.12284
1.12303
1.12323
1.12344
1.12365
1.12386
1.12409
1.12432
1.12455
1.1248
1.12505
1.12531
1.12557
1.12585
1.12613
1.12642
1.12672
1.12702
1.12733
1.12765
1.12798
1.12831
1.12865
1.129
1.12935
1.1297
1.13006
1.13042
1.13079
1.13115
1.13152
1.13189
1.13225
1.13262
1.13298
1.13334
1.1337
1.13405
1.13439
1.13473
1.13507
1.13539
1.13571
1.13602
1.13633
1.13663
1.13692
1.1372
1.13747
1.13774
1.13799
1.13825
1.13849
1.13872
1.13895
1.13918
1.13939
1.1396
1.1398
1.14
1.14019
1.14038
1.14056
1.14073
1.1409
1.14107
1.14123
1.14138
1.14153
1.14167
1.14181
1.14194
1.14207
1.14219
1.14231
1.14242
1.14253
1.14263
1.14273
1.14282
1.1429
1.14298
1.14306
1.14313
1.14319
1.14325
1.1433
1.14335
1.1434
1.14344
1.14348
1.14352
1.14355
1.14358
1.14361
1.14365
1.14368
1.14371
1.14375
1.14379
1.14383
1.14388
1.14394
1.144
1.14407
1.14416
1.14426
1.14437
1.1445
1.14464
1.1448
1.14498
1.14519
1.14541
1.14567
1.14594
1.14625
1.14659
1.14695
1.14735
1.14778
1.14825
1.14875
1.14929
1.14987
1.15049
1.15115
1.15186
1.15261
1.15341
1.15425
1.15515
1.15611
1.15712
1.15819
1.15933
1.16055
1.16186
1.16325
1.16476
1.16639
1.16818
1.17015
1.17234
1.17483
1.1777
1.18108
1.18517
1.19045
1.19788
1.20837
1.22267
1.24938
1.05978
1.0717
1.08229
1.08991
1.09395
1.09616
1.09758
1.09859
1.09934
1.09988
1.10029
1.10061
1.10086
1.10106
1.10121
1.10134
1.10144
1.10151
1.10158
1.10162
1.10166
1.10168
1.1017
1.1017
1.1017
1.1017
1.10169
1.10167
1.10165
1.10163
1.1016
1.10157
1.10154
1.10151
1.10148
1.10144
1.10141
1.10137
1.10134
1.1013
1.10127
1.10123
1.1012
1.10117
1.10115
1.10112
1.1011
1.10108
1.10106
1.10105
1.10104
1.10104
1.10104
1.10105
1.10107
1.10109
1.10111
1.10114
1.10118
1.10123
1.10129
1.10135
1.10142
1.1015
1.10158
1.10168
1.10178
1.1019
1.10202
1.10215
1.10229
1.10244
1.1026
1.10277
1.10294
1.10313
1.10332
1.10352
1.10373
1.10395
1.10417
1.1044
1.10464
1.10489
1.10514
1.1054
1.10567
1.10594
1.10621
1.10649
1.10677
1.10706
1.10734
1.10763
1.10792
1.10821
1.1085
1.10879
1.10908
1.10937
1.10965
1.10993
1.11021
1.11049
1.11075
1.11102
1.11127
1.11152
1.11177
1.11201
1.11224
1.11246
1.11267
1.11287
1.11307
1.11325
1.11343
1.11359
1.11375
1.1139
1.11403
1.11416
1.11428
1.11439
1.11449
1.11458
1.11467
1.11474
1.11481
1.11488
1.11493
1.11499
1.11503
1.11507
1.11511
1.11515
1.11518
1.11521
1.11523
1.11526
1.11528
1.1153
1.11532
1.11534
1.11536
1.11538
1.1154
1.11543
1.11545
1.11548
1.1155
1.11553
1.11556
1.11559
1.11563
1.11566
1.1157
1.11574
1.11578
1.11583
1.11588
1.11593
1.11598
1.11603
1.11609
1.11615
1.11621
1.11627
1.11633
1.1164
1.11646
1.11653
1.1166
1.11667
1.11673
1.1168
1.11687
1.11694
1.11701
1.11707
1.11714
1.11721
1.11727
1.11734
1.1174
1.11746
1.11752
1.11758
1.11764
1.11769
1.11775
1.1178
1.11785
1.1179
1.11795
1.118
1.11805
1.11809
1.11814
1.11818
1.11823
1.11827
1.11831
1.11836
1.1184
1.11845
1.11849
1.11854
1.11859
1.11864
1.11869
1.11874
1.11879
1.11885
1.11891
1.11897
1.11903
1.1191
1.11917
1.11924
1.11932
1.1194
1.11948
1.11957
1.11966
1.11976
1.11986
1.11996
1.12007
1.12018
1.12029
1.12041
1.12053
1.12066
1.12079
1.12092
1.12106
1.1212
1.12135
1.1215
1.12165
1.12181
1.12198
1.12214
1.12232
1.1225
1.12268
1.12287
1.12306
1.12326
1.12346
1.12367
1.12389
1.12412
1.12435
1.12458
1.12483
1.12508
1.12534
1.12561
1.12588
1.12616
1.12645
1.12675
1.12706
1.12737
1.12769
1.12802
1.12835
1.12869
1.12903
1.12938
1.12974
1.1301
1.13046
1.13082
1.13119
1.13155
1.13192
1.13228
1.13264
1.133
1.13336
1.13371
1.13406
1.13441
1.13474
1.13507
1.1354
1.13572
1.13603
1.13633
1.13663
1.13691
1.13719
1.13747
1.13773
1.13799
1.13824
1.13848
1.13872
1.13894
1.13917
1.13938
1.13959
1.13979
1.13999
1.14018
1.14037
1.14055
1.14072
1.14089
1.14106
1.14122
1.14137
1.14152
1.14166
1.1418
1.14193
1.14206
1.14219
1.1423
1.14242
1.14252
1.14262
1.14272
1.14281
1.14289
1.14297
1.14305
1.14312
1.14318
1.14324
1.14329
1.14335
1.14339
1.14343
1.14347
1.14351
1.14354
1.14358
1.14361
1.14364
1.14368
1.14371
1.14375
1.14379
1.14383
1.14389
1.14394
1.14401
1.14409
1.14418
1.14428
1.14439
1.14452
1.14467
1.14484
1.14502
1.14523
1.14546
1.14572
1.146
1.14631
1.14665
1.14702
1.14742
1.14786
1.14833
1.14884
1.14939
1.14997
1.1506
1.15127
1.15198
1.15274
1.15354
1.1544
1.1553
1.15627
1.15729
1.15838
1.15953
1.16077
1.16209
1.16351
1.16505
1.16672
1.16855
1.17058
1.17286
1.17546
1.17847
1.18207
1.1865
1.19209
1.19929
1.20969
1.22819
1.25807
1.07756
1.07819
1.08431
1.08931
1.09257
1.09489
1.09654
1.09772
1.09858
1.09923
1.09973
1.10012
1.10043
1.10068
1.10087
1.10103
1.10116
1.10127
1.10135
1.10142
1.10147
1.10151
1.10154
1.10156
1.10157
1.10157
1.10157
1.10156
1.10155
1.10153
1.10151
1.10149
1.10146
1.10143
1.10141
1.10138
1.10134
1.10131
1.10128
1.10125
1.10122
1.10119
1.10116
1.10113
1.10111
1.10108
1.10106
1.10105
1.10103
1.10102
1.10102
1.10102
1.10102
1.10103
1.10105
1.10107
1.1011
1.10113
1.10117
1.10122
1.10128
1.10134
1.10141
1.10149
1.10158
1.10168
1.10178
1.1019
1.10202
1.10216
1.1023
1.10245
1.10261
1.10278
1.10295
1.10314
1.10333
1.10353
1.10375
1.10396
1.10419
1.10442
1.10466
1.10491
1.10516
1.10542
1.10569
1.10596
1.10623
1.10651
1.1068
1.10708
1.10737
1.10766
1.10795
1.10824
1.10853
1.10882
1.10911
1.10939
1.10968
1.10996
1.11024
1.11051
1.11078
1.11104
1.1113
1.11155
1.11179
1.11203
1.11225
1.11247
1.11269
1.11289
1.11308
1.11327
1.11344
1.11361
1.11376
1.11391
1.11404
1.11417
1.11429
1.1144
1.1145
1.11459
1.11467
1.11475
1.11482
1.11488
1.11494
1.11499
1.11504
1.11508
1.11512
1.11515
1.11518
1.11521
1.11524
1.11526
1.11529
1.11531
1.11533
1.11535
1.11537
1.11539
1.11541
1.11544
1.11546
1.11549
1.11551
1.11554
1.11557
1.11561
1.11564
1.11568
1.11572
1.11576
1.1158
1.11585
1.11589
1.11595
1.116
1.11605
1.11611
1.11617
1.11623
1.11629
1.11635
1.11642
1.11648
1.11655
1.11662
1.11669
1.11676
1.11682
1.11689
1.11696
1.11703
1.1171
1.11716
1.11723
1.11729
1.11736
1.11742
1.11748
1.11754
1.1176
1.11766
1.11771
1.11777
1.11782
1.11787
1.11793
1.11797
1.11802
1.11807
1.11812
1.11816
1.11821
1.11825
1.1183
1.11834
1.11838
1.11843
1.11847
1.11852
1.11857
1.11861
1.11866
1.11871
1.11877
1.11882
1.11888
1.11894
1.119
1.11906
1.11913
1.1192
1.11927
1.11935
1.11943
1.11952
1.1196
1.11969
1.11979
1.11989
1.11999
1.1201
1.12021
1.12032
1.12044
1.12056
1.12069
1.12082
1.12095
1.12109
1.12123
1.12138
1.12153
1.12168
1.12184
1.12201
1.12217
1.12235
1.12252
1.12271
1.1229
1.12309
1.12329
1.12349
1.12371
1.12392
1.12415
1.12438
1.12462
1.12486
1.12511
1.12537
1.12564
1.12592
1.1262
1.12649
1.12679
1.1271
1.12741
1.12773
1.12806
1.12839
1.12873
1.12908
1.12943
1.12978
1.13014
1.1305
1.13086
1.13122
1.13159
1.13195
1.13232
1.13268
1.13304
1.13339
1.13374
1.13409
1.13443
1.13477
1.1351
1.13542
1.13574
1.13604
1.13635
1.13664
1.13693
1.1372
1.13747
1.13774
1.13799
1.13824
1.13848
1.13872
1.13895
1.13917
1.13938
1.13959
1.13979
1.13999
1.14018
1.14037
1.14055
1.14072
1.14089
1.14106
1.14122
1.14137
1.14152
1.14166
1.1418
1.14194
1.14206
1.14219
1.1423
1.14242
1.14252
1.14262
1.14272
1.14281
1.1429
1.14298
1.14305
1.14312
1.14318
1.14324
1.14329
1.14334
1.14339
1.14343
1.14347
1.14351
1.14354
1.14358
1.14361
1.14364
1.14368
1.14371
1.14375
1.14379
1.14384
1.14389
1.14395
1.14402
1.1441
1.14419
1.14429
1.1444
1.14454
1.14469
1.14486
1.14504
1.14525
1.14549
1.14575
1.14603
1.14635
1.14669
1.14707
1.14747
1.14791
1.14839
1.1489
1.14945
1.15004
1.15067
1.15134
1.15206
1.15282
1.15363
1.15449
1.15541
1.15637
1.1574
1.1585
1.15966
1.1609
1.16223
1.16366
1.16521
1.16689
1.16874
1.17078
1.17307
1.17568
1.1787
1.18225
1.18652
1.19188
1.19882
1.20748
1.21687
1.22632
1.08592
1.08526
1.08738
1.08994
1.09249
1.09452
1.09602
1.09716
1.09805
1.09874
1.09929
1.09972
1.10007
1.10035
1.10058
1.10077
1.10092
1.10105
1.10115
1.10123
1.1013
1.10135
1.10139
1.10142
1.10144
1.10145
1.10146
1.10146
1.10145
1.10144
1.10143
1.10141
1.10139
1.10137
1.10134
1.10131
1.10129
1.10126
1.10123
1.1012
1.10117
1.10115
1.10112
1.10109
1.10107
1.10105
1.10103
1.10102
1.10101
1.101
1.10099
1.101
1.101
1.10101
1.10103
1.10105
1.10108
1.10112
1.10116
1.10121
1.10127
1.10133
1.10141
1.10149
1.10158
1.10168
1.10178
1.1019
1.10203
1.10216
1.1023
1.10245
1.10261
1.10278
1.10296
1.10315
1.10334
1.10355
1.10376
1.10398
1.10421
1.10444
1.10468
1.10493
1.10518
1.10545
1.10571
1.10598
1.10626
1.10654
1.10682
1.10711
1.1074
1.10769
1.10798
1.10827
1.10856
1.10885
1.10914
1.10943
1.10971
1.10999
1.11027
1.11054
1.11081
1.11107
1.11133
1.11158
1.11183
1.11206
1.11229
1.11251
1.11272
1.11292
1.11312
1.1133
1.11347
1.11364
1.11379
1.11394
1.11407
1.1142
1.11431
1.11442
1.11452
1.11461
1.1147
1.11477
1.11484
1.1149
1.11496
1.11501
1.11506
1.1151
1.11514
1.11517
1.1152
1.11523
1.11526
1.11528
1.1153
1.11533
1.11535
1.11537
1.11539
1.11541
1.11544
1.11546
1.11548
1.11551
1.11554
1.11557
1.1156
1.11563
1.11567
1.1157
1.11574
1.11578
1.11583
1.11587
1.11592
1.11597
1.11603
1.11608
1.11614
1.1162
1.11626
1.11632
1.11639
1.11645
1.11652
1.11658
1.11665
1.11672
1.11679
1.11686
1.11693
1.11699
1.11706
1.11713
1.1172
1.11726
1.11733
1.11739
1.11745
1.11752
1.11758
1.11764
1.11769
1.11775
1.1178
1.11786
1.11791
1.11796
1.11801
1.11806
1.11811
1.11815
1.1182
1.11824
1.11829
1.11833
1.11838
1.11842
1.11847
1.11851
1.11856
1.11861
1.11865
1.1187
1.11875
1.11881
1.11886
1.11892
1.11898
1.11904
1.1191
1.11917
1.11924
1.11932
1.11939
1.11947
1.11956
1.11964
1.11973
1.11983
1.11993
1.12003
1.12013
1.12024
1.12036
1.12048
1.1206
1.12072
1.12085
1.12099
1.12112
1.12127
1.12141
1.12156
1.12172
1.12187
1.12204
1.12221
1.12238
1.12256
1.12274
1.12293
1.12312
1.12332
1.12353
1.12374
1.12396
1.12418
1.12441
1.12465
1.1249
1.12515
1.12541
1.12568
1.12595
1.12624
1.12653
1.12683
1.12714
1.12745
1.12777
1.1281
1.12843
1.12877
1.12912
1.12947
1.12982
1.13018
1.13054
1.13091
1.13127
1.13163
1.132
1.13236
1.13272
1.13308
1.13344
1.13379
1.13413
1.13447
1.13481
1.13513
1.13545
1.13577
1.13608
1.13638
1.13667
1.13695
1.13723
1.1375
1.13776
1.13801
1.13826
1.1385
1.13873
1.13896
1.13918
1.1394
1.1396
1.13981
1.14
1.14019
1.14038
1.14056
1.14073
1.1409
1.14107
1.14123
1.14138
1.14153
1.14168
1.14182
1.14195
1.14208
1.1422
1.14232
1.14243
1.14254
1.14264
1.14273
1.14282
1.14291
1.14299
1.14306
1.14313
1.14319
1.14325
1.1433
1.14335
1.1434
1.14344
1.14348
1.14351
1.14355
1.14358
1.14361
1.14364
1.14368
1.14371
1.14375
1.14379
1.14384
1.14389
1.14395
1.14402
1.1441
1.14419
1.14429
1.14441
1.14454
1.14469
1.14486
1.14505
1.14526
1.1455
1.14576
1.14605
1.14636
1.14671
1.14708
1.14749
1.14794
1.14841
1.14893
1.14948
1.15008
1.15071
1.15138
1.1521
1.15287
1.15368
1.15454
1.15545
1.15642
1.15745
1.15855
1.15971
1.16095
1.16227
1.1637
1.16523
1.1669
1.16873
1.17074
1.17298
1.17551
1.1784
1.18175
1.18566
1.19024
1.19555
1.20149
1.20631
1.20653
1.08998
1.08949
1.09017
1.09155
1.09318
1.09464
1.09589
1.09692
1.09775
1.09843
1.09897
1.09942
1.09979
1.10009
1.10034
1.10054
1.10071
1.10086
1.10097
1.10107
1.10115
1.10121
1.10126
1.1013
1.10133
1.10135
1.10136
1.10137
1.10137
1.10136
1.10135
1.10134
1.10132
1.10131
1.10128
1.10126
1.10124
1.10121
1.10119
1.10116
1.10113
1.10111
1.10109
1.10106
1.10104
1.10102
1.10101
1.10099
1.10098
1.10098
1.10098
1.10098
1.10098
1.101
1.10102
1.10104
1.10107
1.10111
1.10115
1.1012
1.10126
1.10133
1.1014
1.10148
1.10158
1.10168
1.10178
1.1019
1.10203
1.10216
1.10231
1.10246
1.10262
1.10279
1.10297
1.10316
1.10336
1.10356
1.10377
1.10399
1.10422
1.10446
1.1047
1.10495
1.10521
1.10547
1.10574
1.10601
1.10629
1.10657
1.10685
1.10714
1.10743
1.10772
1.10801
1.10831
1.1086
1.10889
1.10918
1.10947
1.10976
1.11004
1.11032
1.11059
1.11086
1.11112
1.11138
1.11163
1.11187
1.11211
1.11234
1.11256
1.11277
1.11297
1.11317
1.11335
1.11352
1.11369
1.11384
1.11398
1.11412
1.11424
1.11436
1.11446
1.11456
1.11465
1.11473
1.11481
1.11488
1.11494
1.11499
1.11504
1.11509
1.11513
1.11517
1.1152
1.11523
1.11526
1.11529
1.11531
1.11534
1.11536
1.11538
1.1154
1.11542
1.11545
1.11547
1.11549
1.11552
1.11554
1.11557
1.1156
1.11563
1.11567
1.1157
1.11574
1.11578
1.11582
1.11587
1.11591
1.11596
1.11602
1.11607
1.11612
1.11618
1.11624
1.1163
1.11636
1.11643
1.11649
1.11656
1.11663
1.1167
1.11676
1.11683
1.1169
1.11697
1.11704
1.11711
1.11718
1.11724
1.11731
1.11737
1.11744
1.1175
1.11756
1.11762
1.11768
1.11774
1.1178
1.11785
1.11791
1.11796
1.11801
1.11806
1.11811
1.11816
1.1182
1.11825
1.11829
1.11834
1.11838
1.11843
1.11847
1.11852
1.11856
1.11861
1.11866
1.11871
1.11876
1.11881
1.11886
1.11891
1.11897
1.11903
1.11909
1.11916
1.11922
1.11929
1.11937
1.11944
1.11952
1.11961
1.11969
1.11978
1.11988
1.11998
1.12008
1.12018
1.12029
1.12041
1.12052
1.12064
1.12077
1.1209
1.12103
1.12117
1.12131
1.12145
1.1216
1.12176
1.12191
1.12208
1.12224
1.12242
1.12259
1.12277
1.12296
1.12316
1.12335
1.12356
1.12377
1.12399
1.12421
1.12445
1.12468
1.12493
1.12518
1.12544
1.12571
1.12599
1.12628
1.12657
1.12687
1.12718
1.12749
1.12781
1.12814
1.12848
1.12882
1.12917
1.12952
1.12987
1.13023
1.13059
1.13096
1.13132
1.13169
1.13205
1.13242
1.13278
1.13313
1.13349
1.13384
1.13418
1.13452
1.13486
1.13518
1.1355
1.13581
1.13612
1.13642
1.13671
1.13699
1.13727
1.13753
1.13779
1.13805
1.13829
1.13853
1.13876
1.13899
1.13921
1.13942
1.13963
1.13983
1.14003
1.14022
1.1404
1.14058
1.14076
1.14093
1.14109
1.14125
1.14141
1.14155
1.1417
1.14184
1.14197
1.1421
1.14222
1.14234
1.14245
1.14256
1.14266
1.14276
1.14284
1.14293
1.14301
1.14308
1.14315
1.14321
1.14327
1.14332
1.14337
1.14341
1.14345
1.14349
1.14352
1.14356
1.14359
1.14362
1.14365
1.14368
1.14371
1.14375
1.14379
1.14384
1.14389
1.14395
1.14401
1.14409
1.14418
1.14428
1.1444
1.14453
1.14468
1.14485
1.14504
1.14525
1.14549
1.14575
1.14604
1.14636
1.1467
1.14708
1.14749
1.14793
1.14841
1.14893
1.14948
1.15008
1.15071
1.15138
1.1521
1.15287
1.15368
1.15454
1.15545
1.15642
1.15744
1.15853
1.15968
1.16091
1.16222
1.16362
1.16513
1.16676
1.16854
1.17048
1.17262
1.175
1.17766
1.18066
1.18402
1.18773
1.19152
1.19495
1.19733
1.19669
1.09263
1.09219
1.09238
1.09312
1.09409
1.09512
1.09609
1.09694
1.09766
1.09828
1.09879
1.09923
1.09959
1.0999
1.10015
1.10037
1.10055
1.1007
1.10083
1.10093
1.10102
1.10109
1.10115
1.1012
1.10123
1.10126
1.10128
1.10129
1.10129
1.10129
1.10129
1.10128
1.10127
1.10125
1.10124
1.10122
1.1012
1.10117
1.10115
1.10113
1.1011
1.10108
1.10106
1.10104
1.10102
1.101
1.10099
1.10097
1.10097
1.10096
1.10096
1.10096
1.10097
1.10099
1.10101
1.10103
1.10106
1.1011
1.10114
1.1012
1.10126
1.10132
1.1014
1.10148
1.10157
1.10167
1.10178
1.1019
1.10203
1.10217
1.10231
1.10246
1.10263
1.1028
1.10298
1.10317
1.10337
1.10357
1.10379
1.10401
1.10424
1.10448
1.10472
1.10497
1.10523
1.10549
1.10576
1.10604
1.10632
1.1066
1.10689
1.10718
1.10747
1.10776
1.10805
1.10835
1.10864
1.10894
1.10923
1.10952
1.10981
1.11009
1.11037
1.11064
1.11092
1.11118
1.11144
1.11169
1.11194
1.11217
1.1124
1.11262
1.11284
1.11304
1.11323
1.11341
1.11359
1.11375
1.1139
1.11405
1.11418
1.1143
1.11442
1.11452
1.11462
1.11471
1.11479
1.11486
1.11493
1.11499
1.11504
1.11509
1.11514
1.11518
1.11521
1.11525
1.11528
1.11531
1.11533
1.11536
1.11538
1.1154
1.11543
1.11545
1.11547
1.11549
1.11551
1.11554
1.11556
1.11559
1.11562
1.11565
1.11568
1.11572
1.11575
1.11579
1.11583
1.11587
1.11592
1.11597
1.11602
1.11607
1.11612
1.11618
1.11623
1.11629
1.11636
1.11642
1.11648
1.11655
1.11662
1.11668
1.11675
1.11682
1.11689
1.11696
1.11703
1.1171
1.11716
1.11723
1.1173
1.11737
1.11743
1.1175
1.11756
1.11762
1.11768
1.11774
1.1178
1.11786
1.11791
1.11796
1.11802
1.11807
1.11812
1.11817
1.11822
1.11826
1.11831
1.11836
1.1184
1.11845
1.11849
1.11854
1.11858
1.11863
1.11867
1.11872
1.11877
1.11882
1.11887
1.11892
1.11898
1.11904
1.11909
1.11916
1.11922
1.11929
1.11936
1.11943
1.11951
1.11959
1.11967
1.11976
1.11985
1.11994
1.12004
1.12014
1.12024
1.12035
1.12046
1.12058
1.1207
1.12082
1.12095
1.12108
1.12122
1.12136
1.1215
1.12165
1.1218
1.12196
1.12212
1.12228
1.12246
1.12263
1.12281
1.123
1.12319
1.12339
1.1236
1.12381
1.12402
1.12425
1.12448
1.12472
1.12496
1.12522
1.12548
1.12575
1.12603
1.12631
1.12661
1.12691
1.12722
1.12753
1.12786
1.12819
1.12852
1.12887
1.12922
1.12957
1.12993
1.13029
1.13065
1.13102
1.13138
1.13175
1.13211
1.13248
1.13284
1.1332
1.13355
1.1339
1.13425
1.13459
1.13492
1.13524
1.13556
1.13587
1.13618
1.13647
1.13676
1.13704
1.13731
1.13758
1.13784
1.13809
1.13833
1.13857
1.1388
1.13903
1.13924
1.13946
1.13966
1.13986
1.14006
1.14025
1.14043
1.14061
1.14079
1.14096
1.14112
1.14128
1.14144
1.14159
1.14173
1.14187
1.14201
1.14213
1.14226
1.14237
1.14249
1.14259
1.14269
1.14279
1.14288
1.14296
1.14304
1.14311
1.14318
1.14324
1.14329
1.14334
1.14339
1.14343
1.14347
1.14351
1.14354
1.14357
1.1436
1.14363
1.14366
1.14368
1.14372
1.14375
1.14379
1.14383
1.14388
1.14394
1.144
1.14408
1.14417
1.14427
1.14438
1.14451
1.14466
1.14483
1.14502
1.14523
1.14546
1.14572
1.14601
1.14633
1.14667
1.14705
1.14746
1.1479
1.14838
1.14889
1.14945
1.15004
1.15067
1.15135
1.15206
1.15282
1.15363
1.15449
1.15539
1.15635
1.15737
1.15844
1.15958
1.16079
1.16207
1.16344
1.1649
1.16648
1.16817
1.17001
1.17201
1.1742
1.17659
1.17918
1.18194
1.18476
1.18743
1.18949
1.19056
1.19032
1.09449
1.09405
1.09406
1.09444
1.09503
1.09573
1.09645
1.09712
1.09773
1.09826
1.09873
1.09913
1.09947
1.09977
1.10002
1.10024
1.10042
1.10058
1.10071
1.10082
1.10091
1.10099
1.10105
1.10111
1.10115
1.10118
1.1012
1.10122
1.10123
1.10123
1.10123
1.10123
1.10122
1.10121
1.1012
1.10118
1.10116
1.10114
1.10112
1.1011
1.10108
1.10106
1.10104
1.10102
1.101
1.10098
1.10097
1.10096
1.10095
1.10095
1.10095
1.10095
1.10096
1.10098
1.101
1.10102
1.10106
1.10109
1.10114
1.10119
1.10125
1.10132
1.1014
1.10148
1.10157
1.10168
1.10179
1.10191
1.10203
1.10217
1.10232
1.10247
1.10264
1.10281
1.10299
1.10318
1.10338
1.10359
1.1038
1.10403
1.10426
1.1045
1.10474
1.10499
1.10525
1.10552
1.10579
1.10607
1.10635
1.10663
1.10692
1.10721
1.10751
1.1078
1.1081
1.1084
1.1087
1.10899
1.10929
1.10958
1.10987
1.11015
1.11043
1.11071
1.11098
1.11125
1.11151
1.11176
1.11201
1.11225
1.11248
1.1127
1.11291
1.11312
1.11331
1.11349
1.11367
1.11383
1.11398
1.11413
1.11426
1.11438
1.11449
1.1146
1.11469
1.11478
1.11486
1.11493
1.115
1.11505
1.11511
1.11516
1.1152
1.11524
1.11527
1.11531
1.11534
1.11536
1.11539
1.11541
1.11544
1.11546
1.11548
1.1155
1.11552
1.11555
1.11557
1.1156
1.11562
1.11565
1.11568
1.11571
1.11574
1.11577
1.11581
1.11585
1.11589
1.11593
1.11598
1.11603
1.11608
1.11613
1.11618
1.11624
1.1163
1.11636
1.11642
1.11648
1.11655
1.11661
1.11668
1.11675
1.11682
1.11689
1.11696
1.11702
1.11709
1.11716
1.11723
1.1173
1.11737
1.11743
1.1175
1.11756
1.11763
1.11769
1.11775
1.11781
1.11787
1.11793
1.11798
1.11804
1.11809
1.11814
1.11819
1.11824
1.11829
1.11834
1.11838
1.11843
1.11848
1.11852
1.11857
1.11861
1.11866
1.1187
1.11875
1.1188
1.11885
1.1189
1.11895
1.119
1.11905
1.11911
1.11917
1.11923
1.1193
1.11936
1.11943
1.1195
1.11958
1.11966
1.11974
1.11983
1.11992
1.12001
1.1201
1.1202
1.12031
1.12041
1.12053
1.12064
1.12076
1.12088
1.12101
1.12114
1.12127
1.12141
1.12155
1.1217
1.12185
1.122
1.12217
1.12233
1.1225
1.12267
1.12285
1.12304
1.12323
1.12343
1.12363
1.12384
1.12406
1.12428
1.12451
1.12475
1.125
1.12525
1.12552
1.12579
1.12606
1.12635
1.12664
1.12695
1.12726
1.12757
1.1279
1.12823
1.12857
1.12892
1.12927
1.12962
1.12998
1.13035
1.13071
1.13108
1.13145
1.13182
1.13218
1.13255
1.13291
1.13327
1.13363
1.13398
1.13432
1.13466
1.13499
1.13532
1.13563
1.13594
1.13624
1.13654
1.13683
1.1371
1.13738
1.13764
1.1379
1.13814
1.13839
1.13862
1.13885
1.13907
1.13929
1.1395
1.13971
1.13991
1.1401
1.14029
1.14048
1.14066
1.14083
1.141
1.14117
1.14133
1.14148
1.14163
1.14178
1.14191
1.14205
1.14218
1.1423
1.14242
1.14253
1.14264
1.14274
1.14283
1.14292
1.143
1.14308
1.14315
1.14321
1.14327
1.14332
1.14337
1.14342
1.14346
1.1435
1.14353
1.14356
1.14359
1.14361
1.14364
1.14366
1.14369
1.14372
1.14375
1.14379
1.14383
1.14387
1.14393
1.14399
1.14406
1.14415
1.14425
1.14436
1.14449
1.14463
1.1448
1.14498
1.14519
1.14542
1.14568
1.14597
1.14628
1.14662
1.147
1.1474
1.14784
1.14832
1.14883
1.14938
1.14997
1.1506
1.15127
1.15198
1.15274
1.15354
1.15439
1.15528
1.15623
1.15723
1.15829
1.1594
1.16058
1.16183
1.16315
1.16456
1.16606
1.16766
1.16938
1.17122
1.17318
1.17527
1.17745
1.17967
1.18178
1.18362
1.18494
1.18546
1.18526
1.09582
1.09543
1.09535
1.09553
1.0959
1.09637
1.09689
1.09741
1.0979
1.09835
1.09876
1.09912
1.09943
1.09971
1.09995
1.10016
1.10034
1.10049
1.10063
1.10074
1.10083
1.10091
1.10098
1.10104
1.10108
1.10112
1.10115
1.10117
1.10118
1.10119
1.10119
1.10119
1.10118
1.10118
1.10116
1.10115
1.10113
1.10112
1.1011
1.10108
1.10106
1.10104
1.10102
1.10101
1.10099
1.10098
1.10096
1.10095
1.10095
1.10095
1.10095
1.10095
1.10096
1.10098
1.101
1.10102
1.10106
1.10109
1.10114
1.10119
1.10125
1.10132
1.1014
1.10148
1.10158
1.10168
1.10179
1.10191
1.10204
1.10218
1.10232
1.10248
1.10264
1.10282
1.103
1.10319
1.10339
1.1036
1.10382
1.10404
1.10427
1.10451
1.10476
1.10502
1.10528
1.10554
1.10582
1.1061
1.10638
1.10667
1.10696
1.10725
1.10755
1.10785
1.10815
1.10845
1.10875
1.10905
1.10934
1.10964
1.10993
1.11022
1.1105
1.11078
1.11106
1.11133
1.11159
1.11185
1.11209
1.11234
1.11257
1.11279
1.11301
1.11321
1.11341
1.11359
1.11376
1.11393
1.11408
1.11422
1.11435
1.11447
1.11458
1.11469
1.11478
1.11487
1.11494
1.11501
1.11508
1.11513
1.11519
1.11523
1.11527
1.11531
1.11535
1.11538
1.11541
1.11543
1.11546
1.11548
1.1155
1.11553
1.11555
1.11557
1.11559
1.11561
1.11564
1.11566
1.11569
1.11572
1.11574
1.11578
1.11581
1.11584
1.11588
1.11592
1.11596
1.116
1.11605
1.1161
1.11615
1.1162
1.11626
1.11631
1.11637
1.11643
1.1165
1.11656
1.11662
1.11669
1.11676
1.11683
1.11689
1.11696
1.11703
1.1171
1.11717
1.11724
1.11731
1.11738
1.11745
1.11751
1.11758
1.11764
1.11771
1.11777
1.11783
1.11789
1.11795
1.11801
1.11806
1.11812
1.11817
1.11822
1.11827
1.11832
1.11837
1.11842
1.11847
1.11851
1.11856
1.11861
1.11865
1.1187
1.11874
1.11879
1.11884
1.11888
1.11893
1.11898
1.11903
1.11909
1.11914
1.1192
1.11926
1.11932
1.11938
1.11945
1.11952
1.11959
1.11966
1.11974
1.11982
1.11991
1.12
1.12009
1.12018
1.12028
1.12038
1.12049
1.1206
1.12071
1.12083
1.12095
1.12107
1.1212
1.12133
1.12147
1.12161
1.12175
1.1219
1.12206
1.12222
1.12238
1.12255
1.12272
1.1229
1.12308
1.12327
1.12347
1.12367
1.12388
1.1241
1.12432
1.12455
1.12479
1.12503
1.12529
1.12555
1.12582
1.1261
1.12639
1.12668
1.12699
1.1273
1.12762
1.12794
1.12828
1.12862
1.12897
1.12932
1.12968
1.13004
1.13041
1.13078
1.13115
1.13152
1.13189
1.13226
1.13263
1.13299
1.13335
1.13371
1.13406
1.1344
1.13474
1.13507
1.1354
1.13571
1.13602
1.13632
1.13662
1.1369
1.13718
1.13745
1.13771
1.13796
1.13821
1.13845
1.13869
1.13891
1.13913
1.13935
1.13956
1.13976
1.13996
1.14016
1.14035
1.14053
1.14071
1.14088
1.14105
1.14122
1.14138
1.14153
1.14168
1.14183
1.14197
1.1421
1.14223
1.14235
1.14247
1.14258
1.14269
1.14279
1.14288
1.14297
1.14305
1.14312
1.14319
1.14326
1.14331
1.14337
1.14341
1.14345
1.14349
1.14353
1.14356
1.14358
1.14361
1.14363
1.14365
1.14368
1.1437
1.14373
1.14375
1.14378
1.14382
1.14386
1.14391
1.14397
1.14404
1.14412
1.14422
1.14433
1.14445
1.14459
1.14475
1.14494
1.14514
1.14537
1.14562
1.1459
1.14621
1.14655
1.14692
1.14732
1.14776
1.14823
1.14874
1.14928
1.14987
1.15049
1.15116
1.15186
1.15261
1.1534
1.15424
1.15512
1.15605
1.15703
1.15806
1.15915
1.16029
1.1615
1.16277
1.16411
1.16553
1.16703
1.16861
1.17027
1.17201
1.17381
1.17562
1.17738
1.17897
1.18025
1.18111
1.1814
1.18112
1.09681
1.09647
1.09636
1.09643
1.09665
1.09697
1.09734
1.09774
1.09813
1.0985
1.09885
1.09916
1.09945
1.0997
1.09992
1.10012
1.10029
1.10044
1.10057
1.10068
1.10078
1.10086
1.10093
1.10099
1.10103
1.10107
1.1011
1.10112
1.10114
1.10115
1.10116
1.10116
1.10116
1.10115
1.10114
1.10113
1.10112
1.1011
1.10108
1.10107
1.10105
1.10103
1.10102
1.101
1.10099
1.10097
1.10096
1.10095
1.10095
1.10095
1.10095
1.10095
1.10096
1.10098
1.101
1.10103
1.10106
1.1011
1.10114
1.1012
1.10126
1.10133
1.1014
1.10149
1.10158
1.10169
1.1018
1.10192
1.10205
1.10218
1.10233
1.10249
1.10266
1.10283
1.10301
1.10321
1.10341
1.10362
1.10383
1.10406
1.10429
1.10454
1.10479
1.10504
1.1053
1.10557
1.10585
1.10613
1.10642
1.10671
1.107
1.1073
1.1076
1.1079
1.1082
1.10851
1.10881
1.10911
1.10941
1.10971
1.11
1.1103
1.11058
1.11086
1.11114
1.11141
1.11168
1.11194
1.11219
1.11243
1.11267
1.11289
1.11311
1.11332
1.11351
1.1137
1.11387
1.11403
1.11419
1.11433
1.11446
1.11458
1.11469
1.11479
1.11488
1.11496
1.11504
1.11511
1.11517
1.11522
1.11527
1.11532
1.11536
1.1154
1.11543
1.11546
1.11549
1.11551
1.11554
1.11556
1.11558
1.1156
1.11563
1.11565
1.11567
1.11569
1.11572
1.11574
1.11577
1.11579
1.11582
1.11585
1.11589
1.11592
1.11596
1.116
1.11604
1.11609
1.11613
1.11618
1.11623
1.11629
1.11634
1.1164
1.11646
1.11652
1.11658
1.11664
1.11671
1.11678
1.11684
1.11691
1.11698
1.11705
1.11712
1.11719
1.11726
1.11733
1.1174
1.11747
1.11754
1.1176
1.11767
1.11774
1.1178
1.11786
1.11793
1.11799
1.11804
1.1181
1.11816
1.11821
1.11827
1.11832
1.11837
1.11842
1.11847
1.11852
1.11857
1.11861
1.11866
1.1187
1.11875
1.1188
1.11884
1.11889
1.11894
1.11898
1.11903
1.11908
1.11913
1.11919
1.11924
1.1193
1.11936
1.11942
1.11948
1.11954
1.11961
1.11968
1.11976
1.11983
1.11992
1.12
1.12009
1.12018
1.12027
1.12037
1.12047
1.12057
1.12068
1.12079
1.1209
1.12102
1.12115
1.12127
1.1214
1.12154
1.12167
1.12182
1.12196
1.12212
1.12227
1.12243
1.1226
1.12277
1.12295
1.12313
1.12332
1.12351
1.12371
1.12392
1.12414
1.12436
1.12459
1.12483
1.12507
1.12533
1.12559
1.12586
1.12614
1.12642
1.12672
1.12703
1.12734
1.12766
1.12799
1.12833
1.12867
1.12902
1.12938
1.12974
1.1301
1.13047
1.13084
1.13122
1.13159
1.13197
1.13234
1.13271
1.13308
1.13344
1.1338
1.13415
1.1345
1.13483
1.13517
1.13549
1.13581
1.13611
1.13641
1.1367
1.13699
1.13726
1.13753
1.13779
1.13804
1.13829
1.13852
1.13876
1.13898
1.1392
1.13942
1.13962
1.13983
1.14003
1.14022
1.14041
1.14059
1.14077
1.14094
1.14111
1.14128
1.14144
1.14159
1.14174
1.14189
1.14203
1.14216
1.14229
1.14242
1.14253
1.14264
1.14275
1.14285
1.14294
1.14303
1.14311
1.14318
1.14325
1.14331
1.14336
1.14341
1.14346
1.1435
1.14353
1.14356
1.14359
1.14361
1.14364
1.14365
1.14367
1.14369
1.14371
1.14373
1.14376
1.14378
1.14382
1.14385
1.1439
1.14395
1.14402
1.1441
1.14418
1.14429
1.14441
1.14455
1.1447
1.14488
1.14508
1.1453
1.14555
1.14583
1.14613
1.14646
1.14683
1.14723
1.14766
1.14812
1.14862
1.14916
1.14974
1.15035
1.15101
1.15171
1.15244
1.15322
1.15404
1.15491
1.15582
1.15678
1.15778
1.15884
1.15994
1.1611
1.16231
1.16358
1.1649
1.16629
1.16773
1.16922
1.17075
1.17228
1.17378
1.17517
1.17637
1.17729
1.17786
1.17801
1.1777
1.09758
1.0973
1.09717
1.09718
1.09731
1.09752
1.09779
1.09809
1.0984
1.0987
1.09899
1.09926
1.09951
1.09973
1.09994
1.10012
1.10028
1.10042
1.10055
1.10065
1.10075
1.10083
1.1009
1.10095
1.101
1.10104
1.10107
1.1011
1.10112
1.10113
1.10114
1.10114
1.10114
1.10114
1.10113
1.10112
1.10111
1.1011
1.10108
1.10107
1.10105
1.10103
1.10102
1.101
1.10099
1.10098
1.10097
1.10096
1.10096
1.10095
1.10096
1.10096
1.10097
1.10099
1.10101
1.10104
1.10107
1.10111
1.10115
1.10121
1.10127
1.10134
1.10141
1.1015
1.10159
1.10169
1.10181
1.10193
1.10206
1.10219
1.10234
1.1025
1.10267
1.10284
1.10303
1.10322
1.10342
1.10363
1.10385
1.10408
1.10431
1.10456
1.10481
1.10506
1.10533
1.1056
1.10588
1.10616
1.10645
1.10675
1.10704
1.10734
1.10765
1.10795
1.10826
1.10857
1.10887
1.10918
1.10948
1.10978
1.11008
1.11037
1.11067
1.11095
1.11123
1.11151
1.11178
1.11204
1.11229
1.11254
1.11278
1.113
1.11322
1.11343
1.11363
1.11381
1.11399
1.11415
1.11431
1.11445
1.11458
1.11469
1.1148
1.1149
1.11499
1.11507
1.11515
1.11521
1.11527
1.11533
1.11538
1.11542
1.11546
1.11549
1.11552
1.11555
1.11558
1.11561
1.11563
1.11565
1.11567
1.11569
1.11571
1.11574
1.11576
1.11578
1.1158
1.11583
1.11585
1.11588
1.11591
1.11594
1.11598
1.11601
1.11605
1.11609
1.11613
1.11618
1.11622
1.11627
1.11632
1.11638
1.11643
1.11649
1.11655
1.11661
1.11668
1.11674
1.11681
1.11687
1.11694
1.11701
1.11708
1.11715
1.11722
1.11729
1.11736
1.11743