# vtk DataFile Version 2.0
LBE mesh
ASCII
DATASET STRUCTURED_POINTS
DIMENSIONS 400 100 1
ASPECT_RATIO 1 1 1
ORIGIN 0 0 0
POINT_DATA 40000
SCALARS rho double 1
LOOKUP_TABLE default
1.2114
1.31436
1.34335
1.348
1.35005
1.35213
1.35371
1.35472
1.3554
1.3559
1.35629
1.3566
1.35685
1.35705
1.35722
1.35735
1.35747
1.35756
1.35764
1.3577
1.35775
1.35779
1.35781
1.35783
1.35785
1.35785
1.35785
1.35784
1.35782
1.3578
1.35778
1.35775
1.35772
1.35768
1.35764
1.3576
1.35756
1.35751
1.35747
1.35742
1.35737
1.35733
1.35728
1.35724
1.35719
1.35715
1.35711
1.35708
1.35704
1.35701
1.35699
1.35697
1.35696
1.35695
1.35694
1.35695
1.35696
1.35698
1.357
1.35704
1.35708
1.35713
1.35719
1.35726
1.35734
1.35742
1.35752
1.35763
1.35775
1.35787
1.35801
1.35816
1.35831
1.35848
1.35865
1.35884
1.35903
1.35924
1.35945
1.35967
1.3599
1.36014
1.36039
1.36064
1.3609
1.36117
1.36145
1.36173
1.36202
1.36231
1.36261
1.36292
1.36322
1.36353
1.36385
1.36416
1.36448
1.3648
1.36511
1.36543
1.36574
1.36606
1.36637
1.36667
1.36698
1.36727
1.36757
1.36785
1.36813
1.3684
1.36867
1.36892
1.36917
1.36941
1.36963
1.36985
1.37005
1.37025
1.37043
1.3706
1.37076
1.37091
1.37105
1.37118
1.3713
1.37141
1.3715
1.37159
1.37167
1.37174
1.3718
1.37185
1.3719
1.37194
1.37198
1.37201
1.37203
1.37205
1.37206
1.37207
1.37208
1.37208
1.37208
1.37208
1.37207
1.37207
1.37206
1.37205
1.37204
1.37202
1.37201
1.372
1.37198
1.37196
1.37195
1.37193
1.37191
1.3719
1.37188
1.37186
1.37185
1.37183
1.37181
1.3718
1.37178
1.37176
1.37175
1.37173
1.37172
1.3717
1.37169
1.37168
1.37166
1.37165
1.37164
1.37163
1.37162
1.37161
1.3716
1.37159
1.37158
1.37157
1.37157
1.37156
1.37155
1.37155
1.37154
1.37154
1.37154
1.37154
1.37154
1.37154
1.37154
1.37154
1.37155
1.37155
1.37156
1.37157
1.37158
1.37159
1.37161
1.37162
1.37164
1.37166
1.37168
1.37171
1.37174
1.37177
1.3718
1.37184
1.37188
1.37192
1.37197
1.37202
1.37207
1.37213
1.37219
1.37226
1.37233
1.37241
1.37249
1.37257
1.37267
1.37276
1.37287
1.37298
1.37309
1.37322
1.37334
1.37348
1.37362
1.37377
1.37393
1.3741
1.37427
1.37445
1.37464
1.37484
1.37504
1.37526
1.37548
1.37571
1.37595
1.37621
1.37646
1.37673
1.37701
1.3773
1.37759
1.3779
1.37821
1.37853
1.37886
1.3792
1.37955
1.37991
1.38028
1.38065
1.38103
1.38142
1.38181
1.38221
1.38262
1.38303
1.38344
1.38386
1.38429
1.38471
1.38514
1.38557
1.386
1.38643
1.38686
1.38728
1.38771
1.38813
1.38854
1.38895
1.38935
1.38975
1.39014
1.39052
1.39089
1.39125
1.39159
1.39193
1.39226
1.39258
1.39288
1.39317
1.39346
1.39373
1.39398
1.39423
1.39447
1.39469
1.39491
1.39511
1.39531
1.39549
1.39567
1.39584
1.39601
1.39616
1.39631
1.39645
1.39659
1.39672
1.39684
1.39696
1.39708
1.39719
1.3973
1.3974
1.3975
1.3976
1.3977
1.39779
1.39788
1.39796
1.39805
1.39813
1.39821
1.39829
1.39837
1.39844
1.39852
1.3986
1.39867
1.39875
1.39882
1.3989
1.39898
1.39906
1.39914
1.39923
1.39932
1.39941
1.39951
1.39961
1.39972
1.39984
1.39997
1.4001
1.40024
1.4004
1.40056
1.40074
1.40093
1.40113
1.40134
1.40157
1.40182
1.40208
1.40236
1.40266
1.40298
1.40332
1.40369
1.40407
1.40448
1.40491
1.40536
1.40585
1.40636
1.4069
1.40746
1.40806
1.40869
1.40936
1.41006
1.41079
1.41157
1.41238
1.41324
1.41414
1.41509
1.4161
1.41715
1.41827
1.41946
1.42072
1.42205
1.42348
1.42501
1.42666
1.42845
1.4304
1.43253
1.4349
1.43756
1.44058
1.44408
1.44821
1.45324
1.45973
1.46881
1.48161
1.49986
1.5359
1.30738
1.31472
1.32824
1.3407
1.347
1.35001
1.35184
1.35317
1.35416
1.3549
1.35545
1.35588
1.35623
1.35651
1.35674
1.35693
1.35709
1.35722
1.35733
1.35742
1.35749
1.35755
1.35759
1.35763
1.35765
1.35767
1.35768
1.35768
1.35767
1.35766
1.35765
1.35762
1.3576
1.35757
1.35754
1.3575
1.35746
1.35742
1.35738
1.35734
1.35729
1.35725
1.35721
1.35717
1.35713
1.35709
1.35705
1.35702
1.35699
1.35697
1.35694
1.35693
1.35692
1.35691
1.35691
1.35692
1.35693
1.35695
1.35698
1.35702
1.35706
1.35711
1.35718
1.35725
1.35733
1.35742
1.35752
1.35763
1.35774
1.35787
1.35801
1.35816
1.35832
1.35849
1.35866
1.35885
1.35904
1.35925
1.35946
1.35969
1.35992
1.36016
1.3604
1.36066
1.36092
1.36119
1.36147
1.36175
1.36204
1.36233
1.36263
1.36294
1.36324
1.36355
1.36386
1.36418
1.3645
1.36481
1.36513
1.36544
1.36576
1.36607
1.36638
1.36668
1.36698
1.36728
1.36757
1.36786
1.36813
1.3684
1.36867
1.36892
1.36916
1.3694
1.36962
1.36984
1.37004
1.37023
1.37042
1.37059
1.37075
1.37089
1.37103
1.37116
1.37127
1.37138
1.37148
1.37156
1.37164
1.37171
1.37177
1.37183
1.37187
1.37191
1.37195
1.37198
1.372
1.37202
1.37204
1.37205
1.37205
1.37206
1.37206
1.37206
1.37205
1.37205
1.37204
1.37203
1.37202
1.372
1.37199
1.37198
1.37196
1.37195
1.37193
1.37192
1.3719
1.37188
1.37187
1.37185
1.37183
1.37182
1.3718
1.37178
1.37177
1.37175
1.37174
1.37172
1.37171
1.37169
1.37168
1.37167
1.37165
1.37164
1.37163
1.37162
1.37161
1.3716
1.37159
1.37158
1.37157
1.37157
1.37156
1.37155
1.37155
1.37154
1.37154
1.37154
1.37153
1.37153
1.37153
1.37153
1.37154
1.37154
1.37155
1.37155
1.37156
1.37157
1.37158
1.37159
1.37161
1.37162
1.37164
1.37166
1.37169
1.37171
1.37174
1.37177
1.3718
1.37184
1.37188
1.37192
1.37197
1.37202
1.37208
1.37214
1.3722
1.37227
1.37234
1.37242
1.3725
1.37258
1.37268
1.37278
1.37288
1.37299
1.37311
1.37323
1.37336
1.3735
1.37364
1.37379
1.37395
1.37412
1.37429
1.37447
1.37466
1.37486
1.37507
1.37528
1.37551
1.37574
1.37598
1.37624
1.37649
1.37676
1.37704
1.37733
1.37763
1.37793
1.37825
1.37857
1.3789
1.37924
1.37959
1.37995
1.38031
1.38069
1.38107
1.38145
1.38185
1.38225
1.38265
1.38306
1.38348
1.3839
1.38432
1.38475
1.38517
1.3856
1.38603
1.38646
1.38689
1.38731
1.38773
1.38815
1.38856
1.38897
1.38937
1.38976
1.39015
1.39053
1.39089
1.39125
1.3916
1.39194
1.39226
1.39257
1.39288
1.39317
1.39345
1.39372
1.39397
1.39422
1.39445
1.39468
1.39489
1.39509
1.39529
1.39548
1.39565
1.39582
1.39599
1.39614
1.39629
1.39643
1.39657
1.3967
1.39682
1.39695
1.39706
1.39717
1.39728
1.39739
1.39749
1.39759
1.39768
1.39777
1.39786
1.39795
1.39803
1.39812
1.3982
1.39828
1.39836
1.39843
1.39851
1.39859
1.39866
1.39874
1.39881
1.39889
1.39897
1.39905
1.39914
1.39922
1.39931
1.39941
1.39951
1.39962
1.39973
1.39985
1.39998
1.40011
1.40026
1.40041
1.40058
1.40076
1.40095
1.40115
1.40137
1.4016
1.40185
1.40212
1.4024
1.4027
1.40303
1.40337
1.40374
1.40412
1.40453
1.40497
1.40543
1.40592
1.40643
1.40697
1.40755
1.40815
1.40879
1.40945
1.41016
1.4109
1.41168
1.4125
1.41337
1.41428
1.41524
1.41625
1.41732
1.41845
1.41965
1.42092
1.42228
1.42373
1.42528
1.42696
1.42879
1.43078
1.43298
1.43543
1.43819
1.44135
1.44503
1.44943
1.45487
1.46173
1.47062
1.48358
1.50639
1.54274
1.32955
1.32471
1.33326
1.34054
1.34493
1.34809
1.35038
1.35199
1.35315
1.35402
1.3547
1.35523
1.35566
1.35601
1.3563
1.35653
1.35673
1.35689
1.35703
1.35715
1.35724
1.35732
1.35738
1.35743
1.35747
1.3575
1.35752
1.35753
1.35753
1.35753
1.35752
1.3575
1.35748
1.35746
1.35743
1.3574
1.35737
1.35733
1.35729
1.35726
1.35722
1.35718
1.35714
1.3571
1.35706
1.35703
1.35699
1.35696
1.35694
1.35691
1.3569
1.35688
1.35687
1.35687
1.35687
1.35688
1.3569
1.35692
1.35695
1.35699
1.35703
1.35709
1.35715
1.35723
1.35731
1.3574
1.3575
1.35761
1.35773
1.35787
1.35801
1.35816
1.35832
1.35848
1.35866
1.35885
1.35905
1.35925
1.35947
1.35969
1.35992
1.36017
1.36041
1.36067
1.36093
1.3612
1.36148
1.36176
1.36205
1.36235
1.36265
1.36295
1.36326
1.36357
1.36388
1.3642
1.36451
1.36483
1.36514
1.36546
1.36577
1.36608
1.36639
1.3667
1.367
1.36729
1.36758
1.36787
1.36814
1.36841
1.36867
1.36892
1.36917
1.3694
1.36962
1.36984
1.37004
1.37023
1.37041
1.37058
1.37074
1.37088
1.37102
1.37114
1.37126
1.37136
1.37146
1.37155
1.37162
1.37169
1.37175
1.37181
1.37185
1.37189
1.37193
1.37196
1.37198
1.372
1.37201
1.37202
1.37203
1.37204
1.37204
1.37204
1.37203
1.37203
1.37202
1.37201
1.372
1.37199
1.37197
1.37196
1.37195
1.37193
1.37192
1.3719
1.37188
1.37187
1.37185
1.37184
1.37182
1.3718
1.37179
1.37177
1.37176
1.37174
1.37173
1.37171
1.3717
1.37168
1.37167
1.37166
1.37165
1.37163
1.37162
1.37161
1.3716
1.37159
1.37158
1.37157
1.37157
1.37156
1.37155
1.37155
1.37154
1.37154
1.37153
1.37153
1.37153
1.37153
1.37153
1.37153
1.37153
1.37154
1.37154
1.37155
1.37156
1.37157
1.37158
1.37159
1.3716
1.37162
1.37164
1.37166
1.37169
1.37171
1.37174
1.37177
1.3718
1.37184
1.37188
1.37193
1.37197
1.37203
1.37208
1.37214
1.3722
1.37227
1.37234
1.37242
1.3725
1.37259
1.37269
1.37278
1.37289
1.373
1.37312
1.37324
1.37337
1.37351
1.37365
1.37381
1.37397
1.37413
1.37431
1.37449
1.37468
1.37488
1.37509
1.3753
1.37553
1.37576
1.37601
1.37626
1.37652
1.37679
1.37707
1.37736
1.37765
1.37796
1.37827
1.3786
1.37893
1.37927
1.37962
1.37998
1.38034
1.38072
1.3811
1.38149
1.38188
1.38228
1.38269
1.3831
1.38351
1.38393
1.38436
1.38478
1.38521
1.38564
1.38606
1.38649
1.38692
1.38734
1.38776
1.38818
1.38859
1.389
1.3894
1.38979
1.39017
1.39055
1.39091
1.39127
1.39161
1.39195
1.39227
1.39258
1.39288
1.39317
1.39345
1.39372
1.39397
1.39421
1.39445
1.39467
1.39488
1.39509
1.39528
1.39547
1.39564
1.39581
1.39597
1.39613
1.39628
1.39642
1.39655
1.39668
1.39681
1.39693
1.39705
1.39716
1.39727
1.39737
1.39747
1.39757
1.39767
1.39776
1.39785
1.39794
1.39802
1.3981
1.39819
1.39827
1.39834
1.39842
1.3985
1.39857
1.39865
1.39873
1.3988
1.39888
1.39896
1.39905
1.39913
1.39922
1.39931
1.39941
1.39951
1.39961
1.39973
1.39985
1.39997
1.40011
1.40026
1.40041
1.40058
1.40076
1.40095
1.40116
1.40138
1.40161
1.40187
1.40213
1.40242
1.40273
1.40305
1.4034
1.40376
1.40415
1.40457
1.405
1.40547
1.40596
1.40647
1.40702
1.4076
1.4082
1.40884
1.40952
1.41022
1.41097
1.41175
1.41258
1.41345
1.41436
1.41533
1.41635
1.41742
1.41856
1.41976
1.42104
1.4224
1.42386
1.42543
1.42712
1.42896
1.43097
1.43319
1.43565
1.43843
1.4416
1.44529
1.44963
1.45489
1.46147
1.47
1.48068
1.49229
1.5035
1.33725
1.33592
1.33841
1.34131
1.3448
1.34764
1.34969
1.35122
1.35242
1.35336
1.3541
1.35469
1.35518
1.35557
1.3559
1.35618
1.3564
1.3566
1.35676
1.3569
1.35701
1.35711
1.35718
1.35725
1.3573
1.35734
1.35736
1.35738
1.3574
1.3574
1.3574
1.35739
1.35737
1.35735
1.35733
1.3573
1.35728
1.35724
1.35721
1.35717
1.35714
1.3571
1.35707
1.35703
1.357
1.35696
1.35693
1.35691
1.35688
1.35686
1.35684
1.35683
1.35682
1.35682
1.35683
1.35684
1.35685
1.35688
1.35691
1.35695
1.357
1.35706
1.35712
1.3572
1.35728
1.35738
1.35748
1.35759
1.35772
1.35785
1.35799
1.35814
1.3583
1.35847
1.35865
1.35884
1.35904
1.35925
1.35947
1.35969
1.35993
1.36017
1.36042
1.36067
1.36094
1.36121
1.36149
1.36177
1.36206
1.36236
1.36266
1.36296
1.36327
1.36358
1.3639
1.36421
1.36453
1.36485
1.36516
1.36548
1.36579
1.3661
1.36641
1.36672
1.36701
1.36731
1.3676
1.36788
1.36816
1.36843
1.36869
1.36894
1.36918
1.36941
1.36963
1.36985
1.37005
1.37024
1.37042
1.37058
1.37074
1.37088
1.37102
1.37114
1.37126
1.37136
1.37145
1.37154
1.37161
1.37168
1.37174
1.37179
1.37184
1.37188
1.37191
1.37194
1.37196
1.37198
1.372
1.37201
1.37201
1.37202
1.37202
1.37202
1.37201
1.37201
1.372
1.37199
1.37198
1.37197
1.37196
1.37195
1.37193
1.37192
1.3719
1.37189
1.37187
1.37186
1.37184
1.37182
1.37181
1.37179
1.37178
1.37176
1.37175
1.37173
1.37172
1.3717
1.37169
1.37168
1.37166
1.37165
1.37164
1.37163
1.37162
1.37161
1.3716
1.37159
1.37158
1.37157
1.37156
1.37155
1.37155
1.37154
1.37154
1.37153
1.37153
1.37153
1.37153
1.37153
1.37153
1.37153
1.37153
1.37153
1.37154
1.37155
1.37155
1.37156
1.37157
1.37159
1.3716
1.37162
1.37164
1.37166
1.37168
1.37171
1.37174
1.37177
1.3718
1.37184
1.37188
1.37193
1.37197
1.37203
1.37208
1.37214
1.3722
1.37227
1.37235
1.37242
1.37251
1.3726
1.37269
1.37279
1.37289
1.37301
1.37312
1.37325
1.37338
1.37352
1.37366
1.37381
1.37397
1.37414
1.37432
1.3745
1.37469
1.37489
1.3751
1.37532
1.37554
1.37578
1.37602
1.37627
1.37653
1.3768
1.37708
1.37737
1.37767
1.37798
1.37829
1.37862
1.37895
1.37929
1.37964
1.38
1.38037
1.38074
1.38113
1.38151
1.38191
1.38231
1.38272
1.38313
1.38354
1.38396
1.38439
1.38481
1.38524
1.38567
1.3861
1.38653
1.38695
1.38738
1.3878
1.38821
1.38862
1.38903
1.38943
1.38982
1.3902
1.39057
1.39094
1.39129
1.39164
1.39197
1.39229
1.3926
1.3929
1.39319
1.39346
1.39373
1.39398
1.39422
1.39445
1.39467
1.39488
1.39509
1.39528
1.39546
1.39564
1.39581
1.39597
1.39612
1.39627
1.39641
1.39654
1.39667
1.3968
1.39692
1.39704
1.39715
1.39726
1.39736
1.39746
1.39756
1.39766
1.39775
1.39784
1.39793
1.39801
1.39809
1.39818
1.39826
1.39833
1.39841
1.39849
1.39856
1.39864
1.39872
1.39879
1.39887
1.39895
1.39904
1.39912
1.39921
1.3993
1.3994
1.3995
1.3996
1.39972
1.39984
1.39997
1.4001
1.40025
1.40041
1.40058
1.40076
1.40095
1.40116
1.40138
1.40161
1.40186
1.40213
1.40242
1.40273
1.40305
1.4034
1.40377
1.40416
1.40458
1.40502
1.40548
1.40597
1.40649
1.40704
1.40762
1.40823
1.40887
1.40954
1.41025
1.411
1.41179
1.41262
1.41349
1.4144
1.41537
1.41639
1.41746
1.4186
1.4198
1.42108
1.42244
1.4239
1.42546
1.42714
1.42897
1.43096
1.43315
1.43558
1.4383
1.44137
1.4449
1.449
1.4538
1.45943
1.46596
1.47323
1.47914
1.47933
1.342
1.34158
1.34207
1.34373
1.3459
1.34783
1.3495
1.3509
1.35202
1.35293
1.35367
1.35429
1.35479
1.35521
1.35557
1.35587
1.35612
1.35633
1.35651
1.35667
1.3568
1.35691
1.357
1.35707
1.35713
1.35718
1.35722
1.35725
1.35727
1.35728
1.35728
1.35728
1.35727
1.35725
1.35723
1.35721
1.35719
1.35716
1.35713
1.3571
1.35706
1.35703
1.35699
1.35696
1.35693
1.3569
1.35687
1.35684
1.35682
1.3568
1.35679
1.35678
1.35677
1.35677
1.35678
1.35679
1.35681
1.35684
1.35687
1.35691
1.35696
1.35702
1.35709
1.35717
1.35725
1.35735
1.35745
1.35757
1.35769
1.35782
1.35797
1.35812
1.35828
1.35846
1.35864
1.35883
1.35903
1.35924
1.35946
1.35968
1.35992
1.36016
1.36041
1.36067
1.36094
1.36121
1.36149
1.36178
1.36207
1.36237
1.36267
1.36297
1.36328
1.3636
1.36391
1.36423
1.36454
1.36486
1.36518
1.3655
1.36581
1.36612
1.36643
1.36674
1.36704
1.36733
1.36762
1.36791
1.36818
1.36845
1.36871
1.36896
1.3692
1.36943
1.36965
1.36987
1.37006
1.37025
1.37043
1.3706
1.37075
1.37089
1.37103
1.37115
1.37126
1.37136
1.37145
1.37154
1.37161
1.37168
1.37174
1.37179
1.37183
1.37187
1.3719
1.37193
1.37195
1.37197
1.37198
1.372
1.372
1.37201
1.37201
1.37201
1.372
1.372
1.37199
1.37198
1.37197
1.37196
1.37195
1.37193
1.37192
1.37191
1.37189
1.37188
1.37186
1.37185
1.37183
1.37181
1.3718
1.37178
1.37177
1.37175
1.37174
1.37172
1.37171
1.3717
1.37168
1.37167
1.37166
1.37165
1.37163
1.37162
1.37161
1.3716
1.37159
1.37158
1.37157
1.37156
1.37156
1.37155
1.37154
1.37154
1.37153
1.37153
1.37153
1.37152
1.37152
1.37152
1.37152
1.37152
1.37153
1.37153
1.37154
1.37154
1.37155
1.37156
1.37157
1.37159
1.3716
1.37162
1.37164
1.37166
1.37168
1.37171
1.37174
1.37177
1.3718
1.37184
1.37188
1.37192
1.37197
1.37202
1.37208
1.37214
1.3722
1.37227
1.37234
1.37242
1.37251
1.37259
1.37269
1.37279
1.37289
1.37301
1.37312
1.37325
1.37338
1.37352
1.37366
1.37382
1.37398
1.37414
1.37432
1.3745
1.3747
1.3749
1.3751
1.37532
1.37555
1.37578
1.37603
1.37628
1.37654
1.37681
1.37709
1.37738
1.37768
1.37799
1.37831
1.37863
1.37897
1.37931
1.37966
1.38002
1.38039
1.38076
1.38114
1.38153
1.38193
1.38233
1.38274
1.38315
1.38357
1.38399
1.38442
1.38484
1.38527
1.3857
1.38613
1.38656
1.38699
1.38741
1.38783
1.38825
1.38866
1.38907
1.38946
1.38985
1.39024
1.39061
1.39097
1.39133
1.39167
1.392
1.39232
1.39263
1.39292
1.39321
1.39348
1.39374
1.394
1.39424
1.39446
1.39468
1.39489
1.39509
1.39528
1.39547
1.39564
1.39581
1.39597
1.39612
1.39626
1.3964
1.39654
1.39667
1.39679
1.39691
1.39703
1.39714
1.39725
1.39735
1.39745
1.39755
1.39765
1.39774
1.39783
1.39792
1.398
1.39809
1.39817
1.39825
1.39833
1.3984
1.39848
1.39856
1.39863
1.39871
1.39878
1.39886
1.39894
1.39902
1.39911
1.3992
1.39929
1.39938
1.39948
1.39959
1.3997
1.39982
1.39995
1.40009
1.40023
1.40039
1.40056
1.40074
1.40093
1.40114
1.40136
1.4016
1.40185
1.40212
1.40241
1.40271
1.40304
1.40339
1.40376
1.40415
1.40456
1.405
1.40547
1.40596
1.40648
1.40703
1.40761
1.40822
1.40886
1.40954
1.41025
1.41099
1.41178
1.41261
1.41348
1.41439
1.41535
1.41637
1.41744
1.41857
1.41977
1.42104
1.42239
1.42383
1.42537
1.42702
1.42881
1.43076
1.43289
1.43523
1.43782
1.44072
1.44397
1.44764
1.45176
1.45631
1.46098
1.46517
1.46806
1.46728
1.34556
1.34493
1.34501
1.34594
1.34715
1.34848
1.34977
1.35091
1.35189
1.35272
1.35342
1.35401
1.35451
1.35494
1.3553
1.35561
1.35588
1.3561
1.3563
1.35646
1.35661
1.35673
1.35683
1.35691
1.35698
1.35704
1.35708
1.35712
1.35714
1.35716
1.35717
1.35717
1.35716
1.35715
1.35714
1.35712
1.3571
1.35707
1.35705
1.35702
1.35698
1.35695
1.35692
1.35689
1.35686
1.35683
1.35681
1.35678
1.35676
1.35674
1.35673
1.35672
1.35672
1.35672
1.35672
1.35674
1.35676
1.35679
1.35682
1.35687
1.35692
1.35698
1.35705
1.35712
1.35721
1.35731
1.35742
1.35753
1.35766
1.35779
1.35794
1.35809
1.35826
1.35843
1.35862
1.35881
1.35901
1.35922
1.35944
1.35967
1.35991
1.36015
1.3604
1.36066
1.36093
1.36121
1.36149
1.36178
1.36207
1.36237
1.36267
1.36298
1.36329
1.36361
1.36392
1.36424
1.36456
1.36488
1.3652
1.36552
1.36583
1.36614
1.36645
1.36676
1.36706
1.36736
1.36765
1.36793
1.36821
1.36848
1.36874
1.36899
1.36923
1.36946
1.36968
1.36989
1.37009
1.37028
1.37046
1.37062
1.37077
1.37091
1.37104
1.37116
1.37127
1.37137
1.37146
1.37154
1.37162
1.37168
1.37174
1.37179
1.37183
1.37187
1.3719
1.37193
1.37195
1.37196
1.37198
1.37199
1.37199
1.372
1.372
1.372
1.37199
1.37199
1.37198
1.37197
1.37196
1.37195
1.37194
1.37192
1.37191
1.3719
1.37188
1.37187
1.37185
1.37184
1.37182
1.37181
1.37179
1.37178
1.37176
1.37175
1.37173
1.37172
1.3717
1.37169
1.37168
1.37166
1.37165
1.37164
1.37163
1.37162
1.37161
1.3716
1.37159
1.37158
1.37157
1.37156
1.37155
1.37155
1.37154
1.37154
1.37153
1.37153
1.37152
1.37152
1.37152
1.37152
1.37152
1.37152
1.37152
1.37153
1.37153
1.37154
1.37155
1.37156
1.37157
1.37158
1.3716
1.37161
1.37163
1.37165
1.37168
1.3717
1.37173
1.37176
1.3718
1.37184
1.37188
1.37192
1.37197
1.37202
1.37207
1.37213
1.3722
1.37227
1.37234
1.37242
1.3725
1.37259
1.37268
1.37278
1.37289
1.373
1.37312
1.37324
1.37337
1.37351
1.37366
1.37381
1.37397
1.37414
1.37432
1.3745
1.37469
1.37489
1.3751
1.37532
1.37555
1.37578
1.37603
1.37628
1.37654
1.37682
1.3771
1.37739
1.37769
1.37799
1.37831
1.37864
1.37897
1.37932
1.37967
1.38003
1.3804
1.38077
1.38116
1.38155
1.38195
1.38235
1.38276
1.38317
1.38359
1.38402
1.38444
1.38487
1.3853
1.38573
1.38616
1.38659
1.38702
1.38745
1.38787
1.38829
1.3887
1.38911
1.38951
1.3899
1.39028
1.39065
1.39102
1.39137
1.39171
1.39204
1.39236
1.39266
1.39296
1.39324
1.39351
1.39377
1.39402
1.39426
1.39449
1.3947
1.39491
1.39511
1.3953
1.39548
1.39565
1.39581
1.39597
1.39612
1.39627
1.39641
1.39654
1.39667
1.39679
1.39691
1.39703
1.39714
1.39724
1.39735
1.39745
1.39755
1.39764
1.39773
1.39782
1.39791
1.398
1.39808
1.39816
1.39824
1.39832
1.39839
1.39847
1.39855
1.39862
1.3987
1.39877
1.39885
1.39893
1.39901
1.39909
1.39918
1.39927
1.39936
1.39946
1.39957
1.39968
1.3998
1.39993
1.40007
1.40021
1.40037
1.40053
1.40071
1.4009
1.40111
1.40133
1.40157
1.40182
1.40209
1.40238
1.40268
1.40301
1.40335
1.40372
1.40412
1.40453
1.40497
1.40543
1.40593
1.40645
1.40699
1.40757
1.40818
1.40882
1.4095
1.4102
1.41095
1.41173
1.41256
1.41342
1.41433
1.41529
1.4163
1.41736
1.41848
1.41966
1.42091
1.42224
1.42365
1.42516
1.42677
1.42851
1.43038
1.43241
1.43463
1.43705
1.43971
1.44262
1.4458
1.44918
1.45264
1.45592
1.45844
1.45973
1.45943
1.34797
1.34728
1.34723
1.34768
1.3484
1.34931
1.35025
1.35114
1.35195
1.35268
1.35331
1.35386
1.35434
1.35475
1.35511
1.35542
1.35568
1.35592
1.35612
1.35629
1.35644
1.35657
1.35668
1.35677
1.35684
1.35691
1.35696
1.357
1.35703
1.35705
1.35706
1.35707
1.35707
1.35706
1.35705
1.35703
1.35701
1.35699
1.35697
1.35694
1.35691
1.35688
1.35685
1.35682
1.35679
1.35677
1.35674
1.35672
1.3567
1.35668
1.35667
1.35666
1.35666
1.35666
1.35667
1.35668
1.3567
1.35673
1.35677
1.35681
1.35687
1.35693
1.357
1.35708
1.35717
1.35727
1.35737
1.35749
1.35762
1.35776
1.3579
1.35806
1.35823
1.3584
1.35859
1.35878
1.35898
1.3592
1.35942
1.35965
1.35989
1.36013
1.36039
1.36065
1.36092
1.3612
1.36148
1.36177
1.36206
1.36237
1.36267
1.36298
1.3633
1.36361
1.36393
1.36425
1.36457
1.36489
1.36521
1.36553
1.36585
1.36617
1.36648
1.36679
1.36709
1.36739
1.36768
1.36797
1.36824
1.36851
1.36877
1.36903
1.36927
1.3695
1.36972
1.36993
1.37013
1.37031
1.37049
1.37065
1.3708
1.37094
1.37107
1.37119
1.3713
1.37139
1.37148
1.37156
1.37163
1.37169
1.37175
1.37179
1.37184
1.37187
1.3719
1.37193
1.37195
1.37196
1.37197
1.37198
1.37199
1.37199
1.37199
1.37199
1.37198
1.37198
1.37197
1.37196
1.37195
1.37194
1.37193
1.37192
1.3719
1.37189
1.37187
1.37186
1.37184
1.37183
1.37181
1.3718
1.37178
1.37177
1.37176
1.37174
1.37173
1.37171
1.3717
1.37169
1.37167
1.37166
1.37165
1.37164
1.37163
1.37161
1.3716
1.37159
1.37158
1.37158
1.37157
1.37156
1.37155
1.37154
1.37154
1.37153
1.37153
1.37152
1.37152
1.37152
1.37152
1.37152
1.37152
1.37152
1.37152
1.37153
1.37153
1.37154
1.37154
1.37155
1.37157
1.37158
1.37159
1.37161
1.37163
1.37165
1.37167
1.3717
1.37173
1.37176
1.37179
1.37183
1.37187
1.37191
1.37196
1.37201
1.37207
1.37213
1.37219
1.37226
1.37233
1.37241
1.37249
1.37258
1.37267
1.37277
1.37288
1.37299
1.37311
1.37323
1.37337
1.3735
1.37365
1.3738
1.37396
1.37413
1.37431
1.37449
1.37468
1.37488
1.37509
1.37531
1.37554
1.37577
1.37602
1.37627
1.37654
1.37681
1.37709
1.37738
1.37768
1.37799
1.37831
1.37864
1.37897
1.37932
1.37967
1.38003
1.3804
1.38078
1.38116
1.38156
1.38196
1.38236
1.38277
1.38319
1.38361
1.38404
1.38446
1.38489
1.38533
1.38576
1.38619
1.38663
1.38706
1.38749
1.38791
1.38833
1.38874
1.38915
1.38955
1.38994
1.39033
1.3907
1.39106
1.39142
1.39176
1.39209
1.3924
1.39271
1.393
1.39328
1.39355
1.39381
1.39406
1.39429
1.39451
1.39473
1.39493
1.39513
1.39531
1.39549
1.39566
1.39582
1.39598
1.39613
1.39627
1.39641
1.39654
1.39667
1.39679
1.39691
1.39702
1.39714
1.39724
1.39735
1.39745
1.39754
1.39764
1.39773
1.39782
1.39791
1.39799
1.39807
1.39815
1.39823
1.39831
1.39839
1.39846
1.39854
1.39861
1.39869
1.39876
1.39884
1.39891
1.39899
1.39908
1.39916
1.39925
1.39934
1.39944
1.39955
1.39966
1.39977
1.3999
1.40003
1.40018
1.40033
1.4005
1.40068
1.40087
1.40107
1.40129
1.40152
1.40177
1.40204
1.40233
1.40263
1.40296
1.4033
1.40367
1.40406
1.40447
1.40491
1.40538
1.40587
1.40638
1.40693
1.4075
1.40811
1.40875
1.40942
1.41013
1.41087
1.41164
1.41246
1.41332
1.41422
1.41517
1.41617
1.41721
1.41832
1.41948
1.42071
1.422
1.42338
1.42484
1.4264
1.42806
1.42985
1.43176
1.43383
1.43605
1.43844
1.44098
1.44366
1.44637
1.44897
1.45123
1.45283
1.45347
1.4532
1.34961
1.34903
1.34889
1.34908
1.34953
1.35014
1.35081
1.35149
1.35215
1.35276
1.35331
1.3538
1.35424
1.35463
1.35497
1.35527
1.35554
1.35577
1.35597
1.35614
1.3563
1.35643
1.35654
1.35664
1.35672
1.35679
1.35684
1.35689
1.35692
1.35694
1.35696
1.35697
1.35697
1.35697
1.35696
1.35695
1.35693
1.35691
1.35689
1.35686
1.35684
1.35681
1.35678
1.35675
1.35673
1.3567
1.35668
1.35665
1.35663
1.35662
1.35661
1.3566
1.3566
1.3566
1.35661
1.35663
1.35665
1.35668
1.35671
1.35676
1.35681
1.35688
1.35695
1.35703
1.35712
1.35722
1.35733
1.35745
1.35757
1.35771
1.35786
1.35802
1.35819
1.35837
1.35855
1.35875
1.35895
1.35917
1.35939
1.35962
1.35986
1.36011
1.36037
1.36063
1.3609
1.36118
1.36147
1.36176
1.36206
1.36236
1.36267
1.36298
1.3633
1.36362
1.36394
1.36426
1.36458
1.36491
1.36523
1.36555
1.36587
1.36619
1.36651
1.36682
1.36712
1.36742
1.36771
1.368
1.36828
1.36855
1.36881
1.36907
1.36931
1.36954
1.36976
1.36997
1.37017
1.37036
1.37053
1.37069
1.37084
1.37098
1.3711
1.37122
1.37132
1.37142
1.3715
1.37158
1.37165
1.37171
1.37176
1.37181
1.37185
1.37188
1.37191
1.37193
1.37195
1.37196
1.37197
1.37198
1.37199
1.37199
1.37199
1.37198
1.37198
1.37197
1.37196
1.37196
1.37195
1.37193
1.37192
1.37191
1.3719
1.37188
1.37187
1.37185
1.37184
1.37182
1.37181
1.37179
1.37178
1.37177
1.37175
1.37174
1.37172
1.37171
1.3717
1.37168
1.37167
1.37166
1.37165
1.37163
1.37162
1.37161
1.3716
1.37159
1.37158
1.37157
1.37156
1.37156
1.37155
1.37154
1.37154
1.37153
1.37153
1.37152
1.37152
1.37152
1.37152
1.37151
1.37151
1.37152
1.37152
1.37152
1.37153
1.37153
1.37154
1.37155
1.37156
1.37157
1.37159
1.3716
1.37162
1.37164
1.37167
1.37169
1.37172
1.37175
1.37178
1.37182
1.37186
1.37191
1.37195
1.372
1.37206
1.37212
1.37218
1.37225
1.37232
1.3724
1.37248
1.37257
1.37266
1.37276
1.37287
1.37298
1.3731
1.37322
1.37335
1.37349
1.37363
1.37379
1.37395
1.37412
1.37429
1.37448
1.37467
1.37487
1.37508
1.3753
1.37552
1.37576
1.376
1.37626
1.37652
1.37679
1.37708
1.37737
1.37767
1.37798
1.3783
1.37863
1.37896
1.37931
1.37966
1.38003
1.3804
1.38078
1.38116
1.38156
1.38196
1.38237
1.38278
1.3832
1.38362
1.38405
1.38448
1.38492
1.38535
1.38579
1.38622
1.38666
1.38709
1.38752
1.38795
1.38837
1.38879
1.3892
1.3896
1.39
1.39038
1.39076
1.39112
1.39147
1.39181
1.39214
1.39246
1.39276
1.39305
1.39333
1.3936
1.39385
1.3941
1.39433
1.39455
1.39476
1.39496
1.39516
1.39534
1.39551
1.39568
1.39584
1.39599
1.39614
1.39628
1.39642
1.39655
1.39668
1.3968
1.39691
1.39703
1.39714
1.39724
1.39735
1.39745
1.39754
1.39764
1.39773
1.39782
1.3979
1.39799
1.39807
1.39815
1.39823
1.3983
1.39838
1.39845
1.39853
1.3986
1.39868
1.39875
1.39882
1.3989
1.39898
1.39906
1.39914
1.39923
1.39932
1.39942
1.39952
1.39963
1.39974
1.39987
1.4
1.40014
1.40029
1.40046
1.40063
1.40082
1.40102
1.40124
1.40147
1.40172
1.40198
1.40227
1.40257
1.40289
1.40323
1.4036
1.40399
1.4044
1.40483
1.40529
1.40578
1.4063
1.40684
1.40741
1.40801
1.40865
1.40931
1.41001
1.41075
1.41152
1.41233
1.41318
1.41407
1.415
1.41598
1.41701
1.41809
1.41923
1.42043
1.42169
1.42302
1.42443
1.42592
1.4275
1.42918
1.43096
1.43286
1.43487
1.43698
1.43917
1.44139
1.44354
1.4455
1.44707
1.44812
1.44846
1.4481
1.35081
1.35034
1.35016
1.35022
1.35049
1.35089
1.35138
1.3519
1.35242
1.35292
1.35339
1.35383
1.35422
1.35458
1.3549
1.35518
1.35543
1.35566
1.35585
1.35603
1.35618
1.35631
1.35643
1.35653
1.35661
1.35668
1.35674
1.35678
1.35682
1.35685
1.35687
1.35688
1.35689
1.35689
1.35688
1.35687
1.35686
1.35684
1.35682
1.35679
1.35677
1.35674
1.35671
1.35669
1.35666
1.35664
1.35661
1.35659
1.35657
1.35656
1.35655
1.35654
1.35654
1.35654
1.35655
1.35657
1.35659
1.35662
1.35666
1.3567
1.35676
1.35682
1.35689
1.35697
1.35707
1.35717
1.35728
1.3574
1.35753
1.35767
1.35782
1.35798
1.35814
1.35832
1.35851
1.35871
1.35892
1.35913
1.35936
1.35959
1.35983
1.36008
1.36034
1.3606
1.36088
1.36116
1.36145
1.36174
1.36204
1.36235
1.36266
1.36298
1.36329
1.36362
1.36394
1.36427
1.36459
1.36492
1.36525
1.36557
1.3659
1.36622
1.36653
1.36685
1.36715
1.36746
1.36775
1.36804
1.36832
1.3686
1.36886
1.36911
1.36936
1.36959
1.36981
1.37002
1.37022
1.37041
1.37058
1.37074
1.37089
1.37102
1.37115
1.37126
1.37136
1.37145
1.37153
1.37161
1.37167
1.37173
1.37178
1.37182
1.37186
1.37189
1.37192
1.37194
1.37195
1.37197
1.37198
1.37198
1.37199
1.37199
1.37199
1.37198
1.37198
1.37197
1.37196
1.37195
1.37194
1.37193
1.37192
1.37191
1.37189
1.37188
1.37186
1.37185
1.37183
1.37182
1.37181
1.37179
1.37178
1.37176
1.37175
1.37173
1.37172
1.37171
1.37169
1.37168
1.37167
1.37166
1.37164
1.37163
1.37162
1.37161
1.3716
1.37159
1.37158
1.37157
1.37156
1.37156
1.37155
1.37154
1.37154
1.37153
1.37153
1.37152
1.37152
1.37152
1.37151
1.37151
1.37151
1.37151
1.37152
1.37152
1.37152
1.37153
1.37154
1.37155
1.37156
1.37157
1.37158
1.3716
1.37162
1.37164
1.37166
1.37169
1.37171
1.37174
1.37178
1.37181
1.37185
1.3719
1.37194
1.37199
1.37205
1.37211
1.37217
1.37224
1.37231
1.37238
1.37247
1.37255
1.37265
1.37275
1.37285
1.37296
1.37308
1.3732
1.37333
1.37347
1.37362
1.37377
1.37393
1.3741
1.37427
1.37445
1.37465
1.37485
1.37506
1.37527
1.3755
1.37574
1.37598
1.37624
1.3765
1.37677
1.37705
1.37735
1.37765
1.37796
1.37828
1.37861
1.37895
1.37929
1.37965
1.38001
1.38039
1.38077
1.38116
1.38155
1.38196
1.38237
1.38278
1.3832
1.38363
1.38406
1.38449
1.38493
1.38537
1.38581
1.38625
1.38669
1.38713
1.38756
1.38799
1.38842
1.38884
1.38925
1.38966
1.39005
1.39044
1.39082
1.39118
1.39154
1.39188
1.3922
1.39252
1.39282
1.39311
1.39339
1.39365
1.39391
1.39415
1.39438
1.39459
1.3948
1.395
1.39519
1.39537
1.39554
1.39571
1.39586
1.39601
1.39616
1.3963
1.39643
1.39656
1.39668
1.3968
1.39692
1.39703
1.39714
1.39725
1.39735
1.39745
1.39754
1.39764
1.39773
1.39782
1.3979
1.39799
1.39807
1.39815
1.39823
1.3983
1.39838
1.39845
1.39852
1.39859
1.39867
1.39874
1.39881
1.39888
1.39896
1.39904
1.39912
1.3992
1.39929
1.39939
1.39949
1.39959
1.39971
1.39983
1.39996
1.4001
1.40024
1.4004
1.40058
1.40076
1.40096
1.40117
1.4014
1.40165
1.40191
1.40219
1.40249
1.40281
1.40315
1.40351
1.4039
1.4043
1.40474
1.40519
1.40568
1.40619
1.40672
1.40729
1.40789
1.40851
1.40917
1.40987
1.41059
1.41136
1.41215
1.41299
1.41387
1.41479
1.41575
1.41676
1.41781
1.41892
1.42008
1.4213
1.42258
1.42393
1.42534
1.42683
1.4284
1.43005
1.43178
1.43357
1.43542
1.43729
1.43911
1.44082
1.44229
1.44343
1.44411
1.44429
1.44389
1.35174
1.35135
1.35115
1.35115
1.3513
1.35157
1.35192
1.35231
1.35272
1.35313
1.35353
1.3539
1.35425
1.35457
1.35486
1.35513
1.35537
1.35558
1.35577
1.35594
1.35608
1.35622
1.35633
1.35643
1.35651
1.35658
1.35664
1.35669
1.35673
1.35676
1.35678
1.3568
1.3568
1.35681
1.3568
1.35679
1.35678
1.35676
1.35674
1.35672
1.3567
1.35667
1.35665
1.35662
1.3566
1.35657
1.35655
1.35653
1.35651
1.3565
1.35648
1.35648
1.35648
1.35648
1.35649
1.35651
1.35653
1.35656
1.3566
1.35664
1.3567
1.35676
1.35684
1.35692
1.35701
1.35711
1.35722
1.35734
1.35748
1.35762
1.35777
1.35793
1.3581
1.35828
1.35847
1.35867
1.35888
1.35909
1.35932
1.35955
1.3598
1.36005
1.36031
1.36058
1.36085
1.36113
1.36142
1.36172
1.36203
1.36233
1.36265
1.36297
1.36329
1.36362
1.36394
1.36427
1.3646
1.36493
1.36526
1.36559
1.36592
1.36624
1.36656
1.36688
1.36719
1.36749
1.36779
1.36808
1.36837
1.36864
1.36891
1.36917
1.36941
1.36965
1.36987
1.37008
1.37028
1.37046
1.37063
1.37079
1.37094
1.37107
1.37119
1.3713
1.3714
1.37149
1.37157
1.37164
1.3717
1.37176
1.3718
1.37184
1.37188
1.37191
1.37193
1.37195
1.37196
1.37198
1.37198
1.37199
1.37199
1.37199
1.37199
1.37198
1.37198
1.37197
1.37196
1.37195
1.37194
1.37193
1.37192
1.3719
1.37189
1.37187
1.37186
1.37185
1.37183
1.37182
1.3718
1.37179
1.37177
1.37176
1.37175
1.37173
1.37172
1.37171
1.37169
1.37168
1.37167
1.37166
1.37164
1.37163
1.37162
1.37161
1.3716
1.37159
1.37158
1.37157
1.37157