# vtk DataFile Version 2.0
LBE mesh
ASCII
DATASET STRUCTURED_POINTS
DIMENSIONS 400 100 1
ASPECT_RATIO 1 1 1
ORIGIN 0 0 0
POINT_DATA 40000
SCALARS rho double 1
LOOKUP_TABLE default
1.00918
1.0567
1.07113
1.07522
1.0775
1.07921
1.08042
1.08124
1.08182
1.08228
1.08263
1.08293
1.08317
1.08337
1.08355
1.08371
1.08384
1.08397
1.08408
1.08419
1.08428
1.08438
1.08446
1.08454
1.08462
1.08469
1.08476
1.08483
1.08489
1.08495
1.085
1.08506
1.0851
1.08515
1.08519
1.08522
1.08525
1.08528
1.0853
1.08531
1.08533
1.08534
1.08534
1.08534
1.08533
1.08533
1.08531
1.0853
1.08528
1.08526
1.08524
1.08521
1.08519
1.08516
1.08513
1.08511
1.08508
1.08506
1.08504
1.08502
1.085
1.08499
1.08499
1.08498
1.08499
1.085
1.08502
1.08504
1.08507
1.08511
1.08516
1.08522
1.08528
1.08535
1.08544
1.08553
1.08562
1.08573
1.08585
1.08597
1.0861
1.08623
1.08637
1.08652
1.08667
1.08683
1.08699
1.08715
1.08732
1.08748
1.08765
1.08781
1.08797
1.08813
1.08829
1.08844
1.08859
1.08873
1.08886
1.08899
1.08911
1.08922
1.08932
1.08941
1.0895
1.08957
1.08963
1.08969
1.08973
1.08976
1.08978
1.0898
1.0898
1.08979
1.08978
1.08975
1.08972
1.08968
1.08963
1.08957
1.08951
1.08945
1.08938
1.08931
1.08924
1.08917
1.0891
1.08902
1.08895
1.08888
1.08881
1.08874
1.08868
1.08862
1.08856
1.0885
1.08845
1.0884
1.08835
1.08831
1.08826
1.08822
1.08818
1.08813
1.08809
1.08805
1.088
1.08796
1.08791
1.08785
1.0878
1.08774
1.08768
1.08761
1.08754
1.08746
1.08738
1.08729
1.0872
1.0871
1.087
1.08689
1.08678
1.08666
1.08654
1.08641
1.08628
1.08614
1.086
1.08586
1.08571
1.08556
1.08541
1.08526
1.08511
1.08495
1.0848
1.08464
1.08449
1.08433
1.08418
1.08403
1.08388
1.08373
1.08359
1.08344
1.0833
1.08317
1.08303
1.0829
1.08277
1.08265
1.08252
1.0824
1.08229
1.08218
1.08207
1.08196
1.08186
1.08176
1.08167
1.08158
1.08149
1.0814
1.08132
1.08124
1.08117
1.0811
1.08103
1.08096
1.0809
1.08085
1.08079
1.08075
1.0807
1.08066
1.08063
1.0806
1.08057
1.08055
1.08053
1.08052
1.08052
1.08052
1.08053
1.08054
1.08056
1.08058
1.08061
1.08065
1.08069
1.08074
1.08079
1.08085
1.08092
1.08099
1.08106
1.08114
1.08123
1.08132
1.08141
1.08151
1.08161
1.08171
1.08182
1.08193
1.08204
1.08215
1.08226
1.08238
1.08249
1.08261
1.08272
1.08284
1.08296
1.08307
1.08319
1.08331
1.08342
1.08354
1.08366
1.08377
1.08389
1.08401
1.08412
1.08424
1.08436
1.08448
1.08459
1.08471
1.08483
1.08495
1.08507
1.08518
1.0853
1.08542
1.08553
1.08565
1.08576
1.08587
1.08598
1.08609
1.0862
1.0863
1.0864
1.0865
1.08659
1.08669
1.08677
1.08686
1.08694
1.08702
1.0871
1.08718
1.08725
1.08732
1.08739
1.08745
1.08752
1.08758
1.08764
1.0877
1.08776
1.08782
1.08788
1.08793
1.08798
1.08804
1.08809
1.08814
1.08819
1.08823
1.08827
1.08832
1.08835
1.08839
1.08842
1.08845
1.08848
1.0885
1.08851
1.08853
1.08854
1.08854
1.08854
1.08854
1.08853
1.08852
1.0885
1.08848
1.08846
1.08843
1.0884
1.08837
1.08833
1.08829
1.08825
1.0882
1.08816
1.08811
1.08805
1.088
1.08795
1.08789
1.08783
1.08778
1.08772
1.08767
1.08761
1.08756
1.08751
1.08747
1.08743
1.08739
1.08736
1.08734
1.08733
1.08732
1.08733
1.08736
1.08739
1.08745
1.08752
1.08762
1.08773
1.08788
1.08805
1.08825
1.08848
1.08874
1.08904
1.08938
1.08977
1.0902
1.09067
1.0912
1.09178
1.09241
1.09311
1.09387
1.0947
1.0956
1.09658
1.09765
1.09881
1.10007
1.10145
1.10296
1.10463
1.10648
1.10856
1.11093
1.11365
1.11687
1.1208
1.12586
1.13281
1.14255
1.15797
1.19138
1.0415
1.05378
1.06417
1.07146
1.07539
1.0776
1.07906
1.08012
1.08092
1.08152
1.08199
1.08237
1.08269
1.08295
1.08317
1.08337
1.08354
1.08369
1.08383
1.08396
1.08407
1.08418
1.08428
1.08437
1.08446
1.08455
1.08463
1.0847
1.08477
1.08483
1.0849
1.08495
1.08501
1.08505
1.0851
1.08514
1.08517
1.0852
1.08522
1.08524
1.08526
1.08527
1.08528
1.08528
1.08528
1.08527
1.08526
1.08525
1.08523
1.08522
1.0852
1.08517
1.08515
1.08513
1.0851
1.08508
1.08505
1.08503
1.08501
1.085
1.08499
1.08498
1.08497
1.08497
1.08498
1.08499
1.08501
1.08504
1.08508
1.08512
1.08517
1.08523
1.08529
1.08537
1.08545
1.08554
1.08564
1.08575
1.08587
1.08599
1.08612
1.08626
1.0864
1.08655
1.0867
1.08686
1.08702
1.08718
1.08734
1.08751
1.08767
1.08783
1.088
1.08815
1.08831
1.08846
1.08861
1.08874
1.08888
1.089
1.08912
1.08923
1.08933
1.08942
1.0895
1.08957
1.08964
1.08969
1.08973
1.08976
1.08978
1.08979
1.08979
1.08978
1.08976
1.08973
1.0897
1.08966
1.08961
1.08955
1.08949
1.08943
1.08936
1.08929
1.08922
1.08914
1.08907
1.089
1.08893
1.08885
1.08879
1.08872
1.08866
1.0886
1.08854
1.08848
1.08843
1.08838
1.08833
1.08829
1.08824
1.0882
1.08816
1.08811
1.08807
1.08803
1.08798
1.08794
1.08789
1.08783
1.08778
1.08772
1.08766
1.08759
1.08752
1.08744
1.08736
1.08727
1.08718
1.08708
1.08698
1.08687
1.08676
1.08664
1.08651
1.08639
1.08625
1.08612
1.08598
1.08584
1.08569
1.08554
1.08539
1.08524
1.08509
1.08493
1.08478
1.08463
1.08447
1.08432
1.08417
1.08402
1.08387
1.08372
1.08357
1.08343
1.08329
1.08315
1.08302
1.08289
1.08276
1.08264
1.08251
1.08239
1.08228
1.08217
1.08206
1.08195
1.08185
1.08176
1.08166
1.08157
1.08148
1.0814
1.08132
1.08124
1.08116
1.08109
1.08103
1.08096
1.0809
1.08085
1.08079
1.08074
1.0807
1.08066
1.08063
1.0806
1.08057
1.08055
1.08053
1.08052
1.08052
1.08052
1.08053
1.08054
1.08056
1.08058
1.08061
1.08065
1.08069
1.08074
1.08079
1.08085
1.08092
1.08099
1.08107
1.08115
1.08123
1.08132
1.08141
1.08151
1.08161
1.08171
1.08182
1.08193
1.08204
1.08215
1.08226
1.08238
1.08249
1.08261
1.08272
1.08284
1.08296
1.08307
1.08319
1.08331
1.08343
1.08354
1.08366
1.08378
1.0839
1.08402
1.08413
1.08425
1.08437
1.08449
1.08461
1.08473
1.08485
1.08497
1.08509
1.0852
1.08532
1.08544
1.08556
1.08567
1.08578
1.0859
1.08601
1.08611
1.08622
1.08632
1.08642
1.08652
1.08662
1.08671
1.0868
1.08688
1.08696
1.08704
1.08712
1.0872
1.08727
1.08734
1.0874
1.08747
1.08753
1.0876
1.08766
1.08772
1.08777
1.08783
1.08789
1.08794
1.08799
1.08804
1.08809
1.08814
1.08819
1.08823
1.08827
1.08831
1.08835
1.08838
1.08841
1.08844
1.08846
1.08848
1.0885
1.08851
1.08852
1.08852
1.08852
1.08852
1.08851
1.0885
1.08848
1.08846
1.08843
1.08841
1.08838
1.08834
1.0883
1.08826
1.08822
1.08818
1.08813
1.08808
1.08803
1.08798
1.08792
1.08787
1.08781
1.08776
1.0877
1.08765
1.0876
1.08755
1.0875
1.08745
1.08741
1.08738
1.08735
1.08733
1.08732
1.08733
1.08734
1.08736
1.08741
1.08746
1.08754
1.08764
1.08776
1.08791
1.08808
1.08829
1.08852
1.08879
1.0891
1.08945
1.08984
1.09028
1.09076
1.0913
1.09189
1.09253
1.09324
1.09401
1.09485
1.09577
1.09676
1.09785
1.09903
1.10032
1.10173
1.10328
1.10499
1.10691
1.10906
1.11153
1.1144
1.11784
1.12206
1.12738
1.13437
1.14472
1.1625
1.18989
1.059
1.06001
1.06597
1.07083
1.07406
1.07637
1.07805
1.07926
1.08017
1.08087
1.08142
1.08187
1.08224
1.08255
1.08282
1.08305
1.08325
1.08343
1.08359
1.08373
1.08387
1.08399
1.0841
1.08421
1.08431
1.0844
1.08449
1.08457
1.08464
1.08472
1.08478
1.08484
1.0849
1.08495
1.085
1.08504
1.08508
1.08511
1.08514
1.08517
1.08518
1.0852
1.08521
1.08521
1.08521
1.08521
1.0852
1.08519
1.08518
1.08516
1.08514
1.08512
1.0851
1.08508
1.08506
1.08503
1.08501
1.085
1.08498
1.08496
1.08495
1.08495
1.08495
1.08495
1.08496
1.08497
1.085
1.08503
1.08506
1.08511
1.08516
1.08522
1.08529
1.08537
1.08545
1.08554
1.08565
1.08576
1.08587
1.086
1.08613
1.08627
1.08641
1.08656
1.08672
1.08687
1.08703
1.0872
1.08736
1.08753
1.08769
1.08785
1.08802
1.08817
1.08833
1.08848
1.08862
1.08876
1.08889
1.08902
1.08914
1.08924
1.08934
1.08943
1.08951
1.08958
1.08964
1.08969
1.08973
1.08976
1.08978
1.08979
1.08978
1.08977
1.08975
1.08972
1.08969
1.08964
1.08959
1.08953
1.08947
1.08941
1.08934
1.08927
1.08919
1.08912
1.08905
1.08897
1.0889
1.08883
1.08876
1.08869
1.08863
1.08857
1.08851
1.08846
1.0884
1.08835
1.0883
1.08826
1.08821
1.08817
1.08813
1.08809
1.08804
1.088
1.08795
1.08791
1.08786
1.0878
1.08775
1.08769
1.08763
1.08756
1.08749
1.08741
1.08733
1.08724
1.08715
1.08705
1.08695
1.08684
1.08673
1.08661
1.08648
1.08636
1.08623
1.08609
1.08595
1.08581
1.08566
1.08552
1.08537
1.08522
1.08506
1.08491
1.08476
1.0846
1.08445
1.0843
1.08414
1.08399
1.08385
1.0837
1.08355
1.08341
1.08327
1.08314
1.083
1.08287
1.08274
1.08262
1.0825
1.08238
1.08226
1.08215
1.08205
1.08194
1.08184
1.08174
1.08165
1.08156
1.08147
1.08139
1.08131
1.08123
1.08115
1.08108
1.08102
1.08095
1.08089
1.08084
1.08079
1.08074
1.0807
1.08066
1.08062
1.08059
1.08057
1.08055
1.08053
1.08052
1.08052
1.08052
1.08053
1.08054
1.08056
1.08058
1.08061
1.08065
1.08069
1.08074
1.08079
1.08085
1.08092
1.08099
1.08106
1.08114
1.08122
1.08131
1.08141
1.0815
1.0816
1.0817
1.08181
1.08192
1.08203
1.08214
1.08225
1.08236
1.08248
1.08259
1.08271
1.08283
1.08295
1.08306
1.08318
1.0833
1.08342
1.08354
1.08366
1.08377
1.08389
1.08401
1.08413
1.08425
1.08437
1.08449
1.08461
1.08474
1.08486
1.08498
1.0851
1.08522
1.08534
1.08546
1.08557
1.08569
1.08581
1.08592
1.08603
1.08614
1.08624
1.08635
1.08645
1.08655
1.08664
1.08673
1.08682
1.08691
1.08699
1.08707
1.08714
1.08722
1.08729
1.08736
1.08743
1.08749
1.08755
1.08761
1.08767
1.08773
1.08779
1.08785
1.0879
1.08795
1.08801
1.08806
1.0881
1.08815
1.0882
1.08824
1.08828
1.08832
1.08835
1.08839
1.08841
1.08844
1.08846
1.08848
1.08849
1.0885
1.08851
1.08851
1.08851
1.0885
1.08849
1.08848
1.08846
1.08844
1.08841
1.08838
1.08835
1.08832
1.08828
1.08824
1.0882
1.08815
1.0881
1.08805
1.088
1.08795
1.0879
1.08784
1.08779
1.08773
1.08768
1.08762
1.08757
1.08752
1.08747
1.08743
1.08739
1.08736
1.08733
1.08731
1.08731
1.08731
1.08732
1.08735
1.08739
1.08745
1.08753
1.08763
1.08776
1.08791
1.08808
1.08829
1.08853
1.08881
1.08912
1.08947
1.08987
1.09031
1.0908
1.09134
1.09193
1.09259
1.0933
1.09408
1.09493
1.09585
1.09686
1.09795
1.09914
1.10044
1.10186
1.10342
1.10515
1.10708
1.10925
1.11173
1.1146
1.11799
1.12208
1.1272
1.13382
1.14218
1.15127
1.15923
1.0674
1.06679
1.06889
1.07145
1.07397
1.07599
1.07751
1.07869
1.07962
1.08036
1.08096
1.08145
1.08186
1.0822
1.0825
1.08276
1.08298
1.08318
1.08336
1.08352
1.08367
1.0838
1.08393
1.08404
1.08415
1.08425
1.08435
1.08443
1.08452
1.08459
1.08467
1.08473
1.08479
1.08485
1.0849
1.08495
1.08499
1.08502
1.08505
1.08508
1.0851
1.08512
1.08513
1.08513
1.08514
1.08513
1.08513
1.08512
1.08511
1.08509
1.08508
1.08506
1.08504
1.08502
1.085
1.08498
1.08496
1.08494
1.08493
1.08492
1.08491
1.0849
1.0849
1.08491
1.08492
1.08494
1.08496
1.08499
1.08503
1.08508
1.08513
1.0852
1.08527
1.08535
1.08543
1.08553
1.08563
1.08575
1.08587
1.08599
1.08613
1.08627
1.08641
1.08656
1.08672
1.08688
1.08704
1.0872
1.08737
1.08754
1.0877
1.08787
1.08803
1.08819
1.08834
1.08849
1.08864
1.08878
1.08891
1.08903
1.08915
1.08926
1.08936
1.08945
1.08953
1.08959
1.08965
1.0897
1.08974
1.08977
1.08978
1.08979
1.08979
1.08977
1.08975
1.08972
1.08968
1.08963
1.08958
1.08952
1.08946
1.08939
1.08932
1.08925
1.08917
1.0891
1.08902
1.08895
1.08887
1.0888
1.08873
1.08866
1.0886
1.08854
1.08848
1.08842
1.08837
1.08832
1.08827
1.08822
1.08818
1.08814
1.08809
1.08805
1.08801
1.08796
1.08792
1.08787
1.08782
1.08777
1.08771
1.08765
1.08759
1.08752
1.08745
1.08737
1.08729
1.0872
1.08711
1.08701
1.08691
1.0868
1.08669
1.08657
1.08644
1.08632
1.08619
1.08605
1.08591
1.08577
1.08563
1.08548
1.08533
1.08518
1.08503
1.08488
1.08472
1.08457
1.08442
1.08427
1.08411
1.08396
1.08382
1.08367
1.08353
1.08339
1.08325
1.08311
1.08298
1.08285
1.08272
1.08259
1.08247
1.08236
1.08224
1.08213
1.08203
1.08192
1.08182
1.08172
1.08163
1.08154
1.08145
1.08137
1.08129
1.08121
1.08114
1.08107
1.081
1.08094
1.08088
1.08083
1.08078
1.08073
1.08069
1.08065
1.08061
1.08058
1.08056
1.08054
1.08052
1.08051
1.08051
1.08051
1.08052
1.08053
1.08055
1.08057
1.0806
1.08064
1.08068
1.08073
1.08078
1.08084
1.0809
1.08097
1.08105
1.08113
1.08121
1.0813
1.08139
1.08148
1.08158
1.08168
1.08179
1.08189
1.082
1.08211
1.08223
1.08234
1.08245
1.08257
1.08269
1.0828
1.08292
1.08304
1.08316
1.08328
1.0834
1.08352
1.08364
1.08376
1.08388
1.084
1.08412
1.08424
1.08436
1.08449
1.08461
1.08473
1.08486
1.08498
1.0851
1.08523
1.08535
1.08547
1.08559
1.08571
1.08582
1.08594
1.08605
1.08616
1.08627
1.08637
1.08648
1.08657
1.08667
1.08676
1.08685
1.08693
1.08702
1.0871
1.08717
1.08724
1.08732
1.08738
1.08745
1.08751
1.08758
1.08764
1.0877
1.08775
1.08781
1.08787
1.08792
1.08797
1.08802
1.08807
1.08812
1.08817
1.08821
1.08825
1.08829
1.08833
1.08836
1.08839
1.08842
1.08844
1.08846
1.08848
1.08849
1.0885
1.0885
1.0885
1.0885
1.08849
1.08848
1.08846
1.08844
1.08842
1.08839
1.08836
1.08833
1.08829
1.08826
1.08821
1.08817
1.08812
1.08807
1.08802
1.08797
1.08792
1.08786
1.08781
1.08775
1.0877
1.08764
1.08759
1.08754
1.08749
1.08744
1.08739
1.08735
1.08732
1.0873
1.08728
1.08727
1.08727
1.08728
1.08731
1.08735
1.08742
1.0875
1.0876
1.08772
1.08787
1.08805
1.08826
1.0885
1.08878
1.08909
1.08945
1.08985
1.09029
1.09078
1.09133
1.09192
1.09258
1.0933
1.09408
1.09493
1.09585
1.09686
1.09795
1.09914
1.10043
1.10184
1.1034
1.10511
1.107
1.10913
1.11153
1.11429
1.11748
1.12121
1.12559
1.13067
1.13626
1.14079
1.14082
1.07139
1.07088
1.07158
1.07297
1.0746
1.07607
1.07735
1.07842
1.07929
1.08001
1.08061
1.08112
1.08154
1.0819
1.08222
1.08249
1.08273
1.08295
1.08314
1.08331
1.08347
1.08362
1.08375
1.08388
1.084
1.0841
1.08421
1.0843
1.08439
1.08447
1.08455
1.08462
1.08468
1.08474
1.0848
1.08484
1.08489
1.08493
1.08496
1.08499
1.08501
1.08503
1.08504
1.08505
1.08505
1.08505
1.08505
1.08504
1.08503
1.08502
1.085
1.08499
1.08497
1.08495
1.08493
1.08491
1.0849
1.08488
1.08487
1.08486
1.08485
1.08485
1.08485
1.08486
1.08487
1.08489
1.08492
1.08495
1.08499
1.08504
1.0851
1.08516
1.08524
1.08532
1.08541
1.0855
1.08561
1.08572
1.08585
1.08598
1.08611
1.08625
1.0864
1.08655
1.08671
1.08687
1.08704
1.0872
1.08737
1.08754
1.08771
1.08787
1.08804
1.0882
1.08835
1.08851
1.08865
1.08879
1.08892
1.08905
1.08917
1.08927
1.08937
1.08946
1.08954
1.08961
1.08967
1.08971
1.08975
1.08978
1.08979
1.0898
1.08979
1.08978
1.08975
1.08972
1.08968
1.08963
1.08957
1.08951
1.08945
1.08937
1.0893
1.08923
1.08915
1.08907
1.08899
1.08892
1.08884
1.08877
1.0887
1.08863
1.08856
1.0885
1.08844
1.08838
1.08833
1.08828
1.08823
1.08818
1.08814
1.08809
1.08805
1.08801
1.08796
1.08792
1.08787
1.08782
1.08777
1.08772
1.08766
1.0876
1.08754
1.08747
1.0874
1.08732
1.08724
1.08715
1.08706
1.08696
1.08686
1.08675
1.08664
1.08652
1.0864
1.08627
1.08614
1.08601
1.08587
1.08573
1.08558
1.08544
1.08529
1.08514
1.08499
1.08483
1.08468
1.08453
1.08438
1.08423
1.08408
1.08393
1.08378
1.08364
1.08349
1.08335
1.08321
1.08308
1.08294
1.08281
1.08269
1.08256
1.08245
1.08233
1.08222
1.0821
1.082
1.0819
1.0818
1.0817
1.08161
1.08152
1.08143
1.08135
1.08127
1.08119
1.08112
1.08105
1.08099
1.08092
1.08087
1.08081
1.08076
1.08071
1.08067
1.08063
1.0806
1.08057
1.08055
1.08053
1.08051
1.0805
1.0805
1.0805
1.08051
1.08052
1.08054
1.08056
1.08059
1.08063
1.08067
1.08071
1.08077
1.08082
1.08089
1.08096
1.08103
1.08111
1.08119
1.08127
1.08136
1.08146
1.08156
1.08166
1.08176
1.08186
1.08197
1.08208
1.08219
1.08231
1.08242
1.08254
1.08265
1.08277
1.08289
1.083
1.08312
1.08324
1.08336
1.08348
1.08361
1.08373
1.08385
1.08397
1.0841
1.08422
1.08435
1.08447
1.0846
1.08472
1.08485
1.08498
1.0851
1.08523
1.08535
1.08548
1.0856
1.08572
1.08584
1.08596
1.08607
1.08619
1.0863
1.0864
1.0865
1.0866
1.0867
1.08679
1.08688
1.08697
1.08705
1.08713
1.0872
1.08727
1.08735
1.08741
1.08748
1.08754
1.0876
1.08766
1.08772
1.08778
1.08784
1.08789
1.08794
1.08799
1.08805
1.08809
1.08814
1.08819
1.08823
1.08827
1.08831
1.08835
1.08838
1.08841
1.08843
1.08846
1.08847
1.08849
1.0885
1.0885
1.08851
1.0885
1.0885
1.08849
1.08847
1.08845
1.08843
1.08841
1.08838
1.08835
1.08831
1.08827
1.08823
1.08819
1.08814
1.08809
1.08804
1.08799
1.08794
1.08788
1.08783
1.08777
1.08772
1.08766
1.0876
1.08755
1.08749
1.08744
1.08739
1.08735
1.08731
1.08727
1.08725
1.08723
1.08722
1.08722
1.08723
1.08725
1.0873
1.08736
1.08744
1.08754
1.08766
1.08781
1.08799
1.0882
1.08844
1.08872
1.08903
1.08939
1.08978
1.09023
1.09072
1.09126
1.09186
1.09251
1.09323
1.094
1.09485
1.09577
1.09677
1.09785
1.09902
1.1003
1.10169
1.1032
1.10487
1.1067
1.10873
1.11099
1.11353
1.11639
1.11959
1.12312
1.12674
1.12997
1.13214
1.13156
1.07392
1.07349
1.07369
1.07444
1.07543
1.07648
1.07749
1.07838
1.07915
1.07981
1.08038
1.08087
1.08129
1.08166
1.08198
1.08226
1.08251
1.08274
1.08294
1.08312
1.08329
1.08345
1.08359
1.08372
1.08384
1.08396
1.08406
1.08416
1.08426
1.08434
1.08442
1.0845
1.08457
1.08463
1.08469
1.08474
1.08478
1.08482
1.08486
1.08489
1.08491
1.08493
1.08495
1.08496
1.08496
1.08496
1.08496
1.08495
1.08495
1.08493
1.08492
1.0849
1.08489
1.08487
1.08485
1.08484
1.08482
1.08481
1.08479
1.08478
1.08478
1.08478
1.08478
1.08479
1.08481
1.08483
1.08486
1.08489
1.08494
1.08499
1.08504
1.08511
1.08519
1.08527
1.08536
1.08546
1.08557
1.08569
1.08581
1.08594
1.08608
1.08623
1.08638
1.08653
1.08669
1.08686
1.08702
1.08719
1.08736
1.08753
1.0877
1.08787
1.08804
1.0882
1.08836
1.08851
1.08866
1.0888
1.08894
1.08906
1.08918
1.08929
1.08939
1.08948
1.08956
1.08963
1.08968
1.08973
1.08977
1.08979
1.08981
1.08981
1.0898
1.08978
1.08976
1.08972
1.08968
1.08963
1.08957
1.0895
1.08944
1.08936
1.08929
1.08921
1.08913
1.08905
1.08897
1.08889
1.08881
1.08873
1.08866
1.08859
1.08852
1.08846
1.0884
1.08834
1.08829
1.08823
1.08818
1.08814
1.08809
1.08804
1.088
1.08795
1.08791
1.08786
1.08782
1.08777
1.08772
1.08766
1.08761
1.08755
1.08748
1.08741
1.08734
1.08726
1.08718
1.08709
1.087
1.0869
1.0868
1.08669
1.08658
1.08646
1.08634
1.08621
1.08608
1.08595
1.08581
1.08567
1.08553
1.08538
1.08524
1.08509
1.08494
1.08479
1.08463
1.08448
1.08433
1.08418
1.08403
1.08388
1.08374
1.08359
1.08345
1.08331
1.08317
1.08304
1.0829
1.08278
1.08265
1.08253
1.08241
1.08229
1.08218
1.08207
1.08196
1.08186
1.08176
1.08167
1.08158
1.08149
1.0814
1.08132
1.08124
1.08117
1.08109
1.08103
1.08096
1.0809
1.08084
1.08079
1.08074
1.08069
1.08065
1.08061
1.08058
1.08055
1.08053
1.08051
1.08049
1.08049
1.08048
1.08048
1.08049
1.0805
1.08052
1.08054
1.08057
1.08061
1.08065
1.08069
1.08074
1.0808
1.08086
1.08093
1.081
1.08108
1.08116
1.08124
1.08133
1.08142
1.08152
1.08162
1.08172
1.08182
1.08193
1.08204
1.08215
1.08226
1.08237
1.08249
1.0826
1.08272
1.08284
1.08296
1.08308
1.0832
1.08332
1.08344
1.08356
1.08369
1.08381
1.08394
1.08406
1.08419
1.08432
1.08445
1.08458
1.0847
1.08484
1.08497
1.0851
1.08522
1.08535
1.08548
1.08561
1.08573
1.08586
1.08598
1.08609
1.08621
1.08632
1.08643
1.08653
1.08663
1.08673
1.08682
1.08691
1.087
1.08708
1.08716
1.08724
1.08731
1.08738
1.08744
1.08751
1.08757
1.08763
1.08769
1.08775
1.08781
1.08786
1.08792
1.08797
1.08802
1.08807
1.08812
1.08817
1.08821
1.08825
1.08829
1.08833
1.08837
1.0884
1.08843
1.08845
1.08847
1.08849
1.0885
1.08851
1.08851
1.08851
1.08851
1.0885
1.08849
1.08847
1.08845
1.08842
1.0884
1.08836
1.08833
1.08829
1.08825
1.08821
1.08816
1.08812
1.08807
1.08801
1.08796
1.0879
1.08785
1.08779
1.08773
1.08767
1.08761
1.08756
1.0875
1.08744
1.08739
1.08734
1.08729
1.08725
1.08721
1.08718
1.08716
1.08715
1.08714
1.08715
1.08718
1.08722
1.08728
1.08735
1.08745
1.08757
1.08772
1.08789
1.0881
1.08834
1.08861
1.08892
1.08928
1.08967
1.09011
1.0906
1.09114
1.09173
1.09238
1.09309
1.09386
1.0947
1.0956
1.09659
1.09765
1.0988
1.10004
1.10139
1.10285
1.10444
1.10618
1.10808
1.11015
1.11243
1.1149
1.11753
1.12022
1.12276
1.1247
1.12567
1.12543
1.07567
1.07524
1.07527
1.07566
1.07628
1.07701
1.07776
1.07848
1.07914
1.07972
1.08024
1.0807
1.08111
1.08146
1.08178
1.08206
1.08232
1.08255
1.08276
1.08294
1.08312
1.08328
1.08343
1.08356
1.08369
1.08381
1.08392
1.08403
1.08412
1.08421
1.0843
1.08438
1.08445
1.08451
1.08457
1.08463
1.08467
1.08472
1.08475
1.08478
1.08481
1.08483
1.08485
1.08486
1.08486
1.08487
1.08486
1.08486
1.08485
1.08484
1.08483
1.08481
1.0848
1.08478
1.08476
1.08475
1.08473
1.08472
1.08471
1.0847
1.0847
1.0847
1.08471
1.08472
1.08473
1.08476
1.08479
1.08482
1.08487
1.08492
1.08498
1.08505
1.08513
1.08521
1.08531
1.08541
1.08552
1.08564
1.08577
1.0859
1.08604
1.08619
1.08634
1.0865
1.08667
1.08683
1.087
1.08717
1.08735
1.08752
1.08769
1.08787
1.08804
1.0882
1.08836
1.08852
1.08867
1.08881
1.08895
1.08907
1.08919
1.0893
1.0894
1.08949
1.08957
1.08964
1.0897
1.08975
1.08978
1.08981
1.08982
1.08982
1.08981
1.0898
1.08977
1.08973
1.08968
1.08963
1.08957
1.0895
1.08943
1.08935
1.08927
1.08919
1.0891
1.08902
1.08894
1.08885
1.08877
1.0887
1.08862
1.08855
1.08848
1.08841
1.08835
1.08829
1.08824
1.08818
1.08813
1.08808
1.08803
1.08799
1.08794
1.0879
1.08785
1.0878
1.08776
1.08771
1.08766
1.0876
1.08754
1.08748
1.08742
1.08735
1.08728
1.0872
1.08712
1.08703
1.08694
1.08684
1.08674
1.08663
1.08652
1.0864
1.08628
1.08615
1.08602
1.08589
1.08575
1.08561
1.08547
1.08532
1.08518
1.08503
1.08488
1.08473
1.08458
1.08443
1.08428
1.08413
1.08398
1.08383
1.08369
1.08354
1.0834
1.08326
1.08312
1.08299
1.08286
1.08273
1.08261
1.08248
1.08237
1.08225
1.08214
1.08203
1.08193
1.08182
1.08173
1.08163
1.08154
1.08145
1.08137
1.08129
1.08121
1.08113
1.08106
1.081
1.08093
1.08087
1.08082
1.08076
1.08071
1.08067
1.08063
1.08059
1.08056
1.08053
1.08051
1.08049
1.08047
1.08046
1.08046
1.08046
1.08047
1.08048
1.0805
1.08052
1.08055
1.08058
1.08062
1.08067
1.08072
1.08077
1.08083
1.0809
1.08097
1.08104
1.08112
1.0812
1.08129
1.08138
1.08148
1.08157
1.08167
1.08178
1.08188
1.08199
1.0821
1.08221
1.08232
1.08243
1.08255
1.08266
1.08278
1.0829
1.08302
1.08314
1.08326
1.08338
1.08351
1.08363
1.08376
1.08389
1.08402
1.08415
1.08428
1.08441
1.08454
1.08468
1.08481
1.08495
1.08508
1.08522
1.08535
1.08548
1.08561
1.08574
1.08587
1.08599
1.08611
1.08623
1.08634
1.08645
1.08656
1.08666
1.08676
1.08686
1.08695
1.08703
1.08712
1.08719
1.08727
1.08734
1.08741
1.08748
1.08754
1.08761
1.08767
1.08772
1.08778
1.08784
1.08789
1.08795
1.088
1.08805
1.0881
1.08815
1.08819
1.08824
1.08828
1.08832
1.08836
1.08839
1.08842
1.08845
1.08847
1.08849
1.08851
1.08852
1.08853
1.08853
1.08852
1.08852
1.08851
1.08849
1.08847
1.08845
1.08842
1.08839
1.08835
1.08832
1.08827
1.08823
1.08819
1.08814
1.08809
1.08804
1.08798
1.08792
1.08787
1.08781
1.08775
1.08769
1.08763
1.08757
1.0875
1.08744
1.08739
1.08733
1.08728
1.08723
1.08718
1.08714
1.08711
1.08708
1.08707
1.08706
1.08707
1.08709
1.08712
1.08718
1.08725
1.08734
1.08746
1.0876
1.08777
1.08798
1.08821
1.08848
1.08879
1.08913
1.08952
1.08996
1.09044
1.09097
1.09155
1.09219
1.09289
1.09365
1.09447
1.09536
1.09632
1.09736
1.09847
1.09968
1.10097
1.10236
1.10387
1.10548
1.10723
1.1091
1.11109
1.11318
1.1153
1.11732
1.11907
1.12031
1.12079
1.12057
1.07689
1.07651
1.07645
1.07665
1.07704
1.07755
1.07811
1.07868
1.07922
1.07972
1.08019
1.0806
1.08098
1.08132
1.08163
1.08191
1.08216
1.08238
1.08259
1.08279
1.08296
1.08313
1.08328
1.08342
1.08355
1.08367
1.08379
1.08389
1.08399
1.08409
1.08417
1.08425
1.08433
1.08439
1.08446
1.08451
1.08456
1.0846
1.08464
1.08467
1.0847
1.08472
1.08474
1.08475
1.08476
1.08476
1.08476
1.08476
1.08475
1.08474
1.08473
1.08471
1.0847
1.08468
1.08467
1.08465
1.08464
1.08463
1.08462
1.08461
1.08461
1.08461
1.08462
1.08463
1.08465
1.08467
1.0847
1.08474
1.08479
1.08484
1.08491
1.08498
1.08506
1.08514
1.08524
1.08535
1.08546
1.08558
1.08571
1.08585
1.08599
1.08614
1.0863
1.08646
1.08663
1.0868
1.08697
1.08715
1.08732
1.0875
1.08768
1.08785
1.08802
1.08819
1.08836
1.08852
1.08867
1.08881
1.08895
1.08908
1.0892
1.08932
1.08942
1.08951
1.08959
1.08966
1.08972
1.08977
1.0898
1.08982
1.08984
1.08984
1.08983
1.08981
1.08978
1.08974
1.08969
1.08963
1.08956
1.08949
1.08942
1.08934
1.08925
1.08917
1.08908
1.08899
1.08891
1.08882
1.08874
1.08866
1.08858
1.0885
1.08843
1.08836
1.0883
1.08824
1.08818
1.08812
1.08807
1.08802
1.08797
1.08792
1.08788
1.08783
1.08778
1.08774
1.08769
1.08764
1.08758
1.08753
1.08747
1.08741
1.08734
1.08728
1.0872
1.08712
1.08704
1.08695
1.08686
1.08676
1.08666
1.08655
1.08644
1.08633
1.0862
1.08608
1.08595
1.08582
1.08568
1.08554
1.0854
1.08526
1.08511
1.08496
1.08482
1.08467
1.08452
1.08437
1.08422
1.08407
1.08392
1.08377
1.08363
1.08348
1.08334
1.0832
1.08307
1.08294
1.08281
1.08268
1.08255
1.08243
1.08231
1.0822
1.08209
1.08198
1.08188
1.08178
1.08168
1.08159
1.0815
1.08141
1.08133
1.08125
1.08117
1.0811
1.08103
1.08096
1.0809
1.08084
1.08078
1.08073
1.08068
1.08064
1.0806
1.08056
1.08053
1.0805
1.08048
1.08046
1.08045
1.08044
1.08043
1.08043
1.08044
1.08045
1.08047
1.08049
1.08052
1.08055
1.08059
1.08063
1.08068
1.08074
1.0808
1.08086
1.08093
1.081
1.08108
1.08116
1.08124
1.08133
1.08142
1.08152
1.08162
1.08172
1.08182
1.08193
1.08203
1.08214
1.08225
1.08237
1.08248
1.08259
1.08271
1.08283
1.08295
1.08307
1.08319
1.08332
1.08344
1.08357
1.0837
1.08383
1.08396
1.0841
1.08423
1.08437
1.0845
1.08464
1.08478
1.08492
1.08506
1.0852
1.08534
1.08547
1.08561
1.08574
1.08587
1.086
1.08613
1.08625
1.08637
1.08648
1.08659
1.08669
1.08679
1.08689
1.08698
1.08707
1.08715
1.08723
1.08731
1.08738
1.08745
1.08751
1.08758
1.08764
1.0877
1.08776
1.08782
1.08787
1.08793
1.08798
1.08803
1.08808
1.08813
1.08818
1.08823
1.08827
1.08831
1.08835
1.08839
1.08842
1.08845
1.08848
1.0885
1.08852
1.08853
1.08854
1.08855
1.08854
1.08854
1.08853
1.08851
1.0885
1.08847
1.08845
1.08842
1.08838
1.08834
1.0883
1.08826
1.08821
1.08816
1.08811
1.08806
1.088
1.08795
1.08789
1.08783
1.08777
1.0877
1.08764
1.08758
1.08751
1.08745
1.08739
1.08732
1.08726
1.08721
1.08715
1.0871
1.08706
1.08702
1.08699
1.08697
1.08696
1.08696
1.08698
1.08701
1.08706
1.08712
1.08721
1.08732
1.08746
1.08762
1.08782
1.08805
1.08831
1.08861
1.08895
1.08933
1.08976
1.09023
1.09075
1.09132
1.09195
1.09263
1.09337
1.09418
1.09504
1.09598
1.09698
1.09805
1.09921
1.10044
1.10175
1.10316
1.10465
1.10623
1.10789
1.10961
1.11135
1.11304
1.11457
1.1158
1.11661
1.11687
1.11657
1.07778
1.07745
1.07735
1.07745
1.07769
1.07805
1.07846
1.0789
1.07935
1.07978
1.08018
1.08055
1.0809
1.08122
1.08151
1.08177
1.08202
1.08224
1.08245
1.08264
1.08282
1.08298
1.08313
1.08328
1.08341
1.08353
1.08365
1.08376
1.08386
1.08396
1.08405
1.08413
1.0842
1.08427
1.08434
1.08439
1.08444
1.08449
1.08453
1.08456
1.08459
1.08461
1.08463
1.08464
1.08465
1.08465
1.08465
1.08465
1.08464
1.08463
1.08462
1.08461
1.0846
1.08458
1.08457
1.08455
1.08454
1.08453
1.08452
1.08451
1.08451
1.08451
1.08452
1.08453
1.08455
1.08458
1.08461
1.08465
1.0847
1.08476
1.08482
1.0849
1.08498
1.08507
1.08517
1.08527
1.08539
1.08551
1.08565
1.08579
1.08593
1.08609
1.08625
1.08641
1.08658
1.08675
1.08693
1.08711
1.08729
1.08747
1.08765
1.08783
1.08801
1.08818
1.08835
1.08851
1.08867
1.08881
1.08896
1.08909
1.08921
1.08932
1.08943
1.08952
1.0896
1.08967
1.08973
1.08978
1.08982
1.08984
1.08985
1.08985
1.08984
1.08982
1.08978
1.08974
1.08969
1.08963
1.08956
1.08948
1.0894
1.08932
1.08923
1.08914
1.08905
1.08896
1.08887
1.08878
1.0887
1.08861
1.08853
1.08845
1.08838
1.08831
1.08824
1.08818
1.08812
1.08806
1.08801
1.08795
1.0879
1.08786
1.08781
1.08776
1.08771
1.08766
1.08761
1.08756
1.08751
1.08745
1.08739
1.08733
1.08727
1.0872
1.08712
1.08704
1.08696
1.08687
1.08678
1.08668
1.08658
1.08648
1.08636
1.08625
1.08613
1.086
1.08587
1.08574
1.08561
1.08547
1.08533
1.08518
1.08504
1.08489
1.08475
1.0846
1.08445
1.0843
1.08415
1.084
1.08385
1.08371
1.08356
1.08342
1.08328
1.08314
1.08301
1.08288
1.08275
1.08262
1.0825
1.08238
1.08226
1.08215
1.08204
1.08193
1.08183
1.08173
1.08163
1.08154
1.08145
1.08136
1.08128
1.0812
1.08113
1.08105
1.08098
1.08092
1.08086
1.0808
1.08074
1.08069
1.08065
1.0806
1.08056
1.08053
1.08049
1.08047
1.08045
1.08043
1.08041
1.0804
1.0804
1.0804
1.08041
1.08042
1.08044
1.08046
1.08048
1.08052
1.08055
1.0806
1.08064
1.0807
1.08075
1.08082
1.08088
1.08095
1.08103
1.08111
1.08119
1.08128
1.08137
1.08146
1.08155
1.08165
1.08175
1.08186
1.08196
1.08207
1.08218
1.08229
1.0824
1.08252
1.08264
1.08275
1.08287
1.08299
1.08312
1.08324
1.08337
1.0835
1.08363
1.08376
1.0839
1.08404
1.08417
1.08431
1.08446
1.0846
1.08474
1.08489
1.08503
1.08517
1.08532
1.08546
1.0856
1.08574
1.08588
1.08601
1.08614
1.08626
1.08639
1.0865
1.08662
1.08672
1.08682
1.08692
1.08702
1.0871
1.08719
1.08727
1.08734
1.08741
1.08748
1.08755
1.08761
1.08767
1.08773
1.08779
1.08785
1.0879
1.08796
1.08801
1.08806
1.08811
1.08816
1.08821
1.08826
1.0883
1.08834
1.08838
1.08842
1.08845
1.08848
1.08851
1.08853
1.08855
1.08856
1.08856
1.08857
1.08856
1.08856
1.08854
1.08852
1.0885
1.08848
1.08845
1.08841
1.08837
1.08833
1.08829
1.08824
1.08819
1.08814
1.08809
1.08803
1.08797
1.08791
1.08785
1.08779
1.08772
1.08766
1.08759
1.08752
1.08746
1.08739
1.08732
1.08726
1.08719
1.08713
1.08708
1.08702
1.08697
1.08693
1.0869
1.08687
1.08685
1.08685
1.08686
1.08688
1.08692
1.08698
1.08707
1.08717
1.0873
1.08746
1.08764
1.08786
1.08812
1.08841
1.08874
1.08911
1.08952
1.08998
1.09049
1.09105
1.09166
1.09233
1.09305
1.09383
1.09467
1.09557
1.09653
1.09756
1.09866
1.09982
1.10105
1.10235
1.10371
1.10513
1.10659
1.10807
1.10951
1.11086
1.11202
1.11292
1.11345
1.11358
1.11326
1.07843
1.07816
1.07805
1.07808
1.07824
1.07849
1.0788
1.07915
1.07951
1.07987
1.08021
1.08055
1.08086
1.08115
1.08142
1.08167
1.08191
1.08212
1.08232
1.08251
1.08269
1.08285
1.083
1.08315
1.08328
1.08341
1.08352
1.08363
1.08374
1.08383
1.08392
1.08401
1.08408
1.08415
1.08422
1.08428
1.08433
1.08437
1.08441
1.08445
1.08448
1.0845
1.08452
1.08453
1.08454
1.08454
1.08454
1.08454
1.08453
1.08452
1.08451
1.0845
1.08449
1.08447
1.08446
1.08444
1.08443
1.08442
1.08441
1.08441
1.08441
1.08441
1.08442
1.08443
1.08445
1.08448
1.08451
1.08455
1.0846
1.08466
1.08473
1.0848
1.08489
1.08498
1.08508
1.08519
1.08531
1.08543
1.08557
1.08571
1.08586
1.08602
1.08618
1.08635
1.08652
1.0867
1.08688
1.08706
1.08725
1.08743
1.08762
1.0878
1.08798
1.08816
1.08833
1.0885
1.08866
1.08881
1.08895
1.08909
1.08921
1.08933
1.08943
1.08953
1.08961
1.08968
1.08974
1.08979
1.08983
1.08985
1.08986
1.08986
1.08985
1.08982
1.08979
1.08974
1.08969
1.08962
1.08955
1.08947
1.08939
1.0893
1.08921
1.08911
1.08902
1.08893
1.08883
1.08874
1.08865
1.08856
1.08848
1.0884
1.08832
1.08825
1.08818
1.08811
1.08805
1.08799
1.08794
1.08788
1.08783
1.08778
1.08773
1.08768
1.08763
1.08758
1.08753
1.08748
1.08743
1.08737
1.08731
1.08725
1.08718
1.08711
1.08704
1.08696
1.08687
1.08679
1.08669
1.0866
1.08649
1.08639
1.08628
1.08616
1.08604
1.08592
1.08579
1.08566
1.08552
1.08539
1.08525
1.0851
1.08496
1.08481
1.08467
1.08452
1.08437
1.08422
1.08407