# vtk DataFile Version 2.0
LBE mesh
ASCII
DATASET STRUCTURED_POINTS
DIMENSIONS 400 100 1
ASPECT_RATIO 1 1 1
ORIGIN 0 0 0
POINT_DATA 40000
SCALARS rho double 1
LOOKUP_TABLE default
1.18865
1.28522
1.31258
1.31717
1.31922
1.32125
1.32278
1.32376
1.32442
1.3249
1.32528
1.32557
1.32581
1.326
1.32615
1.32627
1.32637
1.32645
1.32651
1.32656
1.32659
1.32662
1.32663
1.32663
1.32663
1.32662
1.3266
1.32657
1.32654
1.3265
1.32646
1.32641
1.32636
1.32631
1.32625
1.32619
1.32613
1.32607
1.326
1.32594
1.32587
1.32581
1.32574
1.32567
1.32561
1.32555
1.32548
1.32543
1.32537
1.32532
1.32527
1.32523
1.32519
1.32515
1.32512
1.3251
1.32508
1.32507
1.32507
1.32507
1.32509
1.32511
1.32514
1.32517
1.32522
1.32527
1.32534
1.32541
1.32549
1.32558
1.32568
1.32579
1.3259
1.32603
1.32616
1.32631
1.32646
1.32662
1.32679
1.32696
1.32715
1.32734
1.32754
1.32774
1.32795
1.32817
1.32839
1.32862
1.32886
1.32909
1.32934
1.32958
1.32983
1.33008
1.33033
1.33059
1.33084
1.33109
1.33135
1.3316
1.33185
1.33209
1.33234
1.33258
1.33281
1.33304
1.33327
1.33348
1.33369
1.3339
1.33409
1.33428
1.33446
1.33463
1.33478
1.33493
1.33507
1.33519
1.33531
1.33541
1.33551
1.33559
1.33566
1.33572
1.33577
1.33581
1.33585
1.33587
1.33588
1.33589
1.33588
1.33588
1.33586
1.33584
1.33581
1.33578
1.33574
1.3357
1.33566
1.33561
1.33556
1.3355
1.33545
1.33539
1.33533
1.33527
1.33521
1.33515
1.33509
1.33503
1.33496
1.3349
1.33484
1.33477
1.33471
1.33465
1.33459
1.33453
1.33447
1.33441
1.33435
1.33429
1.33423
1.33417
1.33411
1.33405
1.334
1.33394
1.33388
1.33383
1.33377
1.33372
1.33366
1.33361
1.33355
1.3335
1.33345
1.33339
1.33334
1.33329
1.33324
1.33318
1.33313
1.33308
1.33303
1.33298
1.33293
1.33288
1.33283
1.33278
1.33273
1.33269
1.33264
1.33259
1.33255
1.3325
1.33246
1.33242
1.33238
1.33234
1.3323
1.33226
1.33223
1.33219
1.33216
1.33213
1.33211
1.33208
1.33206
1.33204
1.33202
1.33201
1.332
1.33199
1.33199
1.33199
1.33199
1.332
1.33201
1.33202
1.33205
1.33207
1.3321
1.33214
1.33218
1.33223
1.33228
1.33234
1.3324
1.33247
1.33255
1.33264
1.33273
1.33283
1.33294
1.33305
1.33317
1.3333
1.33344
1.33359
1.33374
1.3339
1.33408
1.33426
1.33444
1.33464
1.33485
1.33506
1.33529
1.33552
1.33576
1.33601
1.33627
1.33654
1.33681
1.3371
1.33739
1.33768
1.33799
1.3383
1.33862
1.33895
1.33928
1.33961
1.33996
1.3403
1.34065
1.341
1.34135
1.34171
1.34206
1.34241
1.34277
1.34312
1.34347
1.34381
1.34415
1.34449
1.34481
1.34514
1.34545
1.34576
1.34605
1.34634
1.34662
1.34688
1.34714
1.34739
1.34762
1.34784
1.34806
1.34826
1.34845
1.34863
1.3488
1.34896
1.34911
1.34925
1.34939
1.34951
1.34963
1.34974
1.34984
1.34994
1.35003
1.35012
1.3502
1.35027
1.35035
1.35041
1.35048
1.35054
1.3506
1.35065
1.35071
1.35076
1.35081
1.35085
1.3509
1.35094
1.35098
1.35102
1.35106
1.3511
1.35114
1.35118
1.35122
1.35125
1.35129
1.35133
1.35137
1.35141
1.35145
1.35149
1.35154
1.35159
1.35164
1.3517
1.35176
1.35183
1.3519
1.35198
1.35207
1.35216
1.35227
1.35238
1.3525
1.35264
1.35279
1.35295
1.35312
1.35331
1.35352
1.35374
1.35398
1.35424
1.35452
1.35481
1.35513
1.35547
1.35583
1.35622
1.35663
1.35707
1.35754
1.35803
1.35855
1.35911
1.35969
1.36031
1.36096
1.36165
1.36238
1.36315
1.36396
1.36481
1.36571
1.36666
1.36767
1.36874
1.36987
1.37107
1.37236
1.37373
1.3752
1.37679
1.37851
1.38038
1.38244
1.38473
1.38729
1.39021
1.39359
1.39758
1.40244
1.40873
1.41747
1.42974
1.44809
1.48604
1.2774
1.28525
1.2984
1.31025
1.31628
1.31919
1.32096
1.32225
1.32321
1.32392
1.32446
1.32487
1.3252
1.32547
1.32568
1.32586
1.326
1.32611
1.32621
1.32628
1.32634
1.32638
1.32641
1.32643
1.32644
1.32644
1.32643
1.32641
1.32639
1.32636
1.32633
1.32629
1.32625
1.3262
1.32615
1.32609
1.32604
1.32598
1.32592
1.32586
1.32579
1.32573
1.32567
1.32561
1.32554
1.32548
1.32543
1.32537
1.32532
1.32527
1.32522
1.32518
1.32515
1.32511
1.32509
1.32507
1.32505
1.32505
1.32505
1.32505
1.32507
1.32509
1.32512
1.32516
1.32521
1.32526
1.32533
1.3254
1.32549
1.32558
1.32568
1.32579
1.32591
1.32603
1.32617
1.32632
1.32647
1.32663
1.3268
1.32698
1.32716
1.32735
1.32755
1.32776
1.32797
1.32819
1.32841
1.32864
1.32887
1.32911
1.32935
1.3296
1.32985
1.3301
1.33035
1.3306
1.33086
1.33111
1.33136
1.33161
1.33186
1.3321
1.33235
1.33258
1.33282
1.33305
1.33327
1.33349
1.3337
1.3339
1.33409
1.33427
1.33445
1.33462
1.33477
1.33492
1.33505
1.33518
1.33529
1.3354
1.33549
1.33557
1.33564
1.3357
1.33575
1.33579
1.33582
1.33584
1.33585
1.33586
1.33586
1.33585
1.33583
1.33581
1.33578
1.33575
1.33571
1.33567
1.33563
1.33558
1.33553
1.33548
1.33542
1.33537
1.33531
1.33525
1.33519
1.33513
1.33507
1.33501
1.33494
1.33488
1.33482
1.33476
1.3347
1.33463
1.33457
1.33451
1.33445
1.33439
1.33433
1.33427
1.33422
1.33416
1.3341
1.33404
1.33399
1.33393
1.33387
1.33382
1.33376
1.33371
1.33365
1.3336
1.33355
1.33349
1.33344
1.33339
1.33333
1.33328
1.33323
1.33318
1.33313
1.33307
1.33302
1.33297
1.33292
1.33287
1.33283
1.33278
1.33273
1.33268
1.33263
1.33259
1.33254
1.3325
1.33246
1.33241
1.33237
1.33233
1.3323
1.33226
1.33223
1.33219
1.33216
1.33213
1.33211
1.33208
1.33206
1.33204
1.33202
1.33201
1.332
1.33199
1.33199
1.33199
1.33199
1.332
1.33201
1.33203
1.33205
1.33208
1.33211
1.33215
1.33219
1.33224
1.33229
1.33235
1.33242
1.33249
1.33257
1.33265
1.33275
1.33285
1.33296
1.33307
1.33319
1.33332
1.33346
1.33361
1.33377
1.33393
1.3341
1.33428
1.33447
1.33467
1.33488
1.33509
1.33532
1.33555
1.33579
1.33604
1.3363
1.33657
1.33685
1.33713
1.33742
1.33772
1.33803
1.33834
1.33866
1.33898
1.33932
1.33965
1.33999
1.34034
1.34068
1.34103
1.34139
1.34174
1.34209
1.34244
1.3428
1.34315
1.34349
1.34383
1.34417
1.34451
1.34483
1.34515
1.34546
1.34577
1.34606
1.34635
1.34662
1.34689
1.34714
1.34738
1.34762
1.34784
1.34805
1.34825
1.34844
1.34862
1.34879
1.34895
1.3491
1.34924
1.34937
1.3495
1.34961
1.34972
1.34983
1.34992
1.35001
1.3501
1.35018
1.35026
1.35033
1.3504
1.35046
1.35052
1.35058
1.35064
1.35069
1.35074
1.35079
1.35084
1.35088
1.35093
1.35097
1.35101
1.35105
1.35109
1.35113
1.35117
1.3512
1.35124
1.35128
1.35132
1.35136
1.3514
1.35144
1.35149
1.35153
1.35158
1.35164
1.3517
1.35176
1.35183
1.3519
1.35198
1.35207
1.35217
1.35228
1.35239
1.35252
1.35266
1.35281
1.35297
1.35315
1.35334
1.35355
1.35377
1.35401
1.35428
1.35456
1.35486
1.35518
1.35552
1.35589
1.35628
1.3567
1.35714
1.35761
1.3581
1.35863
1.35919
1.35978
1.3604
1.36106
1.36176
1.36249
1.36326
1.36408
1.36494
1.36585
1.36681
1.36783
1.36891
1.37005
1.37127
1.37257
1.37397
1.37546
1.37708
1.37884
1.38076
1.38288
1.38524
1.38791
1.39096
1.39451
1.39877
1.40402
1.41065
1.4193
1.43201
1.45413
1.48887
1.29899
1.29481
1.30304
1.31004
1.31428
1.31734
1.31955
1.32111
1.32223
1.32307
1.32372
1.32424
1.32465
1.32498
1.32524
1.32546
1.32565
1.32579
1.32591
1.32601
1.32609
1.32615
1.3262
1.32623
1.32626
1.32627
1.32627
1.32626
1.32625
1.32623
1.3262
1.32617
1.32613
1.32609
1.32604
1.32599
1.32594
1.32589
1.32583
1.32577
1.32571
1.32565
1.3256
1.32554
1.32548
1.32542
1.32537
1.32531
1.32526
1.32522
1.32517
1.32513
1.3251
1.32507
1.32505
1.32503
1.32502
1.32501
1.32501
1.32502
1.32504
1.32506
1.3251
1.32514
1.32519
1.32524
1.32531
1.32539
1.32547
1.32557
1.32567
1.32578
1.3259
1.32603
1.32617
1.32631
1.32647
1.32663
1.3268
1.32698
1.32717
1.32736
1.32756
1.32777
1.32798
1.3282
1.32842
1.32865
1.32889
1.32912
1.32937
1.32961
1.32986
1.33011
1.33036
1.33062
1.33087
1.33112
1.33137
1.33162
1.33187
1.33212
1.33236
1.3326
1.33283
1.33306
1.33328
1.33349
1.3337
1.3339
1.33409
1.33428
1.33445
1.33462
1.33477
1.33492
1.33505
1.33517
1.33529
1.33539
1.33548
1.33556
1.33562
1.33568
1.33573
1.33577
1.3358
1.33582
1.33583
1.33584
1.33583
1.33582
1.33581
1.33579
1.33576
1.33573
1.33569
1.33565
1.3356
1.33556
1.33551
1.33546
1.3354
1.33534
1.33529
1.33523
1.33517
1.33511
1.33505
1.33499
1.33493
1.33486
1.3348
1.33474
1.33468
1.33462
1.33456
1.3345
1.33444
1.33438
1.33432
1.33426
1.3342
1.33414
1.33409
1.33403
1.33397
1.33392
1.33386
1.33381
1.33375
1.3337
1.33364
1.33359
1.33354
1.33348
1.33343
1.33338
1.33332
1.33327
1.33322
1.33317
1.33312
1.33307
1.33302
1.33297
1.33292
1.33287
1.33282
1.33277
1.33272
1.33267
1.33263
1.33258
1.33254
1.33249
1.33245
1.33241
1.33237
1.33233
1.33229
1.33226
1.33222
1.33219
1.33216
1.33213
1.3321
1.33208
1.33206
1.33204
1.33202
1.33201
1.332
1.33199
1.33199
1.33199
1.332
1.332
1.33202
1.33203
1.33206
1.33208
1.33212
1.33215
1.3322
1.33224
1.3323
1.33236
1.33242
1.3325
1.33258
1.33266
1.33276
1.33286
1.33297
1.33308
1.33321
1.33334
1.33348
1.33363
1.33378
1.33395
1.33412
1.3343
1.33449
1.33469
1.3349
1.33512
1.33534
1.33558
1.33582
1.33607
1.33633
1.3366
1.33688
1.33716
1.33745
1.33775
1.33806
1.33837
1.33869
1.33902
1.33935
1.33968
1.34002
1.34037
1.34072
1.34107
1.34142
1.34177
1.34212
1.34248
1.34283
1.34317
1.34352
1.34386
1.3442
1.34453
1.34486
1.34517
1.34548
1.34579
1.34608
1.34636
1.34664
1.3469
1.34715
1.34739
1.34762
1.34784
1.34805
1.34825
1.34844
1.34862
1.34878
1.34894
1.34909
1.34923
1.34936
1.34949
1.3496
1.34971
1.34981
1.34991
1.35
1.35009
1.35017
1.35024
1.35032
1.35038
1.35045
1.35051
1.35057
1.35062
1.35068
1.35073
1.35078
1.35083
1.35087
1.35092
1.35096
1.351
1.35104
1.35108
1.35112
1.35116
1.35119
1.35123
1.35127
1.35131
1.35135
1.35139
1.35143
1.35148
1.35152
1.35158
1.35163
1.35169
1.35175
1.35182
1.3519
1.35198
1.35207
1.35217
1.35227
1.35239
1.35252
1.35266
1.35281
1.35298
1.35316
1.35335
1.35356
1.35379
1.35403
1.35429
1.35458
1.35488
1.3552
1.35555
1.35592
1.35631
1.35673
1.35718
1.35765
1.35815
1.35868
1.35924
1.35983
1.36046
1.36112
1.36182
1.36256
1.36334
1.36416
1.36502
1.36594
1.36691
1.36793
1.36901
1.37017
1.37139
1.3727
1.3741
1.37561
1.37723
1.379
1.38094
1.38308
1.38546
1.38814
1.3912
1.39476
1.39896
1.40404
1.41041
1.41866
1.42904
1.44032
1.45076
1.30674
1.3055
1.30793
1.31078
1.31415
1.31689
1.31887
1.32036
1.32152
1.32242
1.32314
1.32371
1.32417
1.32455
1.32486
1.32511
1.32532
1.3255
1.32564
1.32576
1.32586
1.32594
1.326
1.32605
1.32608
1.3261
1.32612
1.32612
1.32611
1.3261
1.32608
1.32605
1.32602
1.32598
1.32594
1.3259
1.32585
1.3258
1.32575
1.32569
1.32564
1.32558
1.32552
1.32547
1.32541
1.32536
1.3253
1.32525
1.3252
1.32516
1.32512
1.32508
1.32505
1.32502
1.325
1.32498
1.32497
1.32497
1.32497
1.32498
1.325
1.32503
1.32506
1.32511
1.32516
1.32522
1.32529
1.32536
1.32545
1.32555
1.32565
1.32576
1.32589
1.32602
1.32616
1.3263
1.32646
1.32662
1.3268
1.32698
1.32716
1.32736
1.32756
1.32777
1.32798
1.3282
1.32843
1.32866
1.32889
1.32913
1.32938
1.32962
1.32987
1.33012
1.33038
1.33063
1.33088
1.33114
1.33139
1.33164
1.33189
1.33213
1.33237
1.33261
1.33284
1.33307
1.33329
1.33351
1.33371
1.33391
1.33411
1.33429
1.33446
1.33463
1.33478
1.33492
1.33506
1.33518
1.33529
1.33539
1.33548
1.33555
1.33562
1.33568
1.33572
1.33576
1.33579
1.33581
1.33582
1.33582
1.33582
1.33581
1.33579
1.33577
1.33574
1.33571
1.33567
1.33563
1.33558
1.33554
1.33549
1.33543
1.33538
1.33532
1.33527
1.33521
1.33515
1.33509
1.33503
1.33497
1.33491
1.33485
1.33479
1.33472
1.33466
1.3346
1.33454
1.33448
1.33442
1.33436
1.33431
1.33425
1.33419
1.33413
1.33407
1.33402
1.33396
1.33391
1.33385
1.3338
1.33374
1.33369
1.33363
1.33358
1.33353
1.33347
1.33342
1.33337
1.33332
1.33326
1.33321
1.33316
1.33311
1.33306
1.33301
1.33296
1.33291
1.33286
1.33281
1.33276
1.33271
1.33267
1.33262
1.33258
1.33253
1.33249
1.33244
1.3324
1.33236
1.33232
1.33229
1.33225
1.33222
1.33218
1.33215
1.33212
1.3321
1.33207
1.33205
1.33203
1.33202
1.33201
1.332
1.33199
1.33199
1.33199
1.33199
1.332
1.33201
1.33203
1.33206
1.33208
1.33211
1.33215
1.3322
1.33224
1.3323
1.33236
1.33243
1.3325
1.33258
1.33267
1.33276
1.33286
1.33297
1.33309
1.33321
1.33335
1.33349
1.33363
1.33379
1.33396
1.33413
1.33431
1.3345
1.3347
1.33491
1.33513
1.33536
1.33559
1.33584
1.33609
1.33635
1.33662
1.33689
1.33718
1.33747
1.33777
1.33808
1.33839
1.33872
1.33904
1.33937
1.33971
1.34005
1.3404
1.34074
1.34109
1.34145
1.3418
1.34215
1.34251
1.34286
1.34321
1.34355
1.34389
1.34423
1.34456
1.34489
1.3452
1.34551
1.34581
1.34611
1.34639
1.34666
1.34692
1.34717
1.34741
1.34764
1.34786
1.34806
1.34826
1.34845
1.34862
1.34879
1.34894
1.34909
1.34923
1.34936
1.34948
1.3496
1.34971
1.34981
1.3499
1.34999
1.35008
1.35016
1.35023
1.35031
1.35037
1.35044
1.3505
1.35056
1.35061
1.35067
1.35072
1.35077
1.35081
1.35086
1.3509
1.35095
1.35099
1.35103
1.35107
1.35111
1.35114
1.35118
1.35122
1.35126
1.3513
1.35134
1.35138
1.35142
1.35147
1.35151
1.35156
1.35162
1.35168
1.35174
1.35181
1.35188
1.35197
1.35206
1.35216
1.35226
1.35238
1.35251
1.35265
1.3528
1.35297
1.35315
1.35334
1.35355
1.35378
1.35403
1.35429
1.35458
1.35488
1.35521
1.35555
1.35592
1.35632
1.35674
1.35719
1.35766
1.35816
1.3587
1.35926
1.35986
1.36048
1.36115
1.36185
1.36259
1.36337
1.36419
1.36506
1.36597
1.36694
1.36797
1.36905
1.3702
1.37143
1.37273
1.37413
1.37563
1.37725
1.37901
1.38093
1.38304
1.38539
1.38801
1.39098
1.39439
1.39835
1.40299
1.40844
1.41476
1.42176
1.42745
1.42755
1.3114
1.31097
1.31148
1.3131
1.3152
1.31707
1.31869
1.32004
1.32112
1.322
1.32272
1.3233
1.32379
1.32419
1.32452
1.3248
1.32504
1.32523
1.3254
1.32554
1.32565
1.32574
1.32581
1.32587
1.32592
1.32595
1.32597
1.32598
1.32598
1.32597
1.32596
1.32594
1.32591
1.32588
1.32584
1.3258
1.32576
1.32571
1.32566
1.32561
1.32556
1.3255
1.32545
1.32539
1.32534
1.32529
1.32524
1.32519
1.32514
1.3251
1.32506
1.32502
1.32499
1.32497
1.32495
1.32493
1.32492
1.32492
1.32493
1.32494
1.32496
1.32499
1.32503
1.32507
1.32512
1.32518
1.32526
1.32533
1.32542
1.32552
1.32563
1.32574
1.32587
1.326
1.32614
1.32629
1.32645
1.32661
1.32678
1.32697
1.32715
1.32735
1.32755
1.32776
1.32798
1.3282
1.32843
1.32866
1.3289
1.32914
1.32938
1.32963
1.32988
1.33013
1.33039
1.33064
1.3309
1.33115
1.3314
1.33165
1.3319
1.33215
1.33239
1.33263
1.33286
1.33309
1.33331
1.33353
1.33373
1.33393
1.33412
1.33431
1.33448
1.33464
1.3348
1.33494
1.33507
1.33519
1.3353
1.3354
1.33548
1.33556
1.33562
1.33568
1.33572
1.33576
1.33579
1.3358
1.33581
1.33581
1.33581
1.33579
1.33578
1.33575
1.33572
1.33569
1.33565
1.33561
1.33557
1.33552
1.33547
1.33542
1.33536
1.33531
1.33525
1.33519
1.33513
1.33507
1.33501
1.33495
1.33489
1.33483
1.33477
1.33471
1.33465
1.33459
1.33453
1.33447
1.33441
1.33435
1.33429
1.33423
1.33418
1.33412
1.33406
1.33401
1.33395
1.33389
1.33384
1.33378
1.33373
1.33368
1.33362
1.33357
1.33352
1.33346
1.33341
1.33336
1.33331
1.33325
1.3332
1.33315
1.3331
1.33305
1.333
1.33295
1.3329
1.33285
1.3328
1.33275
1.33271
1.33266
1.33261
1.33257
1.33252
1.33248
1.33244
1.33239
1.33235
1.33232
1.33228
1.33224
1.33221
1.33218
1.33215
1.33212
1.33209
1.33207
1.33205
1.33203
1.33201
1.332
1.33199
1.33198
1.33198
1.33198
1.33199
1.332
1.33201
1.33203
1.33205
1.33208
1.33211
1.33215
1.33219
1.33224
1.33229
1.33236
1.33242
1.3325
1.33258
1.33267
1.33276
1.33286
1.33297
1.33309
1.33321
1.33335
1.33349
1.33364
1.33379
1.33396
1.33413
1.33432
1.33451
1.33471
1.33492
1.33514
1.33536
1.3356
1.33584
1.3361
1.33636
1.33663
1.33691
1.33719
1.33749
1.33779
1.3381
1.33841
1.33873
1.33906
1.33939
1.33973
1.34008
1.34042
1.34077
1.34112
1.34148
1.34183
1.34218
1.34254
1.34289
1.34324
1.34359
1.34393
1.34427
1.3446
1.34492
1.34524
1.34555
1.34585
1.34614
1.34642
1.34669
1.34695
1.3472
1.34744
1.34767
1.34788
1.34809
1.34828
1.34846
1.34864
1.3488
1.34896
1.3491
1.34924
1.34937
1.34949
1.3496
1.34971
1.34981
1.3499
1.34999
1.35007
1.35015
1.35023
1.3503
1.35037
1.35043
1.35049
1.35055
1.3506
1.35066
1.35071
1.35076
1.35081
1.35085
1.35089
1.35094
1.35098
1.35102
1.35106
1.3511
1.35113
1.35117
1.35121
1.35125
1.35128
1.35132
1.35136
1.35141
1.35145
1.3515
1.35155
1.3516
1.35166
1.35172
1.35179
1.35187
1.35195
1.35204
1.35214
1.35224
1.35236
1.35249
1.35263
1.35278
1.35295
1.35313
1.35332
1.35353
1.35376
1.35401
1.35427
1.35456
1.35486
1.35519
1.35554
1.35591
1.3563
1.35672
1.35717
1.35765
1.35815
1.35868
1.35925
1.35984
1.36047
1.36114
1.36184
1.36258
1.36336
1.36418
1.36504
1.36596
1.36692
1.36794
1.36902
1.37017
1.37138
1.37268
1.37406
1.37554
1.37714
1.37886
1.38073
1.38278
1.38504
1.38755
1.39034
1.39349
1.39703
1.40101
1.4054
1.40991
1.41395
1.4167
1.41595
1.31484
1.31423
1.31432
1.31522
1.3164
1.31769
1.31894
1.32004
1.32098
1.32178
1.32246
1.32303
1.32351
1.32392
1.32426
1.32455
1.3248
1.32501
1.32518
1.32533
1.32546
1.32556
1.32564
1.32571
1.32576
1.3258
1.32583
1.32585
1.32585
1.32585
1.32584
1.32583
1.32581
1.32578
1.32575
1.32571
1.32567
1.32562
1.32558
1.32553
1.32548
1.32543
1.32537
1.32532
1.32527
1.32522
1.32517
1.32512
1.32508
1.32504
1.325
1.32497
1.32494
1.32491
1.32489
1.32488
1.32487
1.32487
1.32488
1.32489
1.32491
1.32494
1.32498
1.32503
1.32508
1.32514
1.32522
1.3253
1.32539
1.32549
1.32559
1.32571
1.32584
1.32597
1.32611
1.32626
1.32642
1.32659
1.32677
1.32695
1.32714
1.32734
1.32754
1.32775
1.32797
1.32819
1.32842
1.32865
1.32889
1.32914
1.32938
1.32963
1.32989
1.33014
1.33039
1.33065
1.33091
1.33116
1.33142
1.33167
1.33192
1.33217
1.33241
1.33265
1.33288
1.33311
1.33333
1.33355
1.33376
1.33396
1.33415
1.33433
1.3345
1.33467
1.33482
1.33496
1.33509
1.33521
1.33532
1.33541
1.3355
1.33557
1.33564
1.33569
1.33573
1.33576
1.33579
1.3358
1.33581
1.33581
1.3358
1.33579
1.33577
1.33574
1.33571
1.33568
1.33564
1.3356
1.33555
1.3355
1.33545
1.3354
1.33534
1.33529
1.33523
1.33517
1.33511
1.33505
1.33499
1.33493
1.33487
1.33481
1.33475
1.33469
1.33463
1.33457
1.33451
1.33445
1.33439
1.33433
1.33428
1.33422
1.33416
1.3341
1.33405
1.33399
1.33394
1.33388
1.33383
1.33377
1.33372
1.33366
1.33361
1.33356
1.3335
1.33345
1.3334
1.33335
1.3333
1.33324
1.33319
1.33314
1.33309
1.33304
1.33299
1.33294
1.33289
1.33284
1.33279
1.33274
1.3327
1.33265
1.3326
1.33256
1.33251
1.33247
1.33243
1.33239
1.33235
1.33231
1.33227
1.33223
1.3322
1.33217
1.33214
1.33211
1.33208
1.33206
1.33204
1.33202
1.332
1.33199
1.33198
1.33197
1.33197
1.33197
1.33198
1.33199
1.332
1.33202
1.33204
1.33207
1.3321
1.33214
1.33218
1.33223
1.33229
1.33235
1.33241
1.33249
1.33257
1.33266
1.33275
1.33285
1.33296
1.33308
1.33321
1.33334
1.33348
1.33363
1.33379
1.33395
1.33413
1.33431
1.3345
1.3347
1.33492
1.33513
1.33536
1.3356
1.33584
1.3361
1.33636
1.33663
1.33691
1.3372
1.33749
1.3378
1.33811
1.33842
1.33875
1.33907
1.33941
1.33975
1.34009
1.34044
1.34079
1.34115
1.3415
1.34186
1.34221
1.34257
1.34292
1.34327
1.34362
1.34397
1.3443
1.34464
1.34496
1.34528
1.34559
1.34589
1.34618
1.34646
1.34673
1.34699
1.34724
1.34747
1.3477
1.34791
1.34812
1.34831
1.34849
1.34866
1.34882
1.34897
1.34912
1.34925
1.34938
1.3495
1.34961
1.34971
1.34981
1.3499
1.34999
1.35007
1.35015
1.35022
1.35029
1.35036
1.35042
1.35048
1.35054
1.3506
1.35065
1.3507
1.35075
1.3508
1.35084
1.35089
1.35093
1.35097
1.35101
1.35105
1.35109
1.35112
1.35116
1.3512
1.35123
1.35127
1.35131
1.35135
1.35139
1.35143
1.35148
1.35153
1.35158
1.35164
1.3517
1.35177
1.35184
1.35192
1.35201
1.35211
1.35221
1.35233
1.35246
1.3526
1.35275
1.35291
1.35309
1.35329
1.3535
1.35372
1.35397
1.35423
1.35452
1.35482
1.35515
1.35549
1.35587
1.35626
1.35668
1.35713
1.35761
1.35811
1.35864
1.3592
1.3598
1.36043
1.36109
1.36179
1.36252
1.3633
1.36412
1.36498
1.36589
1.36685
1.36786
1.36892
1.37006
1.37125
1.37253
1.37388
1.37533
1.37689
1.37856
1.38036
1.38232
1.38446
1.3868
1.38936
1.39217
1.39524
1.3985
1.40184
1.405
1.40743
1.40865
1.40835
1.31717
1.3165
1.31646
1.31689
1.3176
1.31848
1.31939
1.32025
1.32104
1.32173
1.32234
1.32287
1.32333
1.32372
1.32406
1.32435
1.3246
1.32481
1.325
1.32515
1.32528
1.32539
1.32549
1.32556
1.32562
1.32567
1.3257
1.32572
1.32574
1.32574
1.32573
1.32572
1.3257
1.32568
1.32565
1.32562
1.32558
1.32554
1.32549
1.32545
1.3254
1.32535
1.3253
1.32525
1.3252
1.32515
1.3251
1.32506
1.32501
1.32497
1.32494
1.3249
1.32487
1.32485
1.32483
1.32482
1.32481
1.32481
1.32482
1.32484
1.32486
1.32489
1.32493
1.32498
1.32503
1.3251
1.32517
1.32525
1.32534
1.32544
1.32555
1.32567
1.3258
1.32594
1.32608
1.32623
1.32639
1.32656
1.32674
1.32692
1.32712
1.32732
1.32752
1.32773
1.32795
1.32818
1.32841
1.32865
1.32889
1.32913
1.32938
1.32963
1.32989
1.33014
1.3304
1.33066
1.33092
1.33118
1.33143
1.33169
1.33194
1.33219
1.33243
1.33267
1.33291
1.33314
1.33336
1.33358
1.33379
1.33399
1.33418
1.33436
1.33454
1.3347
1.33485
1.33499
1.33512
1.33524
1.33534
1.33544
1.33552
1.33559
1.33566
1.33571
1.33575
1.33578
1.3358
1.33581
1.33582
1.33581
1.3358
1.33579
1.33576
1.33574
1.3357
1.33567
1.33563
1.33558
1.33554
1.33549
1.33544
1.33538
1.33533
1.33527
1.33521
1.33515
1.33509
1.33503
1.33497
1.33491
1.33485
1.33479
1.33473
1.33467
1.33461
1.33455
1.33449
1.33443
1.33438
1.33432
1.33426
1.3342
1.33415
1.33409
1.33403
1.33398
1.33392
1.33387
1.33381
1.33376
1.33371
1.33365
1.3336
1.33355
1.33349
1.33344
1.33339
1.33334
1.33328
1.33323
1.33318
1.33313
1.33308
1.33303
1.33298
1.33293
1.33288
1.33283
1.33278
1.33273
1.33269
1.33264
1.33259
1.33255
1.3325
1.33246
1.33242
1.33237
1.33233
1.33229
1.33226
1.33222
1.33219
1.33215
1.33212
1.3321
1.33207
1.33204
1.33202
1.332
1.33199
1.33198
1.33197
1.33196
1.33196
1.33196
1.33196
1.33197
1.33199
1.332
1.33203
1.33205
1.33209
1.33212
1.33217
1.33222
1.33227
1.33233
1.3324
1.33247
1.33255
1.33264
1.33274
1.33284
1.33295
1.33307
1.33319
1.33332
1.33347
1.33361
1.33377
1.33394
1.33411
1.3343
1.33449
1.33469
1.3349
1.33512
1.33535
1.33559
1.33584
1.33609
1.33635
1.33663
1.33691
1.3372
1.33749
1.3378
1.33811
1.33843
1.33875
1.33908
1.33942
1.33976
1.34011
1.34046
1.34081
1.34117
1.34152
1.34188
1.34224
1.3426
1.34296
1.34331
1.34366
1.34401
1.34435
1.34468
1.34501
1.34533
1.34564
1.34594
1.34623
1.34651
1.34678
1.34703
1.34728
1.34752
1.34774
1.34795
1.34815
1.34834
1.34852
1.34869
1.34885
1.349
1.34914
1.34927
1.3494
1.34951
1.34962
1.34972
1.34982
1.34991
1.35
1.35008
1.35015
1.35023
1.35029
1.35036
1.35042
1.35048
1.35054
1.35059
1.35065
1.35069
1.35074
1.35079
1.35083
1.35088
1.35092
1.35096
1.351
1.35104
1.35107
1.35111
1.35115
1.35118
1.35122
1.35126
1.35129
1.35133
1.35137
1.35141
1.35146
1.3515
1.35156
1.35161
1.35167
1.35174
1.35181
1.35189
1.35198
1.35207
1.35218
1.35229
1.35242
1.35255
1.3527
1.35287
1.35304
1.35324
1.35345
1.35367
1.35392
1.35418
1.35446
1.35476
1.35509
1.35543
1.3558
1.3562
1.35662
1.35706
1.35754
1.35804
1.35857
1.35913
1.35972
1.36035
1.36101
1.3617
1.36243
1.3632
1.36401
1.36487
1.36577
1.36671
1.36771
1.36876
1.36987
1.37105
1.37229
1.37362
1.37502
1.37652
1.37812
1.37984
1.38169
1.38368
1.38582
1.38812
1.39058
1.39316
1.39578
1.39828
1.40045
1.40199
1.4026
1.40233
1.31876
1.3182
1.31806
1.31825
1.31868
1.31927
1.31992
1.32058
1.32122
1.3218
1.32233
1.32281
1.32323
1.3236
1.32392
1.3242
1.32445
1.32466
1.32484
1.325
1.32514
1.32525
1.32535
1.32543
1.32549
1.32554
1.32558
1.32561
1.32562
1.32563
1.32563
1.32562
1.32561
1.32559
1.32556
1.32553
1.32549
1.32545
1.32541
1.32537
1.32532
1.32527
1.32523
1.32518
1.32513
1.32508
1.32503
1.32499
1.32495
1.32491
1.32487
1.32484
1.32481
1.32479
1.32477
1.32476
1.32475
1.32475
1.32476
1.32478
1.3248
1.32483
1.32487
1.32492
1.32498
1.32504
1.32512
1.3252
1.3253
1.3254
1.32551
1.32563
1.32576
1.3259
1.32604
1.3262
1.32636
1.32653
1.32671
1.32689
1.32709
1.32729
1.3275
1.32771
1.32793
1.32816
1.32839
1.32863
1.32887
1.32912
1.32937
1.32963
1.32989
1.33014
1.3304
1.33067
1.33093
1.33119
1.33144
1.3317
1.33196
1.33221
1.33245
1.33269
1.33293
1.33316
1.33339
1.33361
1.33382
1.33402
1.33421
1.3344
1.33457
1.33473
1.33489
1.33503
1.33516
1.33527
1.33538
1.33547
1.33555
1.33562
1.33568
1.33573
1.33577
1.33579
1.33581
1.33582
1.33582
1.33582
1.33581
1.33579
1.33576
1.33573
1.3357
1.33566
1.33562
1.33557
1.33553
1.33547
1.33542
1.33537
1.33531
1.33525
1.3352
1.33514
1.33508
1.33502
1.33496
1.3349
1.33484
1.33477
1.33471
1.33465
1.3346
1.33454
1.33448
1.33442
1.33436
1.3343
1.33424
1.33419
1.33413
1.33407
1.33402
1.33396
1.33391
1.33385
1.3338
1.33375
1.33369
1.33364
1.33359
1.33353
1.33348
1.33343
1.33338
1.33332
1.33327
1.33322
1.33317
1.33312
1.33307
1.33302
1.33297
1.33292
1.33287
1.33282
1.33277
1.33272
1.33267
1.33263
1.33258
1.33254
1.33249
1.33245
1.3324
1.33236
1.33232
1.33228
1.33224
1.33221
1.33217
1.33214
1.33211
1.33208
1.33206
1.33203
1.33201
1.33199
1.33197
1.33196
1.33195
1.33194
1.33194
1.33194
1.33195
1.33195
1.33197
1.33198
1.33201
1.33203
1.33207
1.3321
1.33215
1.3322
1.33225
1.33231
1.33238
1.33245
1.33253
1.33262
1.33271
1.33282
1.33293
1.33304
1.33317
1.3333
1.33344
1.33359
1.33375
1.33392
1.33409
1.33428
1.33447
1.33467
1.33488
1.3351
1.33533
1.33557
1.33582
1.33607
1.33634
1.33661
1.33689
1.33718
1.33748
1.33779
1.3381
1.33842
1.33875
1.33908
1.33942
1.33976
1.34011
1.34047
1.34082
1.34118
1.34154
1.3419
1.34227
1.34263
1.34299
1.34334
1.3437
1.34405
1.34439
1.34472
1.34505
1.34537
1.34569
1.34599
1.34628
1.34656
1.34683
1.34709
1.34733
1.34757
1.34779
1.348
1.3482
1.34839
1.34856
1.34873
1.34889
1.34903
1.34917
1.3493
1.34942
1.34953
1.34964
1.34974
1.34983
1.34992
1.35
1.35008
1.35016
1.35023
1.3503
1.35036
1.35042
1.35048
1.35054
1.35059
1.35064
1.35069
1.35074
1.35078
1.35083
1.35087
1.35091
1.35095
1.35099
1.35103
1.35106
1.3511
1.35114
1.35117
1.35121
1.35124
1.35128
1.35131
1.35135
1.35139
1.35143
1.35148
1.35153
1.35158
1.35164
1.3517
1.35177
1.35185
1.35193
1.35203
1.35213
1.35224
1.35237
1.3525
1.35265
1.35281
1.35298
1.35317
1.35338
1.3536
1.35385
1.35411
1.35439
1.35469
1.35501
1.35535
1.35572
1.35611
1.35653
1.35697
1.35744
1.35794
1.35847
1.35902
1.35961
1.36023
1.36089
1.36158
1.3623
1.36306
1.36386
1.36471
1.36559
1.36653
1.36751
1.36854
1.36962
1.37077
1.37198
1.37326
1.37461
1.37604
1.37757
1.37918
1.3809
1.38273
1.38467
1.38671
1.38882
1.39096
1.39303
1.39491
1.39643
1.39743
1.39776
1.39739
1.31992
1.31946
1.31928
1.31934
1.3196
1.31999
1.32046
1.32096
1.32147
1.32195
1.3224
1.32282
1.32319
1.32353
1.32383
1.3241
1.32433
1.32454
1.32472
1.32488
1.32501
1.32513
1.32523
1.32531
1.32537
1.32543
1.32547
1.3255
1.32552
1.32553
1.32553
1.32553
1.32551
1.3255
1.32547
1.32544
1.32541
1.32537
1.32533
1.32529
1.32524
1.3252
1.32515
1.3251
1.32506
1.32501
1.32496
1.32492
1.32488
1.32484
1.3248
1.32477
1.32475
1.32472
1.32471
1.32469
1.32469
1.32469
1.3247
1.32472
1.32474
1.32477
1.32481
1.32486
1.32492
1.32499
1.32506
1.32515
1.32524
1.32535
1.32546
1.32558
1.32571
1.32585
1.326
1.32615
1.32632
1.32649
1.32667
1.32686
1.32706
1.32726
1.32747
1.32768
1.32791
1.32814
1.32837
1.32861
1.32886
1.32911
1.32936
1.32962
1.32988
1.33014
1.33041
1.33067
1.33093
1.3312
1.33146
1.33172
1.33197
1.33223
1.33248
1.33272
1.33296
1.33319
1.33342
1.33364
1.33385
1.33406
1.33425
1.33444
1.33461
1.33478
1.33493
1.33507
1.3352
1.33531
1.33542
1.33551
1.33559
1.33565
1.33571
1.33576
1.33579
1.33582
1.33583
1.33584
1.33584
1.33583
1.33581
1.33579
1.33576
1.33573
1.3357
1.33566
1.33561
1.33556
1.33552
1.33546
1.33541
1.33535
1.3353
1.33524
1.33518
1.33512
1.33506
1.335
1.33494
1.33488
1.33482
1.33476
1.3347
1.33464
1.33458
1.33452
1.33446
1.3344
1.33434
1.33428
1.33423
1.33417
1.33412
1.33406
1.334
1.33395
1.33389
1.33384
1.33379
1.33373
1.33368
1.33363
1.33357
1.33352
1.33347
1.33342
1.33336
1.33331
1.33326
1.33321
1.33316
1.33311
1.33306
1.33301
1.33296
1.33291
1.33286
1.33281
1.33276
1.33271
1.33266
1.33261
1.33257
1.33252
1.33248
1.33243
1.33239
1.33235
1.33231
1.33227
1.33223
1.33219
1.33216
1.33213
1.3321
1.33207
1.33204
1.33201
1.33199
1.33197
1.33196
1.33194
1.33193
1.33193
1.33192
1.33192
1.33193
1.33193
1.33195
1.33196
1.33199
1.33201
1.33204
1.33208
1.33212
1.33217
1.33223
1.33229
1.33235
1.33243
1.33251
1.33259
1.33269
1.33279
1.3329
1.33302
1.33314
1.33327
1.33341
1.33356
1.33372
1.33389
1.33406
1.33425
1.33444
1.33464
1.33486
1.33508
1.33531
1.33555
1.33579
1.33605
1.33632
1.33659
1.33687
1.33716
1.33746
1.33777
1.33809
1.33841
1.33874
1.33907
1.33942
1.33976
1.34012
1.34047
1.34083
1.34119
1.34156
1.34192
1.34229
1.34265
1.34302
1.34338
1.34374
1.34409
1.34443
1.34477
1.34511
1.34543
1.34574
1.34605
1.34634
1.34662
1.34689
1.34715
1.34739
1.34763
1.34785
1.34806
1.34825
1.34844
1.34861
1.34877
1.34893
1.34907
1.3492
1.34933
1.34945
1.34956
1.34966
1.34976
1.34985
1.34994
1.35002
1.35009
1.35017
1.35024
1.3503
1.35036
1.35042
1.35048
1.35054
1.35059
1.35064
1.35069
1.35073
1.35078
1.35082
1.35086
1.35091
1.35094
1.35098
1.35102
1.35105
1.35109
1.35112
1.35116
1.35119
1.35122
1.35126
1.35129
1.35133
1.35137
1.35141
1.35145
1.3515
1.35155
1.3516
1.35166
1.35173
1.35181
1.35189
1.35198
1.35208
1.35219
1.35231
1.35244
1.35258
1.35274
1.35291
1.3531
1.3533
1.35353
1.35376
1.35402
1.3543
1.3546
1.35491
1.35526
1.35562
1.35601
1.35642
1.35686
1.35733
1.35782
1.35834
1.35889
1.35948
1.36009
1.36074
1.36142
1.36213
1.36289
1.36368
1.3645
1.36538
1.36629
1.36725
1.36826
1.36931
1.37042
1.37159
1.37282
1.37411
1.37547
1.37691
1.37842
1.38001
1.38167
1.3834
1.38519
1.38698
1.38874
1.39038
1.39181
1.39289
1.39355
1.39372
1.39332
1.32081
1.32042
1.32024
1.32023
1.32038
1.32064
1.32097
1.32135
1.32175
1.32214
1.32252
1.32288
1.32321
1.32351
1.32379
1.32404
1.32426
1.32445
1.32463
1.32478
1.32491
1.32502
1.32512
1.3252
1.32527
1.32533
1.32537
1.3254
1.32542
1.32544
1.32544
1.32544
1.32543
1.32541
1.32539
1.32536
1.32533
1.32529
1.32526
1.32521
1.32517
1.32513
1.32508
1.32503
1.32499
1.32494
1.3249
1.32485
1.32481
1.32477
1.32474
1.32471
1.32468
1.32466
1.32464
1.32463
1.32463
1.32463
1.32464
1.32465
1.32468
1.32471
1.32475
1.3248
1.32486
1.32493
1.32501
1.32509
1.32519
1.32529
1.32541
1.32553
1.32566
1.3258
1.32595
1.32611
1.32628
1.32645
1.32663
1.32682
1.32702
1.32722
1.32743
1.32765
1.32788
1.32811
1.32835
1.32859
1.32884
1.32909
1.32935
1.32961
1.32987
1.33014
1.33041
1.33067
1.33094
1.3312
1.33147
1.33173
1.33199
1.33224
1.3325
1.33274
1.33299
1.33322
1.33345
1.33367
1.33389
1.33409
1.33429
1.33448
1.33466
1.33482
1.33497
1.33511
1.33524
1.33536
1.33546
1.33555
1.33563
1.33569
1.33575
1.33579
1.33582
1.33584
1.33585
1.33586
1.33585
1.33584
1.33582
1.3358
1.33577
1.33573
1.3357
1.33565
1.33561
1.33556
1.33551
1.33545
1.3354
1.33534
1.33528
1.33522
1.33516
1.3351
1.33504
1.33498
1.33492
1.33486
1.3348
1.33474
1.33468
1.33462
1.33456
1.3345
1.33444
1.33438
1.33433
1.33427
1.33421
1.33416
1.3341
1.33404
1.33399
1.33393
1.33388
1.33383
1.33377
1.33372
1.33367
1.33361
1.33356
1.33351
1.33346
1.3334
1.33335
1.3333