# vtk DataFile Version 2.0
LBE mesh
ASCII
DATASET STRUCTURED_POINTS
DIMENSIONS 400 100 1
ASPECT_RATIO 1 1 1
ORIGIN 0 0 0
POINT_DATA 40000
SCALARS rho double 1
LOOKUP_TABLE default
0.933406
0.961073
0.96993
0.973709
0.976048
0.977588
0.978592
0.979277
0.979776
0.980169
0.980495
0.980783
0.981047
0.981304
0.981556
0.981811
0.982069
0.982334
0.982603
0.982877
0.983153
0.983431
0.983707
0.983981
0.984248
0.984509
0.984759
0.984998
0.985222
0.985433
0.985625
0.985801
0.985957
0.986095
0.986212
0.98631
0.986387
0.986447
0.986485
0.986508
0.98651
0.986499
0.986469
0.986428
0.986372
0.986308
0.986232
0.986151
0.986062
0.985972
0.985879
0.985789
0.9857
0.985617
0.985538
0.985469
0.985406
0.985356
0.985313
0.985283
0.985262
0.985255
0.985256
0.98527
0.985293
0.985328
0.98537
0.985425
0.985488
0.985564
0.985649
0.985747
0.985856
0.985981
0.986119
0.986275
0.986446
0.986637
0.986846
0.987075
0.987322
0.987589
0.987872
0.988173
0.988485
0.98881
0.989142
0.98948
0.989819
0.990157
0.99049
0.990817
0.991132
0.991436
0.991726
0.992
0.992259
0.992501
0.992726
0.992936
0.993131
0.993311
0.993479
0.993635
0.99378
0.993916
0.994044
0.994165
0.994279
0.994388
0.994492
0.994593
0.994689
0.994782
0.994873
0.994961
0.995047
0.995131
0.995214
0.995295
0.995377
0.995458
0.995539
0.995622
0.995707
0.995795
0.995885
0.99598
0.996079
0.996184
0.996295
0.996413
0.996539
0.996672
0.996813
0.996963
0.997122
0.997289
0.997465
0.99765
0.997843
0.998043
0.998252
0.998467
0.99869
0.998919
0.999155
0.999396
0.999644
0.999897
1.00016
1.00042
1.00069
1.00096
1.00124
1.00152
1.00181
1.0021
1.0024
1.0027
1.003
1.0033
1.0036
1.0039
1.0042
1.0045
1.0048
1.00509
1.00537
1.00564
1.0059
1.00616
1.00639
1.00661
1.00681
1.007
1.00716
1.0073
1.00742
1.00752
1.00759
1.00764
1.00767
1.00768
1.00767
1.00764
1.0076
1.00755
1.00748
1.00741
1.00733
1.00725
1.00717
1.00708
1.007
1.00692
1.00685
1.00679
1.00674
1.00669
1.00666
1.00664
1.00663
1.00664
1.00666
1.0067
1.00676
1.00684
1.00694
1.00706
1.00719
1.00735
1.00753
1.00772
1.00793
1.00816
1.0084
1.00865
1.00892
1.00919
1.00947
1.00976
1.01005
1.01034
1.01064
1.01093
1.01122
1.01152
1.01181
1.01209
1.01238
1.01266
1.01294
1.01322
1.01349
1.01376
1.01403
1.01429
1.01454
1.01479
1.01502
1.01525
1.01547
1.01566
1.01585
1.01601
1.01616
1.01628
1.01639
1.01647
1.01654
1.0166
1.01664
1.01667
1.01669
1.01671
1.01673
1.01675
1.01677
1.01681
1.01686
1.01692
1.01699
1.01707
1.01717
1.01728
1.0174
1.01754
1.01768
1.01783
1.01799
1.01815
1.01833
1.01851
1.01871
1.01891
1.01913
1.01936
1.0196
1.01987
1.02014
1.02043
1.02074
1.02107
1.0214
1.02175
1.02211
1.02247
1.02283
1.02319
1.02354
1.02389
1.02422
1.02454
1.02485
1.02513
1.0254
1.02564
1.02586
1.02607
1.02625
1.02642
1.02657
1.0267
1.02682
1.02693
1.02703
1.02712
1.0272
1.02727
1.02734
1.02741
1.02747
1.02753
1.02759
1.02765
1.02771
1.02777
1.02782
1.02788
1.02794
1.028
1.02806
1.02812
1.02818
1.02825
1.02832
1.02839
1.02846
1.02854
1.02863
1.02872
1.02882
1.02892
1.02903
1.02915
1.02928
1.02941
1.02956
1.02971
1.02988
1.03005
1.03023
1.03043
1.03064
1.03085
1.03108
1.03132
1.03157
1.03184
1.03211
1.03239
1.03268
1.03298
1.03329
1.0336
1.03392
1.03424
1.03455
1.03487
1.03518
1.03549
1.03578
1.03607
1.03634
1.0366
1.03684
1.03706
1.03727
1.03746
1.03763
1.03779
1.03793
1.03807
1.03819
1.03831
1.03843
1.03856
1.0387
1.03887
1.03906
1.0393
1.03959
1.03995
1.0404
1.04095
1.04163
1.04246
1.04347
1.04469
1.04618
1.04799
1.05021
1.05294
1.05636
1.06089
1.06739
1.07668
1.08914
1.1118
0.942175
0.956534
0.965901
0.971316
0.974312
0.97617
0.977432
0.978341
0.979012
0.979537
0.979963
0.980333
0.980662
0.980973
0.981269
0.981562
0.98185
0.982142
0.982432
0.982726
0.983017
0.98331
0.983596
0.983882
0.984157
0.984427
0.984682
0.984929
0.985158
0.985375
0.985571
0.985752
0.985911
0.986054
0.986174
0.986277
0.986357
0.986421
0.986462
0.986489
0.986494
0.986486
0.986459
0.986421
0.986367
0.986306
0.98623
0.986152
0.986064
0.985977
0.985884
0.985796
0.985706
0.985625
0.985545
0.985478
0.985414
0.985366
0.985322
0.985295
0.985274
0.985268
0.98527
0.985286
0.985309
0.985347
0.98539
0.985448
0.985512
0.98559
0.985675
0.985775
0.985884
0.98601
0.986147
0.986303
0.986473
0.986663
0.986869
0.987097
0.987341
0.987606
0.987885
0.988182
0.988491
0.988814
0.989142
0.989478
0.989815
0.990152
0.990484
0.99081
0.991125
0.99143
0.99172
0.991996
0.992255
0.992499
0.992726
0.992937
0.993133
0.993316
0.993485
0.993642
0.993788
0.993925
0.994053
0.994175
0.994289
0.994399
0.994503
0.994603
0.9947
0.994793
0.994883
0.994971
0.995057
0.995141
0.995224
0.995306
0.995387
0.995469
0.995551
0.995635
0.99572
0.995808
0.995899
0.995994
0.996094
0.996199
0.996311
0.996429
0.996554
0.996687
0.996829
0.996979
0.997137
0.997304
0.997479
0.997663
0.997855
0.998055
0.998263
0.998479
0.998701
0.99893
0.999165
0.999407
0.999655
0.999908
1.00017
1.00043
1.0007
1.00097
1.00125
1.00154
1.00182
1.00212
1.00241
1.00271
1.00301
1.00331
1.00361
1.00391
1.00421
1.00451
1.0048
1.00509
1.00537
1.00564
1.0059
1.00615
1.00639
1.00661
1.00681
1.00699
1.00715
1.0073
1.00741
1.00751
1.00759
1.00764
1.00767
1.00768
1.00767
1.00765
1.00761
1.00755
1.00749
1.00742
1.00734
1.00726
1.00718
1.00709
1.00701
1.00694
1.00687
1.0068
1.00675
1.0067
1.00667
1.00665
1.00664
1.00665
1.00667
1.00671
1.00677
1.00685
1.00694
1.00706
1.0072
1.00735
1.00752
1.00771
1.00792
1.00815
1.00839
1.00864
1.0089
1.00918
1.00946
1.00974
1.01003
1.01033
1.01062
1.01092
1.01121
1.0115
1.01179
1.01208
1.01237
1.01266
1.01294
1.01322
1.01349
1.01377
1.01404
1.0143
1.01456
1.01481
1.01504
1.01527
1.01549
1.01569
1.01587
1.01603
1.01618
1.01631
1.01641
1.0165
1.01657
1.01662
1.01666
1.01669
1.01671
1.01673
1.01675
1.01677
1.0168
1.01683
1.01688
1.01694
1.01701
1.01709
1.01719
1.0173
1.01742
1.01756
1.0177
1.01785
1.01801
1.01818
1.01835
1.01854
1.01873
1.01893
1.01915
1.01938
1.01962
1.01988
1.02015
1.02044
1.02074
1.02106
1.0214
1.02174
1.02209
1.02245
1.02281
1.02316
1.02352
1.02386
1.0242
1.02451
1.02482
1.0251
1.02537
1.02561
1.02584
1.02604
1.02623
1.0264
1.02655
1.02669
1.02681
1.02692
1.02702
1.02711
1.02719
1.02727
1.02734
1.02741
1.02747
1.02753
1.02759
1.02765
1.02771
1.02777
1.02782
1.02788
1.02794
1.028
1.02806
1.02812
1.02818
1.02825
1.02832
1.02839
1.02847
1.02855
1.02864
1.02873
1.02883
1.02893
1.02904
1.02916
1.02929
1.02942
1.02957
1.02972
1.02989
1.03006
1.03025
1.03045
1.03065
1.03087
1.0311
1.03134
1.03159
1.03185
1.03213
1.03241
1.0327
1.033
1.03331
1.03362
1.03393
1.03425
1.03457
1.03488
1.03519
1.03549
1.03579
1.03607
1.03634
1.0366
1.03684
1.03706
1.03727
1.03746
1.03764
1.0378
1.03795
1.03808
1.03821
1.03834
1.03847
1.03861
1.03876
1.03893
1.03914
1.03939
1.03969
1.04007
1.04054
1.04112
1.04183
1.0427
1.04377
1.04506
1.04663
1.04854
1.05089
1.05381
1.05754
1.06234
1.06861
1.07771
1.0941
1.12079
0.958182
0.961447
0.966541
0.970543
0.973301
0.975246
0.976629
0.97764
0.978405
0.979012
0.979511
0.97994
0.980321
0.980674
0.981007
0.98133
0.981646
0.98196
0.982269
0.98258
0.982886
0.983191
0.983489
0.983783
0.984067
0.984344
0.984607
0.984859
0.985094
0.985315
0.985516
0.985702
0.985865
0.986013
0.986136
0.986243
0.986327
0.986395
0.98644
0.986469
0.986478
0.986473
0.986448
0.986413
0.986361
0.986301
0.986228
0.986151
0.986064
0.985978
0.985886
0.985799
0.98571
0.98563
0.985552
0.985486
0.985424
0.985376
0.985335
0.985309
0.985291
0.985288
0.985292
0.985311
0.985336
0.985376
0.985422
0.985482
0.985547
0.985627
0.985713
0.985814
0.985923
0.986049
0.986185
0.98634
0.986508
0.986697
0.9869
0.987125
0.987366
0.987627
0.987903
0.988198
0.988504
0.988823
0.98915
0.989483
0.989819
0.990155
0.990486
0.990812
0.991127
0.991433
0.991724
0.992001
0.992262
0.992507
0.992735
0.992949
0.993146
0.99333
0.9935
0.993658
0.993805
0.993943
0.994072
0.994193
0.994308
0.994418
0.994522
0.994622
0.994719
0.994812
0.994902
0.99499
0.995076
0.99516
0.995243
0.995325
0.995406
0.995488
0.995571
0.995655
0.99574
0.995829
0.995921
0.996016
0.996117
0.996223
0.996335
0.996453
0.996579
0.996713
0.996854
0.997004
0.997162
0.997328
0.997503
0.997687
0.997878
0.998078
0.998285
0.9985
0.998722
0.998951
0.999186
0.999428
0.999675
0.999929
1.00019
1.00045
1.00072
1.00099
1.00127
1.00156
1.00184
1.00213
1.00243
1.00272
1.00302
1.00332
1.00362
1.00392
1.00422
1.00451
1.00481
1.00509
1.00537
1.00564
1.0059
1.00615
1.00638
1.0066
1.00681
1.00699
1.00715
1.00729
1.00741
1.00751
1.00759
1.00764
1.00767
1.00768
1.00768
1.00765
1.00761
1.00756
1.0075
1.00743
1.00735
1.00727
1.00719
1.00711
1.00703
1.00696
1.00689
1.00682
1.00677
1.00672
1.00669
1.00667
1.00666
1.00667
1.00669
1.00673
1.00679
1.00686
1.00696
1.00707
1.0072
1.00736
1.00753
1.00772
1.00792
1.00814
1.00838
1.00863
1.00889
1.00916
1.00944
1.00973
1.01002
1.01031
1.0106
1.0109
1.01119
1.01149
1.01178
1.01207
1.01236
1.01265
1.01293
1.01321
1.01349
1.01377
1.01404
1.01431
1.01457
1.01482
1.01506
1.01529
1.01551
1.01571
1.01589
1.01605
1.0162
1.01632
1.01643
1.01651
1.01658
1.01663
1.01667
1.0167
1.01672
1.01674
1.01676
1.01678
1.01681
1.01684
1.01689
1.01695
1.01702
1.01711
1.01721
1.01732
1.01744
1.01757
1.01772
1.01787
1.01803
1.01819
1.01837
1.01855
1.01874
1.01895
1.01916
1.01939
1.01963
1.01988
1.02015
1.02044
1.02074
1.02106
1.02139
1.02173
1.02208
1.02243
1.02279
1.02315
1.0235
1.02384
1.02418
1.0245
1.0248
1.02509
1.02535
1.0256
1.02583
1.02603
1.02622
1.02639
1.02654
1.02668
1.0268
1.02692
1.02702
1.02711
1.02719
1.02727
1.02734
1.02741
1.02747
1.02754
1.0276
1.02766
1.02771
1.02777
1.02783
1.02789
1.02795
1.02801
1.02807
1.02813
1.02819
1.02826
1.02833
1.0284
1.02848
1.02856
1.02865
1.02874
1.02884
1.02894
1.02906
1.02918
1.0293
1.02944
1.02959
1.02974
1.02991
1.03008
1.03027
1.03047
1.03068
1.03089
1.03112
1.03137
1.03162
1.03188
1.03215
1.03243
1.03272
1.03302
1.03332
1.03363
1.03395
1.03426
1.03457
1.03488
1.03519
1.03549
1.03578
1.03606
1.03633
1.03658
1.03682
1.03705
1.03725
1.03745
1.03762
1.03779
1.03794
1.03808
1.03821
1.03834
1.03847
1.03861
1.03877
1.03894
1.03915
1.03941
1.03972
1.04011
1.04058
1.04117
1.04189
1.04277
1.04385
1.04515
1.04674
1.04867
1.05102
1.05391
1.0575
1.06211
1.06816
1.07578
1.08406
1.09257
0.966961
0.966659
0.968702
0.971149
0.973294
0.974961
0.976234
0.977224
0.978007
0.978644
0.979176
0.979639
0.980051
0.980432
0.980791
0.981137
0.981472
0.981804
0.98213
0.982454
0.982772
0.983087
0.983395
0.983697
0.983988
0.984272
0.98454
0.984797
0.985037
0.985262
0.985468
0.985657
0.985825
0.985976
0.986103
0.986214
0.986302
0.986373
0.986421
0.986454
0.986466
0.986463
0.986442
0.986409
0.986359
0.986301
0.986229
0.986154
0.986068
0.985983
0.985892
0.985806
0.985719
0.98564
0.985564
0.985499
0.98544
0.985395
0.985357
0.985334
0.985319
0.985319
0.985327
0.985349
0.985378
0.98542
0.985469
0.985531
0.985599
0.98568
0.985767
0.985868
0.985978
0.986103
0.986238
0.98639
0.986557
0.986742
0.986943
0.987164
0.987401
0.987659
0.987932
0.988223
0.988526
0.988843
0.989168
0.9895
0.989834
0.990169
0.990501
0.990827
0.991143
0.991449
0.991741
0.99202
0.992282
0.992529
0.992759
0.992973
0.993172
0.993357
0.993528
0.993687
0.993835
0.993973
0.994103
0.994225
0.99434
0.994449
0.994554
0.994654
0.99475
0.994843
0.994933
0.995021
0.995106
0.99519
0.995273
0.995356
0.995437
0.99552
0.995603
0.995687
0.995774
0.995863
0.995956
0.996052
0.996154
0.99626
0.996373
0.996492
0.996619
0.996753
0.996894
0.997044
0.997202
0.997368
0.997543
0.997726
0.997917
0.998116
0.998323
0.998537
0.998759
0.998987
0.999222
0.999463
0.99971
0.999963
1.00022
1.00049
1.00075
1.00103
1.00131
1.00159
1.00187
1.00216
1.00245
1.00275
1.00305
1.00334
1.00364
1.00394
1.00424
1.00453
1.00482
1.0051
1.00538
1.00565
1.00591
1.00616
1.00639
1.00661
1.00681
1.00699
1.00716
1.0073
1.00742
1.00752
1.00759
1.00765
1.00768
1.0077
1.00769
1.00767
1.00763
1.00758
1.00752
1.00745
1.00738
1.0073
1.00722
1.00714
1.00706
1.00699
1.00692
1.00686
1.0068
1.00676
1.00673
1.00671
1.0067
1.0067
1.00673
1.00676
1.00682
1.00689
1.00698
1.0071
1.00723
1.00738
1.00754
1.00773
1.00793
1.00815
1.00839
1.00863
1.00889
1.00916
1.00944
1.00972
1.01001
1.0103
1.01059
1.01088
1.01118
1.01147
1.01177
1.01206
1.01235
1.01264
1.01292
1.01321
1.01349
1.01377
1.01404
1.01431
1.01458
1.01483
1.01507
1.0153
1.01552
1.01572
1.01591
1.01607
1.01621
1.01634
1.01644
1.01652
1.01659
1.01664
1.01668
1.01671
1.01673
1.01675
1.01677
1.01679
1.01682
1.01686
1.01691
1.01697
1.01704
1.01713
1.01723
1.01734
1.01746
1.01759
1.01773
1.01788
1.01804
1.01821
1.01839
1.01857
1.01876
1.01896
1.01918
1.0194
1.01964
1.01989
1.02016
1.02045
1.02075
1.02106
1.02139
1.02173
1.02208
1.02243
1.02279
1.02314
1.0235
1.02384
1.02417
1.02449
1.0248
1.02509
1.02535
1.0256
1.02583
1.02604
1.02623
1.0264
1.02655
1.02669
1.02682
1.02693
1.02703
1.02712
1.02721
1.02729
1.02736
1.02743
1.02749
1.02755
1.02761
1.02767
1.02773
1.02779
1.02785
1.02791
1.02797
1.02803
1.02809
1.02815
1.02822
1.02828
1.02835
1.02843
1.02851
1.02859
1.02868
1.02877
1.02887
1.02897
1.02909
1.02921
1.02933
1.02947
1.02962
1.02977
1.02994
1.03012
1.0303
1.0305
1.03071
1.03093
1.03116
1.0314
1.03165
1.03191
1.03219
1.03247
1.03275
1.03305
1.03335
1.03365
1.03396
1.03427
1.03458
1.03489
1.03519
1.03548
1.03577
1.03605
1.03631
1.03656
1.0368
1.03702
1.03723
1.03742
1.0376
1.03776
1.03792
1.03806
1.03819
1.03832
1.03846
1.03859
1.03875
1.03892
1.03913
1.03938
1.03969
1.04007
1.04054
1.04112
1.04183
1.0427
1.04375
1.04503
1.04658
1.04844
1.05069
1.05341
1.05669
1.06062
1.06525
1.07049
1.07474
1.07488
0.970812
0.970344
0.971163
0.972467
0.973878
0.975147
0.976219
0.977105
0.977836
0.978452
0.97898
0.979447
0.979869
0.980262
0.980632
0.980991
0.981338
0.98168
0.982016
0.982348
0.982675
0.982997
0.983311
0.983619
0.983916
0.984203
0.984476
0.984737
0.984981
0.98521
0.985419
0.985612
0.985783
0.985937
0.986069
0.986183
0.986274
0.986349
0.986401
0.986437
0.986452
0.986452
0.986433
0.986403
0.986355
0.986299
0.986229
0.986154
0.986071
0.985986
0.985897
0.985812
0.985727
0.98565
0.985576
0.985514
0.985458
0.985416
0.985382
0.985363
0.985352
0.985356
0.985368
0.985394
0.985427
0.985473
0.985525
0.985589
0.98566
0.985742
0.98583
0.985931
0.98604
0.986164
0.986297
0.986448
0.986611
0.986793
0.98699
0.987208
0.987442
0.987695
0.987965
0.988253
0.988553
0.988868
0.98919
0.989521
0.989854
0.990189
0.990521
0.990847
0.991164
0.991471
0.991765
0.992045
0.992308
0.992556
0.992788
0.993004
0.993204
0.99339
0.993562
0.993722
0.99387
0.994009
0.994139
0.994261
0.994376
0.994486
0.99459
0.994691
0.994787
0.99488
0.99497
0.995057
0.995143
0.995227
0.99531
0.995393
0.995475
0.995558
0.995641
0.995727
0.995814
0.995904
0.995998
0.996096
0.996198
0.996306
0.99642
0.99654
0.996667
0.996801
0.996943
0.997093
0.997251
0.997418
0.997592
0.997774
0.997965
0.998164
0.99837
0.998583
0.998804
0.999032
0.999266
0.999506
0.999753
1
1.00026
1.00053
1.00079
1.00107
1.00134
1.00162
1.00191
1.00219
1.00248
1.00278
1.00307
1.00337
1.00366
1.00396
1.00425
1.00455
1.00483
1.00512
1.00539
1.00566
1.00592
1.00617
1.0064
1.00662
1.00682
1.007
1.00716
1.00731
1.00743
1.00753
1.0076
1.00766
1.0077
1.00771
1.00771
1.00769
1.00765
1.00761
1.00755
1.00748
1.00741
1.00733
1.00726
1.00718
1.0071
1.00703
1.00696
1.0069
1.00685
1.0068
1.00677
1.00675
1.00674
1.00675
1.00677
1.0068
1.00686
1.00693
1.00702
1.00713
1.00725
1.0074
1.00757
1.00775
1.00795
1.00816
1.00839
1.00864
1.00889
1.00916
1.00943
1.00971
1.00999
1.01028
1.01057
1.01086
1.01116
1.01145
1.01174
1.01204
1.01233
1.01262
1.01291
1.0132
1.01348
1.01376
1.01404
1.01431
1.01458
1.01483
1.01508
1.01531
1.01553
1.01573
1.01591
1.01608
1.01622
1.01634
1.01644
1.01653
1.01659
1.01664
1.01668
1.01671
1.01673
1.01675
1.01677
1.01679
1.01682
1.01686
1.01691
1.01697
1.01705
1.01714
1.01724
1.01735
1.01747
1.0176
1.01775
1.0179
1.01806
1.01822
1.0184
1.01858
1.01877
1.01897
1.01918
1.01941
1.01965
1.0199
1.02017
1.02045
1.02075
1.02107
1.02139
1.02173
1.02208
1.02243
1.02279
1.02314
1.0235
1.02384
1.02418
1.0245
1.0248
1.02509
1.02536
1.02561
1.02584
1.02605
1.02624
1.02642
1.02657
1.02671
1.02684
1.02695
1.02705
1.02714
1.02723
1.02731
1.02738
1.02745
1.02751
1.02758
1.02764
1.0277
1.02776
1.02781
1.02787
1.02793
1.02799
1.02805
1.02811
1.02818
1.02824
1.02831
1.02838
1.02846
1.02854
1.02862
1.02871
1.0288
1.0289
1.02901
1.02912
1.02924
1.02937
1.02951
1.02965
1.02981
1.02998
1.03015
1.03034
1.03054
1.03075
1.03097
1.0312
1.03144
1.03169
1.03195
1.03222
1.0325
1.03278
1.03307
1.03337
1.03367
1.03397
1.03428
1.03458
1.03488
1.03518
1.03547
1.03575
1.03602
1.03628
1.03653
1.03676
1.03698
1.03719
1.03738
1.03756
1.03772
1.03787
1.03801
1.03815
1.03828
1.03841
1.03855
1.03869
1.03886
1.03906
1.03931
1.0396
1.03996
1.04041
1.04097
1.04165
1.04248
1.04349
1.04471
1.04616
1.0479
1.04997
1.05239
1.05521
1.0584
1.06172
1.06474
1.06682
1.06614
0.973176
0.972869
0.973152
0.973842
0.974733
0.975641
0.976479
0.977218
0.977862
0.978425
0.978923
0.979373
0.979787
0.980177
0.980549
0.980909
0.98126
0.981606
0.981945
0.982282
0.982612
0.982938
0.983255
0.983566
0.983865
0.984155
0.98443
0.984693
0.984939
0.98517
0.985382
0.985577
0.985751
0.985909
0.986044
0.986161
0.986256
0.986334
0.98639
0.986429
0.986447
0.98645
0.986434
0.986406
0.986361
0.986306
0.986238
0.986165
0.986083
0.986
0.985913
0.985829
0.985746
0.985671
0.9856
0.985541
0.985489
0.985451
0.985421
0.985406
0.9854
0.985409
0.985426
0.985456
0.985493
0.985543
0.985599
0.985666
0.985738
0.985821
0.985911
0.986012
0.98612
0.986242
0.986374
0.986521
0.986681
0.986859
0.987053
0.987266
0.987496
0.987746
0.988012
0.988296
0.988594
0.988906
0.989227
0.989556
0.989888
0.990223
0.990554
0.990881
0.991199
0.991507
0.991802
0.992083
0.992348
0.992597
0.99283
0.993047
0.993248
0.993435
0.993608
0.993769
0.993918
0.994057
0.994188
0.99431
0.994426
0.994536
0.99464
0.994741
0.994837
0.99493
0.99502
0.995108
0.995194
0.995279
0.995362
0.995445
0.995528
0.995611
0.995696
0.995782
0.995871
0.995962
0.996057
0.996156
0.99626
0.99637
0.996485
0.996606
0.996734
0.99687
0.997012
0.997163
0.997321
0.997487
0.997661
0.997843
0.998033
0.998231
0.998436
0.998649
0.998868
0.999095
0.999328
0.999567
0.999813
1.00006
1.00032
1.00058
1.00085
1.00112
1.00139
1.00167
1.00195
1.00224
1.00253
1.00282
1.00311
1.0034
1.0037
1.00399
1.00428
1.00457
1.00486
1.00514
1.00542
1.00568
1.00594
1.00619
1.00642
1.00664
1.00684
1.00702
1.00718
1.00733
1.00745
1.00755
1.00763
1.00769
1.00772
1.00774
1.00774
1.00772
1.00769
1.00765
1.00759
1.00753
1.00746
1.00738
1.00731
1.00723
1.00716
1.00709
1.00702
1.00696
1.00691
1.00687
1.00684
1.00682
1.00681
1.00681
1.00683
1.00687
1.00692
1.00699
1.00707
1.00718
1.0073
1.00745
1.00761
1.00778
1.00798
1.00819
1.00842
1.00865
1.0089
1.00916
1.00943
1.00971
1.00999
1.01027
1.01056
1.01085
1.01114
1.01143
1.01173
1.01202
1.01231
1.0126
1.01289
1.01318
1.01347
1.01375
1.01403
1.01431
1.01458
1.01484
1.01508
1.01532
1.01554
1.01574
1.01592
1.01608
1.01623
1.01635
1.01645
1.01653
1.01659
1.01664
1.01668
1.01671
1.01673
1.01675
1.01677
1.0168
1.01683
1.01687
1.01692
1.01699
1.01706
1.01715
1.01725
1.01737
1.01749
1.01762
1.01776
1.01792
1.01807
1.01824
1.01841
1.0186
1.01879
1.01899
1.0192
1.01943
1.01966
1.01992
1.02018
1.02047
1.02077
1.02108
1.02141
1.02174
1.02209
1.02245
1.0228
1.02316
1.02351
1.02386
1.0242
1.02452
1.02483
1.02512
1.02539
1.02564
1.02587
1.02608
1.02628
1.02645
1.02661
1.02675
1.02687
1.02699
1.02709
1.02718
1.02727
1.02735
1.02742
1.02749
1.02755
1.02762
1.02768
1.02774
1.0278
1.02785
1.02791
1.02797
1.02803
1.02809
1.02816
1.02822
1.02829
1.02836
1.02843
1.0285
1.02858
1.02867
1.02875
1.02885
1.02895
1.02906
1.02917
1.02929
1.02942
1.02956
1.02971
1.02987
1.03003
1.03021
1.0304
1.0306
1.0308
1.03102
1.03125
1.03149
1.03174
1.032
1.03227
1.03254
1.03282
1.03311
1.0334
1.0337
1.03399
1.03429
1.03459
1.03488
1.03517
1.03545
1.03572
1.03599
1.03624
1.03649
1.03672
1.03694
1.03714
1.03733
1.03751
1.03767
1.03782
1.03796
1.0381
1.03823
1.03835
1.03849
1.03863
1.03879
1.03898
1.0392
1.03948
1.03982
1.04024
1.04077
1.0414
1.04218
1.04312
1.04425
1.0456
1.04718
1.04901
1.05111
1.05342
1.05587
1.05822
1.06002
1.06091
1.06055
0.974963
0.974683
0.974756
0.975136
0.97569
0.976315
0.97694
0.977528
0.978068
0.978558
0.979007
0.979422
0.979812
0.980185
0.980545
0.980896
0.981241
0.981582
0.981919
0.982253
0.982582
0.982906
0.983222
0.983532
0.98383
0.984119
0.984395
0.984657
0.984904
0.985135
0.985348
0.985545
0.985722
0.985881
0.986019
0.986139
0.986237
0.986318
0.986377
0.98642
0.986442
0.986448
0.986435
0.986409
0.986366
0.986313
0.986248
0.986176
0.986096
0.986014
0.985929
0.985847
0.985767
0.985694
0.985627
0.985571
0.985523
0.985489
0.985464
0.985453
0.985453
0.985466
0.985488
0.985523
0.985565
0.985618
0.985678
0.985747
0.985823
0.985907
0.985998
0.986098
0.986206
0.986326
0.986455
0.986599
0.986756
0.98693
0.98712
0.987328
0.987554
0.9878
0.988062
0.988342
0.988637
0.988946
0.989265
0.989592
0.989924
0.990258
0.99059
0.990917
0.991235
0.991544
0.99184
0.992122
0.992388
0.992639
0.992873
0.993091
0.993293
0.993481
0.993655
0.993816
0.993966
0.994106
0.994237
0.99436
0.994477
0.994587
0.994692
0.994793
0.99489
0.994984
0.995075
0.995163
0.99525
0.995335
0.995419
0.995503
0.995586
0.995671
0.995757
0.995844
0.995934
0.996027
0.996124
0.996225
0.99633
0.996441
0.996558
0.99668
0.99681
0.996946
0.99709
0.99724
0.997399
0.997565
0.997739
0.99792
0.99811
0.998306
0.998511
0.998722
0.99894
0.999165
0.999397
0.999635
0.999879
1.00013
1.00038
1.00064
1.00091
1.00117
1.00145
1.00172
1.002
1.00229
1.00257
1.00286
1.00315
1.00344
1.00373
1.00402
1.00431
1.0046
1.00489
1.00517
1.00544
1.0057
1.00596
1.00621
1.00644
1.00665
1.00686
1.00704
1.0072
1.00735
1.00747
1.00757
1.00765
1.00771
1.00775
1.00777
1.00777
1.00776
1.00773
1.00769
1.00764
1.00758
1.00751
1.00744
1.00737
1.0073
1.00723
1.00716
1.00709
1.00704
1.00699
1.00694
1.00691
1.00689
1.00688
1.00689
1.0069
1.00694
1.00699
1.00705
1.00714
1.00724
1.00736
1.0075
1.00765
1.00782
1.00801
1.00822
1.00844
1.00867
1.00892
1.00917
1.00943
1.0097
1.00998
1.01026
1.01054
1.01083
1.01112
1.01141
1.0117
1.01199
1.01228
1.01257
1.01286
1.01316
1.01345
1.01373
1.01402
1.0143
1.01457
1.01483
1.01508
1.01531
1.01553
1.01573
1.01592
1.01608
1.01622
1.01634
1.01644
1.01652
1.01659
1.01664
1.01667
1.0167
1.01672
1.01675
1.01677
1.0168
1.01683
1.01688
1.01693
1.01699
1.01707
1.01716
1.01726
1.01738
1.0175
1.01763
1.01778
1.01793
1.01809
1.01825
1.01843
1.01861
1.0188
1.019
1.01921
1.01944
1.01967
1.01993
1.02019
1.02048
1.02078
1.02109
1.02142
1.02176
1.02211
1.02246
1.02282
1.02318
1.02353
1.02388
1.02422
1.02455
1.02486
1.02515
1.02542
1.02567
1.02591
1.02612
1.02631
1.02649
1.02664
1.02679
1.02691
1.02703
1.02713
1.02722
1.02731
1.02739
1.02746
1.02753
1.0276
1.02766
1.02772
1.02778
1.02784
1.0279
1.02796
1.02802
1.02808
1.02814
1.0282
1.02827
1.02833
1.0284
1.02848
1.02855
1.02863
1.02872
1.02881
1.0289
1.029
1.02911
1.02922
1.02935
1.02948
1.02962
1.02976
1.02992
1.03009
1.03027
1.03045
1.03065
1.03086
1.03108
1.03131
1.03154
1.03179
1.03205
1.03231
1.03258
1.03286
1.03314
1.03342
1.03371
1.034
1.03429
1.03458
1.03486
1.03515
1.03542
1.03569
1.03595
1.0362
1.03643
1.03666
1.03688
1.03708
1.03727
1.03744
1.0376
1.03776
1.0379
1.03803
1.03815
1.03828
1.0384
1.03854
1.03869
1.03886
1.03907
1.03932
1.03964
1.04003
1.0405
1.04109
1.0418
1.04267
1.04369
1.04491
1.04631
1.04791
1.04968
1.05155
1.0534
1.05503
1.05617
1.05654
1.05619
0.976371
0.976094
0.976075
0.976273
0.976616
0.977042
0.977499
0.977955
0.978393
0.978808
0.979201
0.979574
0.979933
0.980281
0.980621
0.980958
0.98129
0.981622
0.98195
0.982277
0.982599
0.982918
0.983229
0.983534
0.983829
0.984115
0.984388
0.984648
0.984893
0.985123
0.985336
0.985532
0.98571
0.98587
0.98601
0.986132
0.986234
0.986317
0.98638
0.986426
0.986451
0.98646
0.986451
0.986427
0.986387
0.986337
0.986273
0.986203
0.986126
0.986046
0.985963
0.985883
0.985806
0.985736
0.985672
0.985619
0.985576
0.985546
0.985526
0.985521
0.985525
0.985543
0.985571
0.98561
0.985657
0.985714
0.985778
0.98585
0.985928
0.986013
0.986105
0.986205
0.986312
0.986429
0.986557
0.986697
0.986851
0.98702
0.987206
0.987409
0.987631
0.987871
0.988129
0.988405
0.988697
0.989002
0.989319
0.989645
0.989975
0.990308
0.990639
0.990966
0.991285
0.991595
0.991891
0.992174
0.992441
0.992693
0.992928
0.993146
0.99335
0.993538
0.993713
0.993875
0.994026
0.994167
0.994299
0.994423
0.99454
0.994652
0.994758
0.99486
0.994958
0.995053
0.995145
0.995234
0.995322
0.995408
0.995494
0.995579
0.995664
0.99575
0.995837
0.995926
0.996018
0.996113
0.996212
0.996315
0.996423
0.996535
0.996654
0.996778
0.996909
0.997047
0.997191
0.997343
0.997502
0.997668
0.997841
0.998022
0.998211
0.998406
0.998609
0.998819
0.999036
0.999259
0.999489
0.999725
0.999966
1.00021
1.00047
1.00072
1.00098
1.00125
1.00152
1.00179
1.00207
1.00235
1.00263
1.00292
1.0032
1.00349
1.00378
1.00407
1.00436
1.00464
1.00493
1.0052
1.00548
1.00574
1.006
1.00624
1.00647
1.00669
1.00689
1.00708
1.00724
1.00739
1.00751
1.00762
1.0077
1.00776
1.0078
1.00783
1.00783
1.00782
1.0078
1.00776
1.00771
1.00765
1.00759
1.00753
1.00746
1.00739
1.00732
1.00725
1.00719
1.00714
1.00709
1.00705
1.00702
1.007
1.00699
1.00699
1.007
1.00703
1.00708
1.00714
1.00722
1.00732
1.00744
1.00757
1.00772
1.00789
1.00807
1.00827
1.00848
1.00871
1.00895
1.00919
1.00945
1.00971
1.00998
1.01026
1.01054
1.01082
1.0111
1.01139
1.01168
1.01197
1.01226
1.01255
1.01284
1.01314
1.01343
1.01372
1.01401
1.01429
1.01456
1.01482
1.01508
1.01531
1.01553
1.01574
1.01592
1.01608
1.01622
1.01634
1.01644
1.01652
1.01659
1.01664
1.01667
1.0167
1.01673
1.01675
1.01678
1.01681
1.01684
1.01689
1.01695
1.01701
1.01709
1.01718
1.01729
1.0174
1.01752
1.01766
1.0178
1.01795
1.01811
1.01828
1.01845
1.01863
1.01882
1.01902
1.01924
1.01946
1.0197
1.01995
1.02022
1.0205
1.0208
1.02112
1.02144
1.02178
1.02213
1.02249
1.02285
1.02321
1.02357
1.02392
1.02426
1.02459
1.0249
1.0252
1.02547
1.02573
1.02596
1.02618
1.02637
1.02655
1.0267
1.02684
1.02697
1.02709
1.02719
1.02728
1.02737
1.02745
1.02752
1.02759
1.02766
1.02772
1.02778
1.02784
1.0279
1.02796
1.02802
1.02808
1.02814
1.02821
1.02827
1.02834
1.0284
1.02847
1.02855
1.02863
1.02871
1.02879
1.02888
1.02898
1.02908
1.02919
1.0293
1.02943
1.02956
1.0297
1.02984
1.03
1.03017
1.03035
1.03053
1.03073
1.03094
1.03115
1.03138
1.03162
1.03186
1.03211
1.03237
1.03264
1.03291
1.03318
1.03346
1.03374
1.03402
1.0343
1.03458
1.03486
1.03513
1.0354
1.03566
1.03591
1.03615
1.03639
1.03661
1.03682
1.03702
1.03721
1.03738
1.03754
1.03769
1.03783
1.03797
1.03809
1.03821
1.03833
1.03846
1.0386
1.03876
1.03895
1.03918
1.03946
1.03981
1.04025
1.04078
1.04143
1.0422
1.04313
1.04421
1.04544
1.04681
1.04828
1.04977
1.05117
1.05231
1.05302
1.05316
1.0527
0.977523
0.977275
0.977213
0.977306
0.977516
0.977803
0.978132
0.978477
0.978825
0.979167
0.979501
0.979826
0.980146
0.980462
0.980777
0.981091
0.981405
0.981719
0.982034
0.982347
0.982658
0.982966
0.983269
0.983566
0.983853
0.984132
0.984399
0.984654
0.984895
0.985122
0.985333
0.985528
0.985705
0.985865
0.986006
0.98613
0.986234
0.98632
0.986386
0.986434
0.986463
0.986475
0.986469
0.986448
0.986412
0.986363
0.986303
0.986235
0.98616
0.986082
0.986002
0.985924
0.98585
0.985783
0.985722
0.985673
0.985634
0.985608
0.985594
0.985593
0.985603
0.985626
0.985658
0.985702
0.985754
0.985815
0.985882
0.985957
0.986037
0.986124
0.986216
0.986315
0.986422
0.986537
0.986662
0.986799
0.986949
0.987114
0.987295
0.987493
0.987709
0.987945
0.988198
0.988469
0.988757
0.989059
0.989373
0.989696
0.990024
0.990356
0.990686
0.991012
0.991332
0.991641
0.991938
0.992221
0.992489
0.992741
0.992977
0.993196
0.9934
0.99359
0.993765
0.993929
0.994081
0.994223
0.994356
0.994482
0.994601
0.994714
0.994822
0.994926
0.995026
0.995123
0.995216
0.995308
0.995397
0.995485
0.995572
0.995659
0.995746
0.995834
0.995924
0.996015
0.996109
0.996207
0.996308
0.996413
0.996523
0.996638
0.996758
0.996885
0.997017
0.997156
0.997302
0.997454
0.997613
0.997779
0.997952
0.998132
0.99832
0.998514
0.998716
0.998924
0.999139
0.99936
0.999587
0.999821
1.00006
1.0003
1.00055
1.00081
1.00107
1.00133
1.0016
1.00187
1.00214
1.00242
1.0027
1.00298
1.00326
1.00355
1.00383
1.00412
1.0044
1.00469
1.00497
1.00524
1.00551
1.00578
1.00603
1.00627
1.00651
1.00672
1.00693
1.00711
1.00728
1.00743
1.00756
1.00766
1.00775
1.00781
1.00786
1.00789
1.0079
1.00789
1.00787
1.00784
1.00779
1.00774
1.00768
1.00762
1.00755
1.00749
1.00742
1.00736
1.0073
1.00725
1.0072
1.00716
1.00713
1.00711
1.0071
1.0071
1.00711
1.00714
1.00719
1.00724
1.00732
1.00741
1.00752
1.00765
1.00779
1.00795
1.00813
1.00832
1.00853
1.00875
1.00898
1.00922
1.00946
1.00972
1.00998
1.01025
1.01052
1.0108
1.01108
1.01136
1.01165
1.01193
1.01222
1.01252
1.01281
1.01311
1.0134
1.01369
1.01398
1.01427
1.01454
1.01481
1.01506
1.0153
1.01553
1.01573
1.01591
1.01608
1.01622
1.01634
1.01644
1.01652
1.01658
1.01663
1.01667
1.0167
1.01673
1.01675
1.01678
1.01681
1.01685
1.0169
1.01696
1.01703
1.01711
1.0172
1.0173
1.01742
1.01754
1.01768
1.01782
1.01797
1.01813
1.01829
1.01847
1.01865
1.01884
1.01904
1.01925
1.01948
1.01971
1.01997
1.02024
1.02052
1.02082
1.02114
1.02147
1.02181
1.02216
1.02252
1.02288
1.02325
1.02361
1.02396
1.0243
1.02463
1.02495
1.02525
1.02552
1.02578
1.02602
1.02623
1.02643
1.0266
1.02676
1.02691
1.02703
1.02715
1.02725
1.02735
1.02743
1.02751
1.02759
1.02766
1.02772
1.02779
1.02785
1.02791
1.02797
1.02803
1.02809
1.02815
1.02821
1.02828
1.02834
1.02841
1.02848
1.02855
1.02862
1.0287
1.02878
1.02887
1.02896
1.02906
1.02916
1.02927
1.02938
1.02951
1.02964
1.02978
1.02993
1.03008
1.03025
1.03043
1.03061
1.03081
1.03101
1.03123
1.03145
1.03169
1.03193
1.03217
1.03243
1.03269
1.03295
1.03322
1.03349
1.03376
1.03404
1.03431
1.03458
1.03485
1.03511
1.03537
1.03562
1.03586
1.0361
1.03632
1.03654
1.03675
1.03695
1.03713
1.0373
1.03747
1.03762
1.03776
1.03789
1.03801
1.03813
1.03824
1.03836
1.03849
1.03864
1.03881
1.03902
1.03927
1.03958
1.03997
1.04045
1.04103
1.04172
1.04254
1.04349
1.04456
1.04572
1.04694
1.04813
1.04919
1.04999
1.05042
1.05042
1.04992
0.978516
0.978294
0.978205
0.978233
0.978356
0.978546
0.97878