# vtk DataFile Version 2.0
LBE mesh
ASCII
DATASET STRUCTURED_POINTS
DIMENSIONS 400 100 1
ASPECT_RATIO 1 1 1
ORIGIN 0 0 0
POINT_DATA 40000
SCALARS rho double 1
LOOKUP_TABLE default
1.09041
1.15984
1.18019
1.18454
1.1867
1.18854
1.18987
1.19073
1.19132
1.19176
1.19209
1.19235
1.19255
1.19271
1.19283
1.19293
1.19301
1.19307
1.19311
1.19314
1.19316
1.19317
1.19317
1.19317
1.19315
1.19313
1.19311
1.19308
1.19304
1.193
1.19296
1.19291
1.19286
1.19281
1.19276
1.1927
1.19264
1.19258
1.19251
1.19245
1.19239
1.19232
1.19226
1.19219
1.19213
1.19206
1.192
1.19194
1.19188
1.19182
1.19177
1.19172
1.19167
1.19162
1.19158
1.19155
1.19152
1.19149
1.19147
1.19146
1.19145
1.19146
1.19146
1.19148
1.1915
1.19153
1.19157
1.19162
1.19167
1.19174
1.19181
1.19189
1.19198
1.19208
1.19218
1.1923
1.19242
1.19255
1.19269
1.19284
1.19299
1.19316
1.19332
1.1935
1.19368
1.19386
1.19405
1.19425
1.19445
1.19465
1.19486
1.19507
1.19528
1.19549
1.1957
1.19591
1.19612
1.19632
1.19653
1.19673
1.19693
1.19712
1.19731
1.19749
1.19766
1.19783
1.19799
1.19814
1.19828
1.19842
1.19854
1.19865
1.19876
1.19885
1.19893
1.19899
1.19905
1.19909
1.19912
1.19914
1.19915
1.19915
1.19913
1.19911
1.19907
1.19902
1.19897
1.1989
1.19883
1.19875
1.19867
1.19857
1.19848
1.19837
1.19827
1.19816
1.19804
1.19793
1.19781
1.19769
1.19757
1.19745
1.19733
1.19721
1.19709
1.19698
1.19686
1.19675
1.19663
1.19652
1.19641
1.19631
1.19621
1.19611
1.19601
1.19591
1.19582
1.19573
1.19565
1.19557
1.19549
1.19541
1.19534
1.19527
1.1952
1.19514
1.19508
1.19502
1.19496
1.19491
1.19486
1.19481
1.19477
1.19472
1.19468
1.19465
1.19461
1.19458
1.19454
1.19451
1.19448
1.19445
1.19442
1.1944
1.19437
1.19435
1.19432
1.1943
1.19427
1.19425
1.19423
1.1942
1.19418
1.19415
1.19413
1.1941
1.19407
1.19405
1.19402
1.19399
1.19396
1.19393
1.19389
1.19386
1.19382
1.19379
1.19375
1.19371
1.19367
1.19363
1.19359
1.19355
1.1935
1.19346
1.19342
1.19337
1.19333
1.19328
1.19324
1.1932
1.19315
1.19311
1.19307
1.19303
1.193
1.19296
1.19293
1.1929
1.19287
1.19285
1.19283
1.19282
1.19281
1.1928
1.1928
1.19281
1.19282
1.19284
1.19286
1.19289
1.19293
1.19298
1.19303
1.19309
1.19316
1.19324
1.19333
1.19343
1.19353
1.19365
1.19378
1.19391
1.19406
1.19421
1.19438
1.19455
1.19474
1.19493
1.19513
1.19535
1.19557
1.1958
1.19604
1.19628
1.19654
1.1968
1.19706
1.19733
1.19761
1.19789
1.19817
1.19846
1.19875
1.19904
1.19932
1.19961
1.1999
1.20018
1.20046
1.20074
1.20101
1.20127
1.20153
1.20178
1.20203
1.20227
1.2025
1.20272
1.20293
1.20313
1.20333
1.20351
1.20369
1.20386
1.20402
1.20418
1.20433
1.20446
1.2046
1.20472
1.20484
1.20496
1.20507
1.20517
1.20527
1.20536
1.20545
1.20554
1.20562
1.2057
1.20577
1.20584
1.20591
1.20597
1.20603
1.20609
1.20614
1.20619
1.20623
1.20627
1.20631
1.20634
1.20637
1.2064
1.20642
1.20644
1.20645
1.20646
1.20647
1.20647
1.20648
1.20648
1.20648
1.20647
1.20647
1.20647
1.20647
1.20647
1.20647
1.20648
1.20649
1.2065
1.20652
1.20655
1.20658
1.20662
1.20668
1.20674
1.20681
1.2069
1.207
1.20711
1.20725
1.20739
1.20756
1.20774
1.20794
1.20817
1.20841
1.20868
1.20897
1.20929
1.20963
1.20999
1.21039
1.21081
1.21126
1.21175
1.21226
1.21281
1.21339
1.214
1.21465
1.21534
1.21607
1.21684
1.21766
1.21852
1.21943
1.2204
1.22142
1.22251
1.22367
1.22491
1.22624
1.22767
1.22921
1.2309
1.23275
1.2348
1.23709
1.2397
1.24272
1.24629
1.25064
1.25626
1.26405
1.27498
1.29166
1.3267
1.14816
1.15838
1.17
1.17934
1.18421
1.18672
1.1883
1.18944
1.19028
1.1909
1.19137
1.19173
1.19202
1.19224
1.19242
1.19257
1.19268
1.19277
1.19284
1.1929
1.19294
1.19296
1.19298
1.19299
1.19299
1.19298
1.19296
1.19294
1.19291
1.19288
1.19284
1.1928
1.19276
1.19271
1.19266
1.19261
1.19255
1.1925
1.19244
1.19238
1.19232
1.19225
1.19219
1.19213
1.19207
1.19201
1.19195
1.19189
1.19183
1.19178
1.19172
1.19168
1.19163
1.19159
1.19155
1.19152
1.19149
1.19147
1.19145
1.19144
1.19144
1.19144
1.19145
1.19147
1.19149
1.19152
1.19156
1.19161
1.19167
1.19174
1.19181
1.19189
1.19198
1.19209
1.19219
1.19231
1.19243
1.19257
1.19271
1.19286
1.19301
1.19317
1.19334
1.19352
1.1937
1.19389
1.19408
1.19427
1.19447
1.19468
1.19488
1.19509
1.1953
1.19551
1.19572
1.19593
1.19614
1.19634
1.19655
1.19675
1.19694
1.19713
1.19732
1.1975
1.19767
1.19784
1.198
1.19815
1.19829
1.19842
1.19854
1.19865
1.19875
1.19884
1.19892
1.19898
1.19904
1.19908
1.19911
1.19912
1.19913
1.19913
1.19911
1.19908
1.19904
1.199
1.19894
1.19888
1.1988
1.19872
1.19864
1.19855
1.19845
1.19835
1.19824
1.19813
1.19802
1.1979
1.19778
1.19767
1.19755
1.19743
1.19731
1.19719
1.19707
1.19696
1.19684
1.19673
1.19662
1.19651
1.1964
1.1963
1.19619
1.19609
1.196
1.1959
1.19581
1.19572
1.19564
1.19556
1.19548
1.1954
1.19533
1.19526
1.1952
1.19513
1.19507
1.19501
1.19496
1.19491
1.19486
1.19481
1.19477
1.19472
1.19468
1.19464
1.19461
1.19457
1.19454
1.19451
1.19448
1.19445
1.19442
1.1944
1.19437
1.19435
1.19432
1.1943
1.19427
1.19425
1.19423
1.1942
1.19418
1.19415
1.19413
1.1941
1.19407
1.19405
1.19402
1.19399
1.19396
1.19393
1.19389
1.19386
1.19382
1.19379
1.19375
1.19371
1.19367
1.19363
1.19359
1.19355
1.1935
1.19346
1.19342
1.19337
1.19333
1.19329
1.19324
1.1932
1.19316
1.19312
1.19308
1.19304
1.193
1.19297
1.19294
1.19291
1.19288
1.19286
1.19284
1.19283
1.19282
1.19281
1.19281
1.19282
1.19283
1.19285
1.19288
1.19291
1.19295
1.19299
1.19305
1.19311
1.19318
1.19326
1.19335
1.19345
1.19356
1.19368
1.1938
1.19394
1.19409
1.19424
1.19441
1.19458
1.19477
1.19496
1.19517
1.19538
1.1956
1.19583
1.19607
1.19632
1.19657
1.19683
1.1971
1.19737
1.19765
1.19793
1.19821
1.19849
1.19878
1.19907
1.19936
1.19964
1.19993
1.20021
1.20049
1.20076
1.20103
1.20129
1.20155
1.2018
1.20204
1.20228
1.20251
1.20273
1.20294
1.20314
1.20333
1.20352
1.20369
1.20386
1.20402
1.20418
1.20432
1.20446
1.20459
1.20472
1.20484
1.20495
1.20506
1.20516
1.20526
1.20536
1.20545
1.20553
1.20561
1.20569
1.20576
1.20583
1.2059
1.20596
1.20602
1.20608
1.20613
1.20618
1.20622
1.20626
1.2063
1.20633
1.20636
1.20638
1.20641
1.20642
1.20644
1.20645
1.20646
1.20646
1.20646
1.20646
1.20646
1.20646
1.20646
1.20646
1.20646
1.20646
1.20646
1.20647
1.20648
1.20649
1.20652
1.20654
1.20658
1.20662
1.20668
1.20674
1.20682
1.20691
1.20701
1.20713
1.20726
1.20741
1.20758
1.20777
1.20798
1.2082
1.20845
1.20872
1.20902
1.20934
1.20968
1.21005
1.21045
1.21088
1.21133
1.21182
1.21234
1.21289
1.21348
1.2141
1.21475
1.21545
1.21618
1.21696
1.21778
1.21866
1.21958
1.22055
1.22159
1.22269
1.22387
1.22512
1.22647
1.22793
1.22951
1.23124
1.23314
1.23526
1.23764
1.24037
1.24355
1.24735
1.25204
1.25796
1.26571
1.27713
1.2969
1.32776
1.16743
1.16611
1.17309
1.1789
1.18258
1.18521
1.18711
1.18846
1.18943
1.19017
1.19073
1.19118
1.19153
1.19181
1.19204
1.19222
1.19237
1.19249
1.19258
1.19266
1.19272
1.19276
1.19279
1.19282
1.19283
1.19283
1.19282
1.19281
1.19279
1.19276
1.19273
1.1927
1.19266
1.19262
1.19257
1.19252
1.19247
1.19242
1.19236
1.1923
1.19225
1.19219
1.19213
1.19207
1.19201
1.19195
1.19189
1.19184
1.19178
1.19173
1.19168
1.19163
1.19159
1.19155
1.19151
1.19148
1.19146
1.19144
1.19142
1.19141
1.19141
1.19141
1.19143
1.19145
1.19147
1.19151
1.19155
1.1916
1.19166
1.19173
1.1918
1.19189
1.19198
1.19208
1.19219
1.19231
1.19244
1.19257
1.19271
1.19286
1.19302
1.19318
1.19335
1.19353
1.19371
1.1939
1.19409
1.19429
1.19449
1.19469
1.1949
1.19511
1.19532
1.19553
1.19574
1.19595
1.19616
1.19636
1.19657
1.19677
1.19696
1.19715
1.19734
1.19751
1.19769
1.19785
1.19801
1.19816
1.1983
1.19843
1.19855
1.19865
1.19875
1.19884
1.19892
1.19898
1.19903
1.19907
1.1991
1.19911
1.19912
1.19911
1.19909
1.19906
1.19903
1.19898
1.19892
1.19885
1.19878
1.1987
1.19861
1.19852
1.19842
1.19832
1.19821
1.1981
1.19799
1.19788
1.19776
1.19764
1.19753
1.19741
1.19729
1.19717
1.19705
1.19694
1.19682
1.19671
1.1966
1.19649
1.19639
1.19628
1.19618
1.19608
1.19599
1.19589
1.1958
1.19572
1.19563
1.19555
1.19547
1.1954
1.19533
1.19526
1.19519
1.19513
1.19507
1.19501
1.19496
1.1949
1.19486
1.19481
1.19476
1.19472
1.19468
1.19465
1.19461
1.19458
1.19454
1.19451
1.19448
1.19445
1.19443
1.1944
1.19437
1.19435
1.19432
1.1943
1.19428
1.19425
1.19423
1.1942
1.19418
1.19416
1.19413
1.1941
1.19408
1.19405
1.19402
1.19399
1.19396
1.19393
1.19389
1.19386
1.19383
1.19379
1.19375
1.19371
1.19367
1.19363
1.19359
1.19355
1.19351
1.19346
1.19342
1.19338
1.19333
1.19329
1.19324
1.1932
1.19316
1.19312
1.19308
1.19304
1.19301
1.19297
1.19294
1.19291
1.19289
1.19287
1.19285
1.19283
1.19282
1.19282
1.19282
1.19283
1.19284
1.19286
1.19289
1.19292
1.19296
1.19301
1.19306
1.19313
1.1932
1.19328
1.19337
1.19347
1.19358
1.19369
1.19382
1.19396
1.19411
1.19426
1.19443
1.19461
1.19479
1.19499
1.1952
1.19541
1.19563
1.19586
1.1961
1.19635
1.1966
1.19686
1.19713
1.1974
1.19768
1.19796
1.19824
1.19853
1.19881
1.1991
1.19939
1.19967
1.19996
1.20024
1.20052
1.20079
1.20106
1.20132
1.20158
1.20182
1.20207
1.2023
1.20253
1.20274
1.20295
1.20315
1.20334
1.20353
1.2037
1.20387
1.20403
1.20418
1.20433
1.20447
1.2046
1.20472
1.20484
1.20495
1.20506
1.20516
1.20526
1.20535
1.20544
1.20553
1.20561
1.20569
1.20576
1.20583
1.2059
1.20596
1.20602
1.20607
1.20612
1.20617
1.20622
1.20626
1.20629
1.20632
1.20635
1.20638
1.2064
1.20641
1.20643
1.20644
1.20644
1.20645
1.20645
1.20645
1.20645
1.20645
1.20645
1.20644
1.20644
1.20644
1.20645
1.20646
1.20647
1.20648
1.2065
1.20653
1.20657
1.20662
1.20667
1.20674
1.20682
1.20691
1.20701
1.20713
1.20727
1.20742
1.20759
1.20778
1.20799
1.20822
1.20847
1.20874
1.20904
1.20936
1.20971
1.21008
1.21049
1.21092
1.21138
1.21187
1.21239
1.21294
1.21353
1.21416
1.21482
1.21552
1.21626
1.21704
1.21787
1.21874
1.21967
1.22065
1.22169
1.2228
1.22398
1.22525
1.22661
1.22807
1.22966
1.2314
1.23332
1.23545
1.23785
1.24059
1.24377
1.24753
1.25207
1.25776
1.26513
1.27441
1.2845
1.29367
1.17553
1.17465
1.17689
1.17958
1.18248
1.18481
1.18652
1.18781
1.18882
1.18961
1.19022
1.19072
1.19111
1.19143
1.1917
1.19191
1.19209
1.19223
1.19235
1.19244
1.19252
1.19257
1.19262
1.19265
1.19267
1.19268
1.19268
1.19268
1.19267
1.19265
1.19262
1.19259
1.19256
1.19252
1.19248
1.19244
1.19239
1.19234
1.19228
1.19223
1.19218
1.19212
1.19206
1.192
1.19195
1.19189
1.19183
1.19178
1.19173
1.19168
1.19163
1.19158
1.19154
1.1915
1.19147
1.19144
1.19142
1.1914
1.19138
1.19138
1.19138
1.19138
1.1914
1.19142
1.19145
1.19148
1.19153
1.19158
1.19164
1.19171
1.19179
1.19187
1.19197
1.19207
1.19218
1.1923
1.19243
1.19257
1.19271
1.19286
1.19302
1.19319
1.19336
1.19354
1.19372
1.19391
1.1941
1.1943
1.1945
1.19471
1.19491
1.19512
1.19533
1.19555
1.19576
1.19597
1.19617
1.19638
1.19658
1.19678
1.19698
1.19717
1.19735
1.19753
1.1977
1.19787
1.19802
1.19817
1.19831
1.19844
1.19856
1.19867
1.19876
1.19885
1.19892
1.19898
1.19903
1.19907
1.1991
1.19911
1.19911
1.1991
1.19908
1.19905
1.19901
1.19896
1.1989
1.19884
1.19876
1.19868
1.19859
1.1985
1.1984
1.1983
1.19819
1.19808
1.19797
1.19785
1.19774
1.19762
1.1975
1.19739
1.19727
1.19715
1.19703
1.19692
1.19681
1.19669
1.19658
1.19648
1.19637
1.19627
1.19617
1.19607
1.19597
1.19588
1.19579
1.19571
1.19562
1.19554
1.19547
1.19539
1.19532
1.19525
1.19519
1.19512
1.19507
1.19501
1.19496
1.1949
1.19486
1.19481
1.19477
1.19472
1.19468
1.19465
1.19461
1.19458
1.19455
1.19452
1.19449
1.19446
1.19443
1.1944
1.19438
1.19435
1.19433
1.19431
1.19428
1.19426
1.19423
1.19421
1.19419
1.19416
1.19414
1.19411
1.19408
1.19405
1.19403
1.194
1.19396
1.19393
1.1939
1.19387
1.19383
1.19379
1.19376
1.19372
1.19368
1.19364
1.1936
1.19355
1.19351
1.19347
1.19342
1.19338
1.19334
1.19329
1.19325
1.19321
1.19316
1.19312
1.19308
1.19305
1.19301
1.19298
1.19294
1.19292
1.19289
1.19287
1.19285
1.19284
1.19283
1.19283
1.19283
1.19283
1.19285
1.19287
1.19289
1.19293
1.19297
1.19301
1.19307
1.19313
1.19321
1.19329
1.19338
1.19348
1.19359
1.19371
1.19384
1.19397
1.19412
1.19428
1.19445
1.19463
1.19481
1.19501
1.19522
1.19543
1.19566
1.19589
1.19613
1.19638
1.19663
1.19689
1.19716
1.19743
1.19771
1.19799
1.19827
1.19856
1.19885
1.19913
1.19942
1.19971
1.19999
1.20027
1.20055
1.20082
1.20109
1.20135
1.20161
1.20185
1.2021
1.20233
1.20255
1.20277
1.20298
1.20318
1.20337
1.20355
1.20372
1.20389
1.20405
1.2042
1.20434
1.20448
1.2046
1.20473
1.20485
1.20496
1.20506
1.20517
1.20526
1.20536
1.20545
1.20553
1.20561
1.20569
1.20576
1.20583
1.2059
1.20596
1.20602
1.20607
1.20612
1.20617
1.20621
1.20625
1.20629
1.20632
1.20635
1.20637
1.20639
1.20641
1.20642
1.20643
1.20643
1.20644
1.20644
1.20644
1.20644
1.20643
1.20643
1.20643
1.20643
1.20643
1.20643
1.20644
1.20645
1.20647
1.20649
1.20652
1.20655
1.2066
1.20666
1.20672
1.2068
1.20689
1.207
1.20712
1.20726
1.20741
1.20758
1.20777
1.20798
1.20821
1.20847
1.20874
1.20904
1.20936
1.20971
1.21009
1.2105
1.21093
1.21139
1.21188
1.21241
1.21296
1.21355
1.21418
1.21484
1.21555
1.21629
1.21707
1.2179
1.21878
1.2197
1.22069
1.22173
1.22284
1.22402
1.22528
1.22663
1.22809
1.22967
1.2314
1.23329
1.23539
1.23774
1.2404
1.24344
1.24698
1.25112
1.25599
1.26164
1.26788
1.27295
1.27302
1.17983
1.17937
1.17998
1.18147
1.18331
1.18495
1.18636
1.18753
1.18847
1.18924
1.18986
1.19036
1.19078
1.19112
1.1914
1.19164
1.19183
1.192
1.19213
1.19224
1.19233
1.1924
1.19245
1.1925
1.19252
1.19254
1.19255
1.19256
1.19255
1.19254
1.19252
1.19249
1.19246
1.19243
1.19239
1.19235
1.19231
1.19226
1.19221
1.19216
1.19211
1.19205
1.192
1.19194
1.19189
1.19183
1.19178
1.19172
1.19167
1.19162
1.19158
1.19153
1.19149
1.19145
1.19142
1.19139
1.19137
1.19135
1.19134
1.19134
1.19134
1.19134
1.19136
1.19138
1.19141
1.19145
1.19149
1.19155
1.19161
1.19168
1.19176
1.19185
1.19195
1.19205
1.19217
1.19229
1.19242
1.19256
1.1927
1.19285
1.19301
1.19318
1.19335
1.19353
1.19372
1.19391
1.1941
1.1943
1.19451
1.19472
1.19492
1.19513
1.19535
1.19556
1.19577
1.19598
1.19619
1.1964
1.1966
1.1968
1.197
1.19719
1.19737
1.19755
1.19772
1.19789
1.19804
1.19819
1.19833
1.19846
1.19858
1.19868
1.19878
1.19886
1.19894
1.199
1.19904
1.19908
1.1991
1.19912
1.19912
1.19911
1.19908
1.19905
1.19901
1.19896
1.19889
1.19883
1.19875
1.19867
1.19858
1.19848
1.19838
1.19828
1.19817
1.19806
1.19795
1.19783
1.19772
1.1976
1.19748
1.19736
1.19725
1.19713
1.19701
1.1969
1.19679
1.19668
1.19657
1.19646
1.19635
1.19625
1.19615
1.19606
1.19596
1.19587
1.19578
1.1957
1.19561
1.19554
1.19546
1.19539
1.19532
1.19525
1.19518
1.19512
1.19506
1.19501
1.19495
1.1949
1.19486
1.19481
1.19477
1.19473
1.19469
1.19465
1.19462
1.19458
1.19455
1.19452
1.19449
1.19446
1.19444
1.19441
1.19439
1.19436
1.19434
1.19431
1.19429
1.19427
1.19424
1.19422
1.19419
1.19417
1.19414
1.19412
1.19409
1.19406
1.19403
1.194
1.19397
1.19394
1.19391
1.19387
1.19384
1.1938
1.19376
1.19372
1.19368
1.19364
1.1936
1.19356
1.19352
1.19347
1.19343
1.19338
1.19334
1.1933
1.19325
1.19321
1.19317
1.19313
1.19309
1.19305
1.19301
1.19298
1.19295
1.19292
1.19289
1.19287
1.19285
1.19284
1.19283
1.19283
1.19283
1.19284
1.19285
1.19287
1.19289
1.19293
1.19297
1.19302
1.19307
1.19314
1.19321
1.19329
1.19338
1.19348
1.19359
1.19371
1.19384
1.19398
1.19413
1.19429
1.19446
1.19464
1.19483
1.19502
1.19523
1.19545
1.19567
1.19591
1.19615
1.1964
1.19665
1.19692
1.19718
1.19746
1.19774
1.19802
1.1983
1.19859
1.19888
1.19917
1.19946
1.19974
1.20003
1.20031
1.20059
1.20086
1.20113
1.20139
1.20164
1.20189
1.20213
1.20236
1.20259
1.2028
1.20301
1.2032
1.20339
1.20357
1.20375
1.20391
1.20407
1.20421
1.20436
1.20449
1.20462
1.20474
1.20486
1.20497
1.20507
1.20517
1.20527
1.20536
1.20545
1.20553
1.20561
1.20569
1.20576
1.20583
1.2059
1.20596
1.20602
1.20607
1.20612
1.20617
1.20621
1.20625
1.20628
1.20632
1.20634
1.20637
1.20638
1.2064
1.20641
1.20642
1.20643
1.20643
1.20643
1.20643
1.20642
1.20642
1.20642
1.20641
1.20641
1.20641
1.20641
1.20642
1.20643
1.20644
1.20646
1.20649
1.20653
1.20657
1.20663
1.2067
1.20678
1.20687
1.20697
1.20709
1.20723
1.20738
1.20756
1.20775
1.20796
1.20819
1.20844
1.20872
1.20902
1.20934
1.20969
1.21007
1.21048
1.21091
1.21137
1.21187
1.21239
1.21295
1.21354
1.21417
1.21483
1.21553
1.21628
1.21706
1.21789
1.21876
1.21969
1.22066
1.2217
1.2228
1.22397
1.22522
1.22656
1.22799
1.22954
1.23123
1.23307
1.23509
1.23733
1.23983
1.24264
1.24581
1.24937
1.25328
1.25731
1.26091
1.26336
1.26269
1.18279
1.18229
1.18244
1.18325
1.18432
1.18547
1.18656
1.18752
1.18834
1.18904
1.18963
1.19012
1.19053
1.19088
1.19117
1.19141
1.19162
1.19179
1.19194
1.19206
1.19215
1.19224
1.1923
1.19235
1.19239
1.19241
1.19243
1.19244
1.19244
1.19243
1.19241
1.1924
1.19237
1.19234
1.19231
1.19227
1.19223
1.19218
1.19213
1.19209
1.19203
1.19198
1.19193
1.19188
1.19182
1.19177
1.19171
1.19166
1.19161
1.19157
1.19152
1.19148
1.19144
1.1914
1.19137
1.19134
1.19132
1.1913
1.19129
1.19129
1.19129
1.1913
1.19131
1.19134
1.19137
1.19141
1.19146
1.19151
1.19158
1.19165
1.19173
1.19182
1.19192
1.19203
1.19214
1.19226
1.19239
1.19253
1.19268
1.19284
1.193
1.19317
1.19334
1.19352
1.19371
1.1939
1.1941
1.1943
1.19451
1.19472
1.19493
1.19514
1.19536
1.19557
1.19578
1.196
1.19621
1.19642
1.19662
1.19682
1.19702
1.19721
1.1974
1.19757
1.19775
1.19791
1.19807
1.19822
1.19835
1.19848
1.1986
1.19871
1.1988
1.19888
1.19895
1.19901
1.19906
1.1991
1.19912
1.19913
1.19913
1.19911
1.19909
1.19905
1.19901
1.19895
1.19889
1.19882
1.19874
1.19865
1.19856
1.19847
1.19837
1.19826
1.19815
1.19804
1.19793
1.19781
1.1977
1.19758
1.19746
1.19734
1.19723
1.19711
1.19699
1.19688
1.19677
1.19666
1.19655
1.19644
1.19634
1.19624
1.19614
1.19604
1.19595
1.19586
1.19577
1.19569
1.19561
1.19553
1.19545
1.19538
1.19531
1.19524
1.19518
1.19512
1.19506
1.19501
1.19496
1.19491
1.19486
1.19481
1.19477
1.19473
1.19469
1.19466
1.19462
1.19459
1.19456
1.19453
1.1945
1.19447
1.19445
1.19442
1.1944
1.19437
1.19435
1.19432
1.1943
1.19428
1.19425
1.19423
1.19421
1.19418
1.19415
1.19413
1.1941
1.19407
1.19404
1.19401
1.19398
1.19395
1.19392
1.19388
1.19385
1.19381
1.19377
1.19373
1.19369
1.19365
1.19361
1.19357
1.19352
1.19348
1.19343
1.19339
1.19335
1.1933
1.19326
1.19321
1.19317
1.19313
1.19309
1.19305
1.19301
1.19298
1.19295
1.19292
1.19289
1.19287
1.19285
1.19284
1.19283
1.19283
1.19283
1.19284
1.19285
1.19287
1.19289
1.19293
1.19297
1.19302
1.19307
1.19314
1.19321
1.19329
1.19338
1.19348
1.19359
1.19371
1.19384
1.19398
1.19413
1.19429
1.19446
1.19464
1.19483
1.19503
1.19524
1.19546
1.19568
1.19592
1.19616
1.19641
1.19667
1.19694
1.19721
1.19748
1.19776
1.19805
1.19833
1.19862
1.19891
1.1992
1.19949
1.19978
1.20007
1.20035
1.20063
1.2009
1.20117
1.20143
1.20169
1.20193
1.20217
1.2024
1.20263
1.20284
1.20305
1.20324
1.20343
1.20361
1.20378
1.20394
1.20409
1.20424
1.20438
1.20451
1.20464
1.20476
1.20487
1.20498
1.20509
1.20518
1.20528
1.20537
1.20546
1.20554
1.20562
1.20569
1.20577
1.20584
1.2059
1.20596
1.20602
1.20607
1.20612
1.20617
1.20621
1.20625
1.20629
1.20632
1.20634
1.20636
1.20638
1.2064
1.20641
1.20641
1.20642
1.20642
1.20642
1.20642
1.20641
1.20641
1.2064
1.2064
1.20639
1.20639
1.20639
1.20639
1.2064
1.20642
1.20644
1.20646
1.2065
1.20654
1.2066
1.20666
1.20674
1.20683
1.20693
1.20705
1.20719
1.20734
1.20751
1.2077
1.20791
1.20815
1.2084
1.20868
1.20898
1.2093
1.20965
1.21003
1.21043
1.21087
1.21133
1.21182
1.21235
1.21291
1.2135
1.21412
1.21479
1.21548
1.21622
1.217
1.21783
1.2187
1.21961
1.22058
1.22161
1.22269
1.22385
1.22507
1.22638
1.22778
1.22928
1.23091
1.23267
1.23458
1.23667
1.23897
1.24148
1.24422
1.24713
1.25012
1.25293
1.2551
1.25618
1.25591
1.18483
1.1843
1.1843
1.1847
1.18535
1.18614
1.18694
1.1877
1.18839
1.18899
1.18952
1.18998
1.19037
1.19071
1.19099
1.19124
1.19145
1.19162
1.19177
1.1919
1.192
1.19209
1.19216
1.19222
1.19226
1.19229
1.19231
1.19233
1.19233
1.19233
1.19232
1.1923
1.19228
1.19225
1.19222
1.19219
1.19215
1.19211
1.19206
1.19201
1.19196
1.19191
1.19186
1.19181
1.19176
1.19171
1.19165
1.1916
1.19155
1.19151
1.19146
1.19142
1.19138
1.19135
1.19131
1.19129
1.19127
1.19125
1.19124
1.19124
1.19124
1.19125
1.19127
1.19129
1.19132
1.19136
1.19141
1.19147
1.19153
1.19161
1.19169
1.19178
1.19188
1.19199
1.19211
1.19223
1.19236
1.19251
1.19265
1.19281
1.19297
1.19315
1.19332
1.19351
1.1937
1.19389
1.19409
1.1943
1.1945
1.19471
1.19493
1.19514
1.19536
1.19558
1.19579
1.19601
1.19622
1.19643
1.19664
1.19684
1.19704
1.19723
1.19742
1.1976
1.19777
1.19794
1.19809
1.19824
1.19838
1.19851
1.19863
1.19873
1.19883
1.19891
1.19898
1.19904
1.19908
1.19912
1.19914
1.19914
1.19914
1.19912
1.1991
1.19906
1.19901
1.19896
1.19889
1.19882
1.19873
1.19865
1.19855
1.19846
1.19835
1.19825
1.19814
1.19802
1.19791
1.19779
1.19768
1.19756
1.19744
1.19732
1.19721
1.19709
1.19697
1.19686
1.19675
1.19664
1.19653
1.19643
1.19632
1.19622
1.19612
1.19603
1.19594
1.19585
1.19576
1.19568
1.1956
1.19552
1.19545
1.19538
1.19531
1.19524
1.19518
1.19512
1.19506
1.19501
1.19496
1.19491
1.19486
1.19482
1.19478
1.19474
1.1947
1.19467
1.19463
1.1946
1.19457
1.19454
1.19451
1.19448
1.19446
1.19443
1.19441
1.19438
1.19436
1.19434
1.19431
1.19429
1.19427
1.19424
1.19422
1.19419
1.19417
1.19414
1.19411
1.19409
1.19406
1.19403
1.194
1.19396
1.19393
1.1939
1.19386
1.19382
1.19378
1.19374
1.1937
1.19366
1.19362
1.19358
1.19353
1.19349
1.19344
1.1934
1.19335
1.19331
1.19326
1.19322
1.19318
1.19313
1.19309
1.19305
1.19302
1.19298
1.19295
1.19292
1.19289
1.19287
1.19285
1.19284
1.19283
1.19282
1.19283
1.19283
1.19284
1.19286
1.19289
1.19292
1.19296
1.19301
1.19307
1.19313
1.1932
1.19329
1.19338
1.19348
1.19359
1.19371
1.19384
1.19398
1.19413
1.19429
1.19446
1.19464
1.19483
1.19503
1.19524
1.19546
1.19569
1.19592
1.19617
1.19642
1.19668
1.19695
1.19722
1.1975
1.19778
1.19807
1.19836
1.19865
1.19894
1.19924
1.19953
1.19982
1.20011
1.20039
1.20067
1.20095
1.20122
1.20148
1.20173
1.20198
1.20222
1.20245
1.20267
1.20289
1.20309
1.20328
1.20347
1.20365
1.20381
1.20397
1.20413
1.20427
1.20441
1.20454
1.20466
1.20478
1.20489
1.205
1.2051
1.2052
1.20529
1.20538
1.20547
1.20555
1.20563
1.2057
1.20577
1.20584
1.20591
1.20597
1.20602
1.20608
1.20613
1.20617
1.20622
1.20625
1.20629
1.20632
1.20634
1.20637
1.20638
1.2064
1.20641
1.20641
1.20641
1.20641
1.20641
1.20641
1.2064
1.20639
1.20638
1.20638
1.20637
1.20637
1.20636
1.20637
1.20637
1.20638
1.2064
1.20643
1.20646
1.2065
1.20655
1.20662
1.20669
1.20678
1.20688
1.207
1.20714
1.20729
1.20746
1.20765
1.20786
1.20809
1.20834
1.20861
1.20891
1.20924
1.20959
1.20996
1.21037
1.2108
1.21126
1.21175
1.21227
1.21283
1.21342
1.21404
1.2147
1.2154
1.21613
1.2169
1.21772
1.21858
1.21948
1.22044
1.22145
1.22251
1.22364
1.22484
1.22611
1.22746
1.2289
1.23045
1.23211
1.23389
1.23581
1.23787
1.24007
1.24237
1.24471
1.24695
1.24888
1.25026
1.25079
1.25055
1.18625
1.18579
1.1857
1.18588
1.18628
1.18681
1.18739
1.18798
1.18854
1.18905
1.18951
1.18992
1.19028
1.19059
1.19087
1.19111
1.19131
1.19149
1.19164
1.19176
1.19187
1.19196
1.19204
1.1921
1.19214
1.19218
1.19221
1.19222
1.19223
1.19223
1.19222
1.19221
1.19219
1.19217
1.19214
1.19211
1.19207
1.19203
1.19199
1.19194
1.19189
1.19185
1.19179
1.19174
1.19169
1.19164
1.19159
1.19154
1.19149
1.19145
1.1914
1.19136
1.19132
1.19129
1.19126
1.19123
1.19121
1.19119
1.19118
1.19118
1.19118
1.1912
1.19121
1.19124
1.19127
1.19131
1.19136
1.19142
1.19149
1.19156
1.19165
1.19174
1.19184
1.19195
1.19207
1.19219
1.19233
1.19247
1.19262
1.19278
1.19295
1.19312
1.1933
1.19349
1.19368
1.19387
1.19408
1.19428
1.19449
1.19471
1.19492
1.19514
1.19536
1.19558
1.1958
1.19602
1.19623
1.19644
1.19665
1.19686
1.19706
1.19725
1.19744
1.19762
1.1978
1.19796
1.19812
1.19827
1.19841
1.19854
1.19866
1.19876
1.19886
1.19894
1.19901
1.19907
1.19911
1.19914
1.19916
1.19917
1.19916
1.19914
1.19911
1.19907
1.19902
1.19896
1.19889
1.19881
1.19873
1.19864
1.19855
1.19845
1.19834
1.19823
1.19812
1.19801
1.19789
1.19777
1.19766
1.19754
1.19742
1.1973
1.19719
1.19707
1.19696
1.19684
1.19673
1.19662
1.19651
1.19641
1.19631
1.19621
1.19611
1.19602
1.19593
1.19584
1.19575
1.19567
1.19559
1.19552
1.19544
1.19537
1.1953
1.19524
1.19518
1.19512
1.19506
1.19501
1.19496
1.19491
1.19487
1.19483
1.19478
1.19475
1.19471
1.19467
1.19464
1.19461
1.19458
1.19455
1.19452
1.1945
1.19447
1.19445
1.19442
1.1944
1.19438
1.19435
1.19433
1.19431
1.19428
1.19426
1.19424
1.19421
1.19418
1.19416
1.19413
1.1941
1.19407
1.19404
1.19401
1.19398
1.19394
1.19391
1.19387
1.19384
1.1938
1.19376
1.19372
1.19367
1.19363
1.19359
1.19354
1.1935
1.19345
1.19341
1.19336
1.19332
1.19327
1.19323
1.19318
1.19314
1.1931
1.19306
1.19302
1.19298
1.19295
1.19292
1.19289
1.19287
1.19285
1.19284
1.19283
1.19282
1.19282
1.19283
1.19284
1.19286
1.19288
1.19291
1.19295
1.193
1.19306
1.19312
1.19319
1.19327
1.19337
1.19347
1.19358
1.1937
1.19383
1.19397
1.19412
1.19428
1.19445
1.19463
1.19482
1.19502
1.19523
1.19546
1.19568
1.19592
1.19617
1.19643
1.19669
1.19696
1.19723
1.19751
1.1978
1.19809
1.19838
1.19868
1.19897
1.19927
1.19956
1.19986
1.20015
1.20044
1.20072
1.201
1.20127
1.20153
1.20179
1.20204
1.20227
1.2025
1.20273
1.20294
1.20314
1.20333
1.20352
1.20369
1.20386
1.20401
1.20416
1.2043
1.20444
1.20457
1.20469
1.2048
1.20491
1.20502
1.20512
1.20522
1.20531
1.2054
1.20548
1.20556
1.20564
1.20571
1.20578
1.20585
1.20591
1.20597
1.20603
1.20609
1.20614
1.20618
1.20622
1.20626
1.20629
1.20632
1.20635
1.20637
1.20638
1.2064
1.2064
1.20641
1.20641
1.20641
1.2064
1.2064
1.20639
1.20638
1.20637
1.20636
1.20635
1.20634
1.20634
1.20634
1.20634
1.20635
1.20636
1.20638
1.20642
1.20645
1.2065
1.20657
1.20664
1.20672
1.20683
1.20694
1.20707
1.20722
1.20739
1.20758
1.20778
1.20801
1.20826
1.20854
1.20883
1.20915
1.2095
1.20988
1.21028
1.21071
1.21117
1.21165
1.21217
1.21273
1.21331
1.21393
1.21458
1.21527
1.216
1.21676
1.21757
1.21841
1.21931
1.22024
1.22123
1.22227
1.22337
1.22453
1.22575
1.22704
1.22842
1.22987
1.23142
1.23306
1.23479
1.23662
1.23851
1.24042
1.24227
1.24395
1.24531
1.2462
1.24649
1.24616
1.18729
1.18691
1.18677
1.18685
1.18709
1.18744
1.18786
1.18831
1.18875
1.18918
1.18957
1.18993
1.19025
1.19054
1.19079
1.19102
1.19121
1.19138
1.19153
1.19166
1.19176
1.19185
1.19193
1.19199
1.19204
1.19208
1.19211
1.19213
1.19214
1.19214
1.19214
1.19213
1.19211
1.19209
1.19206
1.19203
1.192
1.19196
1.19192
1.19187
1.19183
1.19178
1.19173
1.19168
1.19163
1.19158
1.19153
1.19148
1.19143
1.19139
1.19134
1.1913
1.19126
1.19123
1.1912
1.19117
1.19115
1.19114
1.19113
1.19112
1.19113
1.19114
1.19116
1.19118
1.19122
1.19126
1.19131
1.19137
1.19143
1.19151
1.1916
1.19169
1.19179
1.1919
1.19202
1.19215
1.19229
1.19243
1.19258
1.19274
1.19291
1.19309
1.19327
1.19346
1.19365
1.19385
1.19405
1.19427
1.19448
1.1947
1.19491
1.19513
1.19536
1.19558
1.1958
1.19602
1.19624
1.19645
1.19666
1.19687
1.19707
1.19727
1.19746
1.19764
1.19782
1.19799
1.19815
1.1983
1.19844
1.19857
1.19869
1.1988
1.19889
1.19897
1.19904
1.1991
1.19914
1.19917
1.19919
1.19919
1.19918
1.19916
1.19913
1.19909
1.19903
1.19897
1.1989
1.19882
1.19873
1.19864
1.19854
1.19844
1.19833
1.19822
1.19811
1.19799
1.19787
1.19776
1.19764
1.19752
1.1974
1.19728
1.19717
1.19705
1.19694
1.19682
1.19671
1.1966
1.1965
1.19639
1.19629
1.19619
1.1961
1.19601
1.19592
1.19583
1.19574
1.19566
1.19558
1.19551
1.19544
1.19537
1.1953
1.19524
1.19518
1.19512
1.19507
1.19502
1.19497
1.19492
1.19488
1.19483
1.19479
1.19476
1.19472
1.19469
1.19465
1.19462
1.19459
1.19457
1.19454
1.19451
1.19449
1.19446
1.19444
1.19442
1.19439
1.19437
1.19435
1.19433
1.1943
1.19428
1.19425
1.19423
1.1942
1.19418
1.19415
1.19412
1.19409
1.19406
1.19403
1.194
1.19396
1.19393
1.19389
1.19385
1.19381
1.19377
1.19373
1.19369
1.19364
1.1936
1.19355
1.19351
1.19346
1.19342
1.19337
1.19332
1.19328
1.19323
1.19319
1.19314
1.1931
1.19306
1.19302
1.19299
1.19295
1.19292
1.19289
1.19287
1.19285
1.19283
1.19282
1.19281
1.19281
1.19282
1.19283
1.19285
1.19287
1.1929
1.19294
1.19299
1.19304
1.1931
1.19318
1.19326
1.19335
1.19345
1.19356
1.19368
1.19381
1.19395
1.1941
1.19426
1.19443
1.19461
1.19481
1.19501
1.19522
1.19544
1.19567
1.19592
1.19616
1.19642
1.19669
1.19696
1.19724
1.19752
1.19781
1.1981
1.1984
1.1987
1.199
1.1993
1.1996
1.19989
1.20019
1.20048
1.20077
1.20105
1.20132
1.20158
1.20184
1.20209
1.20233
1.20256
1.20278
1.20299
1.20319
1.20338
1.20357
1.20374
1.2039
1.20406
1.2042
1.20434
1.20448
1.2046
1.20472
1.20483
1.20494
1.20504
1.20514
1.20524
1.20533
1.20541
1.2055
1.20557
1.20565
1.20572
1.20579
1.20586
1.20592
1.20598
1.20604
1.20609
1.20614
1.20619
1.20623
1.20627
1.2063
1.20633
1.20635
1.20637
1.20639
1.2064
1.20641
1.20641
1.20641
1.2064
1.2064
1.20639
1.20638
1.20636
1.20635
1.20634
1.20633
1.20632
1.20631
1.2063
1.2063
1.20631
1.20632
1.20634
1.20637
1.2064
1.20645
1.20651
1.20658
1.20666
1.20676
1.20687
1.207
1.20714
1.20731
1.20749
1.2077
1.20792
1.20817
1.20844
1.20873
1.20905
1.2094
1.20977
1.21016
1.21059
1.21105
1.21153
1.21204
1.21259
1.21317
1.21378
1.21443
1.21511
1.21582
1.21658
1.21737
1.2182
1.21908
1.21999
1.22096
1.22197
1.22303
1.22414
1.22531
1.22654
1.22784
1.2292
1.23063
1.23212
1.23368
1.23527
1.23689
1.23846
1.23993
1.2412
1.24217
1.24276
1.2429
1.24255
1.18809
1.18777
1.18762
1.18763
1.18777
1.18801
1.18831
1.18865
1.189
1.18934
1.18967
1.18998
1.19026
1.19052
1.19075
1.19096
1.19114
1.1913
1.19145
1.19157
1.19167
1.19176
1.19184
1.1919
1.19195
1.19199
1.19202
1.19204
1.19205
1.19206
1.19205
1.19205
1.19203
1.19201
1.19199
1.19196
1.19192
1.19189
1.19185
1.1918
1.19176
1.19171
1.19166
1.19162
1.19157
1.19152
1.19147
1.19142
1.19137
1.19132
1.19128
1.19124
1.1912
1.19117
1.19114
1.19111
1.19109
1.19108
1.19107
1.19106
1.19107
1.19108
1.1911
1.19112
1.19116
1.1912
1.19125
1.19131
1.19138
1.19146
1.19154
1.19164
1.19174
1.19185
1.19197
1.19211
1.19224
1.19239
1.19254
1.19271
1.19287
1.19305
1.19323
1.19343
1.19362
1.19382
1.19403
1.19424
1.19446
1.19468
1.1949
1.19513
1.19535
1.19558
1.1958
1.19602
1.19624
1.19646
1.19667
1.19688
1.19709
1.19729
1.19748
1.19767
1.19784
1.19801
1.19817
1.19833
1.19847
1.1986
1.19872
1.19883
1.19893
1.19901
1.19908
1.19913
1.19918
1.1992
1.19922
1.19922
1.19921
1.19918
1.19915
1.1991
1.19904
1.19898
1.1989
1.19882
1.19873
1.19864
1.19853
1.19843
1.19832
1.19821
1.19809
1.19798
1.19786
1.19774
1.19762
1.1975
1.19738
1.19726
1.19715
1.19703
1.19692
1.19681
1.1967
1.19659
1.19648
1.19638
1.19628
1.19618
1.19609
1.19599
1.1959
1.19582
1.19574
1.19566
1.19558
1.19551
1.19543
1.19537
1.1953
1.19524
1.19518
1.19513
1.19507
1.19502
1.19497
1.19493
1.19488
1.19484
1.1948
1.19477