# vtk DataFile Version 2.0
LBE mesh
ASCII
DATASET STRUCTURED_POINTS
DIMENSIONS 400 100 1
ASPECT_RATIO 1 1 1
ORIGIN 0 0 0
POINT_DATA 40000
SCALARS rho double 1
LOOKUP_TABLE default
0.984381
1.02539
1.03803
1.04202
1.04428
1.04587
1.04692
1.04759
1.04804
1.04834
1.04854
1.04867
1.04875
1.04879
1.04879
1.04877
1.04873
1.04867
1.0486
1.04852
1.04843
1.04834
1.04824
1.04814
1.04804
1.04794
1.04784
1.04774
1.04764
1.04755
1.04746
1.04738
1.0473
1.04723
1.04716
1.0471
1.04705
1.047
1.04696
1.04693
1.0469
1.04689
1.04688
1.04688
1.04689
1.04691
1.04694
1.04697
1.04702
1.04707
1.04714
1.04722
1.0473
1.0474
1.04751
1.04762
1.04775
1.0479
1.04805
1.04822
1.0484
1.04859
1.0488
1.04902
1.04926
1.04951
1.04977
1.05005
1.05034
1.05065
1.05097
1.05131
1.05166
1.05203
1.05241
1.0528
1.05321
1.05363
1.05406
1.0545
1.05495
1.05542
1.05589
1.05636
1.05685
1.05734
1.05783
1.05832
1.05882
1.05932
1.05981
1.0603
1.06078
1.06126
1.06172
1.06218
1.06262
1.06305
1.06347
1.06386
1.06424
1.0646
1.06494
1.06525
1.06554
1.06581
1.06604
1.06626
1.06644
1.06659
1.06672
1.06682
1.06688
1.06692
1.06693
1.06691
1.06686
1.06678
1.06667
1.06654
1.06639
1.06621
1.06601
1.06579
1.06555
1.0653
1.06503
1.06474
1.06445
1.06414
1.06383
1.06351
1.06318
1.06285
1.06252
1.06219
1.06186
1.06153
1.06121
1.0609
1.06059
1.06029
1.06
1.05971
1.05944
1.05919
1.05894
1.05871
1.05849
1.05829
1.0581
1.05793
1.05777
1.05763
1.0575
1.05739
1.0573
1.05722
1.05716
1.05711
1.05708
1.05707
1.05707
1.05708
1.05711
1.05716
1.05721
1.05728
1.05737
1.05746
1.05757
1.05769
1.05782
1.05796
1.0581
1.05826
1.05842
1.0586
1.05878
1.05896
1.05915
1.05935
1.05955
1.05975
1.05996
1.06016
1.06037
1.06058
1.06079
1.061
1.06121
1.06142
1.06162
1.06182
1.06202
1.06222
1.06241
1.06259
1.06277
1.06295
1.06312
1.06328
1.06344
1.06359
1.06374
1.06388
1.06401
1.06414
1.06426
1.06438
1.06449
1.06459
1.06469
1.06478
1.06486
1.06494
1.06501
1.06508
1.06514
1.0652
1.06525
1.0653
1.06534
1.06537
1.06541
1.06543
1.06546
1.06547
1.06549
1.0655
1.06551
1.06551
1.06552
1.06552
1.06552
1.06552
1.06552
1.06552
1.06552
1.06553
1.06554
1.06556
1.06558
1.0656
1.06564
1.06568
1.06574
1.06581
1.06588
1.06598
1.06609
1.06621
1.06635
1.06651
1.06669
1.06689
1.06711
1.06735
1.06761
1.06789
1.0682
1.06853
1.06888
1.06925
1.06964
1.07005
1.07049
1.07094
1.07141
1.07189
1.0724
1.07291
1.07344
1.07397
1.07452
1.07507
1.07562
1.07618
1.07674
1.0773
1.07785
1.0784
1.07894
1.07947
1.07999
1.0805
1.08099
1.08147
1.08193
1.08238
1.0828
1.08321
1.0836
1.08397
1.08431
1.08464
1.08494
1.08523
1.08549
1.08572
1.08594
1.08614
1.08631
1.08646
1.08659
1.0867
1.08679
1.08686
1.08691
1.08694
1.08696
1.08695
1.08693
1.08689
1.08683
1.08676
1.08667
1.08657
1.08646
1.08634
1.08621
1.08606
1.08591
1.08575
1.08559
1.08542
1.08525
1.08507
1.0849
1.08472
1.08454
1.08437
1.08419
1.08402
1.08385
1.08369
1.08353
1.08337
1.08322
1.08308
1.08295
1.08282
1.08269
1.08258
1.08247
1.08237
1.08228
1.0822
1.08213
1.08207
1.08202
1.08198
1.08195
1.08193
1.08193
1.08194
1.08196
1.08201
1.08206
1.08214
1.08223
1.08235
1.08248
1.08264
1.08283
1.08304
1.08327
1.08354
1.08384
1.08417
1.08454
1.08494
1.08539
1.08588
1.08641
1.087
1.08763
1.08832
1.08907
1.08988
1.09075
1.0917
1.09273
1.09384
1.09504
1.09635
1.09778
1.09933
1.10105
1.10294
1.10507
1.10747
1.11024
1.11349
1.11742
1.12248
1.12953
1.13948
1.15345
1.18042
1.00901
1.02199
1.03205
1.0387
1.04227
1.0443
1.04561
1.04652
1.04716
1.04761
1.04792
1.04814
1.04829
1.04838
1.04843
1.04844
1.04844
1.04841
1.04836
1.0483
1.04823
1.04815
1.04807
1.04798
1.0479
1.04781
1.04772
1.04763
1.04754
1.04745
1.04737
1.0473
1.04722
1.04716
1.04709
1.04704
1.04699
1.04695
1.04691
1.04688
1.04686
1.04685
1.04685
1.04685
1.04686
1.04688
1.04691
1.04695
1.047
1.04706
1.04713
1.0472
1.04729
1.04739
1.0475
1.04762
1.04775
1.0479
1.04805
1.04822
1.0484
1.0486
1.04881
1.04903
1.04927
1.04952
1.04978
1.05006
1.05036
1.05067
1.05099
1.05133
1.05168
1.05205
1.05243
1.05283
1.05323
1.05365
1.05408
1.05453
1.05498
1.05544
1.05591
1.05639
1.05687
1.05736
1.05785
1.05835
1.05884
1.05933
1.05982
1.06031
1.06079
1.06127
1.06173
1.06218
1.06262
1.06305
1.06346
1.06386
1.06423
1.06459
1.06492
1.06523
1.06552
1.06578
1.06602
1.06622
1.06641
1.06656
1.06668
1.06677
1.06684
1.06687
1.06688
1.06686
1.0668
1.06673
1.06662
1.06649
1.06634
1.06616
1.06596
1.06574
1.0655
1.06525
1.06498
1.06469
1.0644
1.0641
1.06378
1.06346
1.06314
1.06281
1.06249
1.06216
1.06183
1.06151
1.06119
1.06087
1.06057
1.06027
1.05998
1.0597
1.05943
1.05918
1.05893
1.0587
1.05849
1.05829
1.0581
1.05793
1.05777
1.05763
1.05751
1.0574
1.05731
1.05723
1.05717
1.05712
1.05709
1.05708
1.05708
1.05709
1.05712
1.05717
1.05723
1.0573
1.05738
1.05747
1.05758
1.0577
1.05783
1.05796
1.05811
1.05827
1.05843
1.0586
1.05878
1.05897
1.05916
1.05935
1.05955
1.05975
1.05996
1.06016
1.06037
1.06058
1.06079
1.061
1.06121
1.06141
1.06162
1.06182
1.06201
1.06221
1.0624
1.06258
1.06276
1.06294
1.06311
1.06327
1.06343
1.06358
1.06373
1.06387
1.064
1.06413
1.06425
1.06436
1.06447
1.06458
1.06467
1.06476
1.06485
1.06493
1.065
1.06507
1.06513
1.06519
1.06524
1.06528
1.06532
1.06536
1.06539
1.06542
1.06544
1.06546
1.06548
1.06549
1.0655
1.0655
1.06551
1.06551
1.06551
1.06551
1.06551
1.06552
1.06552
1.06553
1.06554
1.06556
1.06558
1.06561
1.06564
1.06569
1.06575
1.06582
1.0659
1.06599
1.0661
1.06623
1.06637
1.06653
1.06672
1.06692
1.06714
1.06738
1.06764
1.06793
1.06823
1.06856
1.06891
1.06929
1.06968
1.07009
1.07053
1.07098
1.07145
1.07193
1.07243
1.07294
1.07347
1.074
1.07455
1.07509
1.07565
1.0762
1.07676
1.07731
1.07786
1.0784
1.07894
1.07947
1.07999
1.08049
1.08098
1.08146
1.08192
1.08236
1.08278
1.08319
1.08357
1.08394
1.08428
1.0846
1.08491
1.08519
1.08545
1.08568
1.0859
1.08609
1.08627
1.08642
1.08655
1.08666
1.08675
1.08682
1.08687
1.0869
1.08691
1.0869
1.08688
1.08684
1.08678
1.08671
1.08663
1.08653
1.08642
1.08629
1.08616
1.08602
1.08587
1.08571
1.08555
1.08538
1.08521
1.08503
1.08486
1.08468
1.08451
1.08433
1.08416
1.08399
1.08382
1.08366
1.0835
1.08335
1.0832
1.08306
1.08292
1.08279
1.08267
1.08256
1.08245
1.08235
1.08227
1.08219
1.08212
1.08206
1.08201
1.08197
1.08194
1.08193
1.08192
1.08194
1.08196
1.08201
1.08207
1.08215
1.08224
1.08236
1.0825
1.08266
1.08285
1.08307
1.08331
1.08358
1.08388
1.08422
1.08459
1.085
1.08546
1.08595
1.08649
1.08709
1.08773
1.08843
1.08919
1.09001
1.0909
1.09186
1.0929
1.09403
1.09526
1.09659
1.09804
1.09964
1.1014
1.10335
1.10555
1.10806
1.11096
1.11442
1.11866
1.124
1.13089
1.14086
1.15844
1.18651
1.02603
1.02779
1.03345
1.03799
1.04101
1.04314
1.04463
1.04568
1.04643
1.04697
1.04736
1.04765
1.04785
1.04799
1.04808
1.04813
1.04815
1.04815
1.04813
1.04809
1.04803
1.04797
1.0479
1.04783
1.04775
1.04767
1.04759
1.04751
1.04743
1.04735
1.04728
1.04721
1.04714
1.04708
1.04702
1.04697
1.04693
1.04689
1.04686
1.04684
1.04682
1.04681
1.04681
1.04682
1.04683
1.04685
1.04689
1.04693
1.04698
1.04704
1.04711
1.04719
1.04728
1.04738
1.04749
1.04761
1.04774
1.04789
1.04805
1.04822
1.0484
1.0486
1.04881
1.04903
1.04927
1.04952
1.04979
1.05007
1.05037
1.05068
1.051
1.05134
1.0517
1.05206
1.05245
1.05284
1.05325
1.05367
1.0541
1.05454
1.055
1.05546
1.05593
1.05641
1.05689
1.05738
1.05787
1.05836
1.05885
1.05935
1.05984
1.06032
1.0608
1.06127
1.06174
1.06219
1.06263
1.06305
1.06346
1.06385
1.06423
1.06458
1.06491
1.06522
1.0655
1.06576
1.066
1.0662
1.06638
1.06653
1.06665
1.06674
1.0668
1.06683
1.06684
1.06681
1.06676
1.06668
1.06657
1.06644
1.06628
1.0661
1.0659
1.06568
1.06545
1.06519
1.06492
1.06464
1.06435
1.06405
1.06373
1.06342
1.0631
1.06277
1.06244
1.06212
1.06179
1.06147
1.06116
1.06084
1.06054
1.06024
1.05996
1.05968
1.05941
1.05916
1.05892
1.05869
1.05848
1.05828
1.05809
1.05792
1.05777
1.05763
1.05751
1.0574
1.05731
1.05723
1.05717
1.05713
1.0571
1.05708
1.05709
1.0571
1.05713
1.05718
1.05723
1.0573
1.05739
1.05748
1.05759
1.05771
1.05783
1.05797
1.05812
1.05827
1.05844
1.05861
1.05879
1.05897
1.05916
1.05935
1.05955
1.05975
1.05995
1.06016
1.06037
1.06058
1.06078
1.06099
1.0612
1.0614
1.0616
1.0618
1.062
1.06219
1.06238
1.06257
1.06275
1.06292
1.06309
1.06325
1.06341
1.06356
1.06371
1.06385
1.06398
1.06411
1.06423
1.06434
1.06445
1.06455
1.06465
1.06474
1.06482
1.0649
1.06498
1.06504
1.06511
1.06516
1.06521
1.06526
1.0653
1.06534
1.06537
1.0654
1.06542
1.06544
1.06546
1.06547
1.06548
1.06549
1.06549
1.06549
1.0655
1.0655
1.0655
1.0655
1.06551
1.06552
1.06553
1.06555
1.06557
1.0656
1.06564
1.06569
1.06575
1.06582
1.0659
1.066
1.06611
1.06624
1.06639
1.06655
1.06673
1.06694
1.06716
1.0674
1.06767
1.06795
1.06826
1.06859
1.06894
1.06931
1.06971
1.07012
1.07055
1.07101
1.07147
1.07196
1.07246
1.07297
1.07349
1.07403
1.07457
1.07511
1.07566
1.07622
1.07677
1.07732
1.07787
1.07841
1.07894
1.07947
1.07998
1.08048
1.08097
1.08144
1.0819
1.08234
1.08276
1.08316
1.08354
1.08391
1.08425
1.08457
1.08487
1.08515
1.08541
1.08564
1.08586
1.08605
1.08622
1.08637
1.0865
1.08661
1.0867
1.08677
1.08682
1.08685
1.08686
1.08686
1.08684
1.0868
1.08674
1.08667
1.08658
1.08648
1.08637
1.08625
1.08612
1.08598
1.08583
1.08567
1.08551
1.08534
1.08517
1.08499
1.08482
1.08464
1.08447
1.08429
1.08412
1.08395
1.08379
1.08362
1.08347
1.08331
1.08317
1.08303
1.08289
1.08276
1.08264
1.08253
1.08243
1.08233
1.08224
1.08216
1.08209
1.08203
1.08198
1.08195
1.08192
1.08191
1.08191
1.08192
1.08195
1.082
1.08206
1.08214
1.08224
1.08236
1.0825
1.08266
1.08285
1.08307
1.08331
1.08359
1.08389
1.08423
1.08461
1.08502
1.08548
1.08598
1.08653
1.08712
1.08777
1.08847
1.08924
1.09006
1.09096
1.09193
1.09298
1.09412
1.09535
1.09669
1.09816
1.09977
1.10154
1.10351
1.10572
1.10824
1.11114
1.11455
1.11865
1.12376
1.13037
1.13862
1.14756
1.15633
1.03456
1.03403
1.03609
1.03857
1.04092
1.04275
1.04411
1.04513
1.0459
1.04648
1.04691
1.04724
1.04748
1.04765
1.04777
1.04785
1.04789
1.04791
1.0479
1.04788
1.04784
1.04779
1.04774
1.04767
1.04761
1.04754
1.04747
1.04739
1.04732
1.04725
1.04718
1.04712
1.04706
1.047
1.04695
1.0469
1.04686
1.04683
1.0468
1.04678
1.04677
1.04676
1.04676
1.04677
1.04679
1.04682
1.04685
1.0469
1.04695
1.04701
1.04708
1.04716
1.04725
1.04736
1.04747
1.04759
1.04773
1.04788
1.04804
1.04821
1.04839
1.04859
1.0488
1.04903
1.04927
1.04952
1.04979
1.05007
1.05037
1.05068
1.051
1.05134
1.0517
1.05207
1.05245
1.05284
1.05325
1.05367
1.05411
1.05455
1.055
1.05546
1.05593
1.05641
1.0569
1.05738
1.05787
1.05837
1.05886
1.05935
1.05984
1.06033
1.06081
1.06128
1.06174
1.06219
1.06263
1.06305
1.06346
1.06385
1.06422
1.06457
1.0649
1.06521
1.06549
1.06575
1.06598
1.06618
1.06636
1.0665
1.06662
1.06671
1.06677
1.0668
1.0668
1.06677
1.06671
1.06663
1.06652
1.06639
1.06623
1.06605
1.06585
1.06563
1.06539
1.06514
1.06487
1.06459
1.06429
1.06399
1.06368
1.06336
1.06304
1.06272
1.0624
1.06207
1.06175
1.06143
1.06112
1.06081
1.06051
1.06021
1.05993
1.05965
1.05939
1.05914
1.0589
1.05867
1.05846
1.05826
1.05808
1.05791
1.05776
1.05762
1.0575
1.05739
1.0573
1.05723
1.05717
1.05713
1.0571
1.05709
1.05709
1.0571
1.05714
1.05718
1.05724
1.05731
1.05739
1.05749
1.05759
1.05771
1.05784
1.05797
1.05812
1.05828
1.05844
1.05861
1.05879
1.05897
1.05916
1.05935
1.05954
1.05974
1.05995
1.06015
1.06036
1.06056
1.06077
1.06098
1.06118
1.06138
1.06159
1.06178
1.06198
1.06217
1.06236
1.06254
1.06272
1.06289
1.06306
1.06322
1.06338
1.06353
1.06368
1.06382
1.06395
1.06407
1.0642
1.06431
1.06442
1.06452
1.06462
1.06471
1.06479
1.06487
1.06494
1.06501
1.06507
1.06513
1.06518
1.06523
1.06527
1.06531
1.06534
1.06537
1.06539
1.06541
1.06543
1.06544
1.06545
1.06546
1.06547
1.06547
1.06547
1.06548
1.06548
1.06548
1.06549
1.0655
1.06552
1.06554
1.06556
1.06559
1.06563
1.06568
1.06575
1.06582
1.0659
1.066
1.06612
1.06625
1.06639
1.06656
1.06674
1.06695
1.06717
1.06741
1.06768
1.06797
1.06828
1.06861
1.06896
1.06933
1.06973
1.07014
1.07057
1.07102
1.07149
1.07197
1.07247
1.07298
1.07351
1.07404
1.07458
1.07512
1.07567
1.07622
1.07677
1.07732
1.07786
1.0784
1.07893
1.07946
1.07997
1.08047
1.08095
1.08142
1.08187
1.08231
1.08273
1.08313
1.08351
1.08387
1.08421
1.08453
1.08483
1.08511
1.08537
1.0856
1.08581
1.08601
1.08618
1.08633
1.08646
1.08657
1.08666
1.08673
1.08678
1.08681
1.08682
1.08682
1.08679
1.08675
1.0867
1.08663
1.08654
1.08644
1.08633
1.08621
1.08608
1.08593
1.08578
1.08563
1.08546
1.0853
1.08513
1.08495
1.08478
1.0846
1.08443
1.08425
1.08408
1.08391
1.08375
1.08358
1.08343
1.08327
1.08313
1.08299
1.08285
1.08273
1.08261
1.0825
1.08239
1.0823
1.08221
1.08213
1.08206
1.082
1.08195
1.08192
1.08189
1.08188
1.08188
1.08189
1.08192
1.08197
1.08203
1.08211
1.08221
1.08233
1.08247
1.08264
1.08283
1.08304
1.08329
1.08356
1.08387
1.08421
1.08458
1.085
1.08546
1.08596
1.0865
1.0871
1.08775
1.08845
1.08922
1.09005
1.09094
1.09191
1.09296
1.0941
1.09533
1.09667
1.09812
1.09972
1.10147
1.10341
1.10558
1.10802
1.1108
1.11402
1.11777
1.12214
1.12721
1.13284
1.13742
1.13761
1.03847
1.03795
1.03866
1.03998
1.04148
1.04282
1.04395
1.04486
1.04558
1.04614
1.04657
1.04691
1.04717
1.04736
1.04749
1.04759
1.04765
1.04768
1.04769
1.04768
1.04766
1.04762
1.04758
1.04752
1.04747
1.0474
1.04734
1.04728
1.04721
1.04715
1.04709
1.04703
1.04697
1.04692
1.04687
1.04683
1.0468
1.04677
1.04674
1.04673
1.04672
1.04671
1.04672
1.04673
1.04675
1.04678
1.04682
1.04686
1.04692
1.04698
1.04705
1.04714
1.04723
1.04733
1.04745
1.04757
1.04771
1.04786
1.04802
1.04819
1.04838
1.04858
1.04879
1.04902
1.04926
1.04951
1.04978
1.05006
1.05036
1.05067
1.051
1.05134
1.05169
1.05206
1.05245
1.05284
1.05325
1.05367
1.0541
1.05455
1.055
1.05546
1.05593
1.05641
1.05689
1.05738
1.05787
1.05837
1.05886
1.05935
1.05984
1.06033
1.06081
1.06128
1.06174
1.06219
1.06263
1.06305
1.06346
1.06385
1.06422
1.06457
1.0649
1.0652
1.06548
1.06574
1.06597
1.06617
1.06634
1.06648
1.0666
1.06668
1.06674
1.06677
1.06676
1.06673
1.06668
1.06659
1.06648
1.06634
1.06618
1.066
1.0658
1.06557
1.06534
1.06508
1.06481
1.06453
1.06423
1.06393
1.06362
1.06331
1.06299
1.06267
1.06234
1.06202
1.0617
1.06138
1.06107
1.06076
1.06047
1.06017
1.05989
1.05962
1.05936
1.05911
1.05887
1.05865
1.05844
1.05824
1.05806
1.05789
1.05774
1.05761
1.05749
1.05738
1.0573
1.05722
1.05717
1.05712
1.0571
1.05709
1.05709
1.05711
1.05714
1.05718
1.05724
1.05731
1.05739
1.05749
1.05759
1.05771
1.05784
1.05798
1.05812
1.05828
1.05844
1.05861
1.05878
1.05896
1.05915
1.05934
1.05954
1.05973
1.05994
1.06014
1.06034
1.06055
1.06075
1.06096
1.06116
1.06136
1.06156
1.06176
1.06195
1.06214
1.06233
1.06251
1.06269
1.06286
1.06303
1.06319
1.06335
1.0635
1.06364
1.06378
1.06391
1.06404
1.06416
1.06427
1.06438
1.06448
1.06458
1.06467
1.06475
1.06483
1.0649
1.06497
1.06503
1.06509
1.06514
1.06519
1.06523
1.06527
1.0653
1.06533
1.06536
1.06538
1.06539
1.06541
1.06542
1.06543
1.06543
1.06544
1.06544
1.06545
1.06545
1.06546
1.06547
1.06548
1.0655
1.06552
1.06555
1.06558
1.06562
1.06567
1.06574
1.06581
1.0659
1.066
1.06611
1.06624
1.06639
1.06656
1.06674
1.06695
1.06717
1.06742
1.06769
1.06797
1.06828
1.06861
1.06897
1.06934
1.06973
1.07015
1.07058
1.07103
1.0715
1.07198
1.07248
1.07299
1.07351
1.07404
1.07458
1.07512
1.07567
1.07622
1.07677
1.07731
1.07786
1.07839
1.07892
1.07944
1.07995
1.08045
1.08093
1.0814
1.08185
1.08228
1.0827
1.0831
1.08348
1.08384
1.08418
1.08449
1.08479
1.08507
1.08532
1.08556
1.08577
1.08596
1.08614
1.08629
1.08642
1.08653
1.08662
1.08668
1.08674
1.08677
1.08678
1.08677
1.08675
1.08671
1.08666
1.08659
1.0865
1.0864
1.08629
1.08617
1.08604
1.08589
1.08574
1.08559
1.08542
1.08525
1.08508
1.08491
1.08473
1.08456
1.08438
1.08421
1.08404
1.08387
1.0837
1.08354
1.08338
1.08323
1.08309
1.08295
1.08281
1.08269
1.08257
1.08245
1.08235
1.08226
1.08217
1.08209
1.08202
1.08196
1.08192
1.08188
1.08185
1.08184
1.08184
1.08186
1.08188
1.08193
1.08199
1.08207
1.08217
1.08229
1.08243
1.08259
1.08278
1.08299
1.08323
1.08351
1.08381
1.08415
1.08452
1.08494
1.08539
1.08589
1.08643
1.08703
1.08767
1.08837
1.08913
1.08996
1.09085
1.09181
1.09285
1.09397
1.09519
1.09651
1.09794
1.0995
1.10121
1.10308
1.10515
1.10745
1.11003
1.11291
1.11614
1.11968
1.12331
1.12657
1.12883
1.12825
1.0409
1.04049
1.04069
1.04137
1.04227
1.04321
1.04407
1.04482
1.04544
1.04595
1.04636
1.04668
1.04693
1.04712
1.04727
1.04737
1.04744
1.04748
1.0475
1.0475
1.04749
1.04746
1.04743
1.04738
1.04733
1.04728
1.04722
1.04716
1.0471
1.04705
1.04699
1.04694
1.04689
1.04684
1.0468
1.04676
1.04673
1.0467
1.04668
1.04667
1.04666
1.04666
1.04667
1.04668
1.04671
1.04674
1.04678
1.04682
1.04688
1.04694
1.04702
1.0471
1.0472
1.0473
1.04742
1.04755
1.04768
1.04783
1.048
1.04817
1.04836
1.04856
1.04877
1.049
1.04924
1.04949
1.04976
1.05004
1.05034
1.05065
1.05098
1.05132
1.05168
1.05205
1.05243
1.05283
1.05323
1.05366
1.05409
1.05453
1.05499
1.05545
1.05592
1.0564
1.05688
1.05737
1.05786
1.05836
1.05885
1.05935
1.05984
1.06032
1.0608
1.06127
1.06174
1.06219
1.06263
1.06305
1.06346
1.06385
1.06422
1.06457
1.06489
1.0652
1.06548
1.06573
1.06596
1.06616
1.06633
1.06647
1.06658
1.06666
1.06672
1.06674
1.06674
1.0667
1.06664
1.06655
1.06644
1.0663
1.06613
1.06595
1.06574
1.06552
1.06528
1.06502
1.06475
1.06447
1.06417
1.06387
1.06356
1.06325
1.06293
1.06261
1.06229
1.06197
1.06165
1.06133
1.06102
1.06072
1.06042
1.06013
1.05985
1.05958
1.05932
1.05907
1.05884
1.05862
1.05841
1.05822
1.05804
1.05787
1.05772
1.05759
1.05747
1.05737
1.05728
1.05721
1.05716
1.05712
1.05709
1.05708
1.05708
1.0571
1.05713
1.05718
1.05724
1.05731
1.05739
1.05749
1.05759
1.05771
1.05784
1.05797
1.05812
1.05827
1.05843
1.0586
1.05877
1.05895
1.05914
1.05933
1.05952
1.05972
1.05992
1.06012
1.06032
1.06053
1.06073
1.06093
1.06113
1.06133
1.06153
1.06173
1.06192
1.06211
1.06229
1.06247
1.06265
1.06282
1.06299
1.06315
1.0633
1.06345
1.0636
1.06373
1.06387
1.06399
1.06411
1.06422
1.06433
1.06443
1.06453
1.06462
1.0647
1.06478
1.06486
1.06492
1.06499
1.06504
1.0651
1.06514
1.06519
1.06522
1.06526
1.06529
1.06531
1.06533
1.06535
1.06537
1.06538
1.06539
1.0654
1.0654
1.06541
1.06542
1.06542
1.06543
1.06544
1.06545
1.06547
1.06549
1.06552
1.06556
1.0656
1.06566
1.06572
1.0658
1.06588
1.06599
1.0661
1.06624
1.06639
1.06655
1.06674
1.06694
1.06717
1.06741
1.06768
1.06797
1.06828
1.06861
1.06896
1.06934
1.06973
1.07014
1.07057
1.07102
1.07149
1.07197
1.07247
1.07298
1.0735
1.07403
1.07457
1.07511
1.07565
1.0762
1.07675
1.0773
1.07784
1.07837
1.0789
1.07942
1.07993
1.08042
1.0809
1.08137
1.08182
1.08225
1.08267
1.08306
1.08344
1.0838
1.08414
1.08445
1.08475
1.08503
1.08528
1.08552
1.08573
1.08592
1.08609
1.08624
1.08637
1.08648
1.08657
1.08664
1.08669
1.08672
1.08674
1.08673
1.08671
1.08667
1.08662
1.08655
1.08646
1.08636
1.08625
1.08613
1.08599
1.08585
1.0857
1.08554
1.08538
1.08521
1.08504
1.08486
1.08469
1.08451
1.08433
1.08416
1.08399
1.08382
1.08365
1.08349
1.08333
1.08318
1.08304
1.0829
1.08276
1.08264
1.08252
1.08241
1.0823
1.08221
1.08212
1.08204
1.08197
1.08191
1.08187
1.08183
1.0818
1.08179
1.08179
1.0818
1.08183
1.08187
1.08193
1.08201
1.08211
1.08222
1.08236
1.08252
1.08271
1.08292
1.08315
1.08342
1.08372
1.08406
1.08443
1.08483
1.08528
1.08577
1.08631
1.0869
1.08754
1.08823
1.08898
1.08979
1.09067
1.09162
1.09264
1.09375
1.09494
1.09622
1.09761
1.09912
1.10075
1.10253
1.10447
1.10659
1.1089
1.1114
1.11406
1.11678
1.11934
1.12132
1.12234
1.12212
1.04259
1.04219
1.0422
1.04255
1.04309
1.04372
1.04435
1.04493
1.04544
1.04587
1.04623
1.04653
1.04676
1.04695
1.04709
1.04719
1.04727
1.04731
1.04734
1.04735
1.04734
1.04732
1.04729
1.04725
1.04721
1.04716
1.04711
1.04705
1.047
1.04695
1.0469
1.04685
1.0468
1.04676
1.04672
1.04669
1.04666
1.04664
1.04662
1.04661
1.04661
1.04661
1.04662
1.04664
1.04666
1.0467
1.04674
1.04679
1.04684
1.04691
1.04699
1.04707
1.04717
1.04728
1.04739
1.04752
1.04766
1.04781
1.04797
1.04815
1.04833
1.04853
1.04875
1.04898
1.04922
1.04947
1.04974
1.05002
1.05032
1.05063
1.05096
1.0513
1.05166
1.05203
1.05241
1.05281
1.05321
1.05364
1.05407
1.05451
1.05497
1.05543
1.0559
1.05638
1.05687
1.05735
1.05785
1.05834
1.05884
1.05933
1.05983
1.06031
1.06079
1.06127
1.06173
1.06218
1.06262
1.06305
1.06345
1.06384
1.06421
1.06456
1.06489
1.06519
1.06547
1.06572
1.06595
1.06615
1.06631
1.06645
1.06656
1.06664
1.0667
1.06672
1.06671
1.06667
1.06661
1.06651
1.06639
1.06625
1.06609
1.0659
1.06569
1.06546
1.06522
1.06496
1.06469
1.06441
1.06411
1.06381
1.0635
1.06318
1.06287
1.06255
1.06223
1.06191
1.06159
1.06128
1.06097
1.06066
1.06037
1.06008
1.0598
1.05954
1.05928
1.05904
1.0588
1.05858
1.05838
1.05819
1.05801
1.05785
1.0577
1.05757
1.05746
1.05736
1.05727
1.0572
1.05715
1.05711
1.05708
1.05707
1.05708
1.0571
1.05713
1.05718
1.05724
1.05731
1.05739
1.05749
1.05759
1.05771
1.05783
1.05797
1.05811
1.05827
1.05843
1.05859
1.05877
1.05895
1.05913
1.05932
1.05951
1.0597
1.0599
1.0601
1.0603
1.0605
1.06071
1.06091
1.06111
1.0613
1.0615
1.06169
1.06188
1.06207
1.06225
1.06243
1.06261
1.06278
1.06294
1.0631
1.06326
1.0634
1.06355
1.06368
1.06382
1.06394
1.06406
1.06417
1.06428
1.06438
1.06448
1.06457
1.06465
1.06473
1.0648
1.06487
1.06493
1.06499
1.06504
1.06509
1.06514
1.06517
1.06521
1.06524
1.06526
1.06529
1.06531
1.06532
1.06534
1.06535
1.06536
1.06536
1.06537
1.06538
1.06539
1.0654
1.06541
1.06543
1.06544
1.06547
1.0655
1.06554
1.06558
1.06564
1.0657
1.06578
1.06587
1.06597
1.06609
1.06622
1.06637
1.06654
1.06673
1.06693
1.06716
1.0674
1.06767
1.06796
1.06827
1.0686
1.06895
1.06932
1.06972
1.07013
1.07056
1.07101
1.07147
1.07196
1.07245
1.07296
1.07348
1.07401
1.07455
1.07509
1.07563
1.07618
1.07673
1.07727
1.07781
1.07835
1.07887
1.07939
1.0799
1.08039
1.08087
1.08134
1.08178
1.08222
1.08263
1.08303
1.0834
1.08376
1.0841
1.08441
1.08471
1.08498
1.08524
1.08547
1.08568
1.08588
1.08605
1.0862
1.08633
1.08644
1.08653
1.0866
1.08665
1.08668
1.0867
1.08669
1.08667
1.08663
1.08658
1.08651
1.08642
1.08632
1.08621
1.08609
1.08595
1.08581
1.08566
1.0855
1.08533
1.08516
1.08499
1.08482
1.08464
1.08446
1.08428
1.08411
1.08394
1.08377
1.0836
1.08344
1.08328
1.08313
1.08298
1.08284
1.08271
1.08258
1.08247
1.08235
1.08225
1.08215
1.08207
1.08199
1.08192
1.08186
1.08181
1.08177
1.08175
1.08173
1.08173
1.08174
1.08177
1.08181
1.08187
1.08194
1.08203
1.08215
1.08228
1.08244
1.08261
1.08282
1.08305
1.08332
1.08361
1.08394
1.0843
1.0847
1.08514
1.08562
1.08615
1.08673
1.08735
1.08803
1.08877
1.08957
1.09043
1.09135
1.09235
1.09343
1.09458
1.09583
1.09716
1.0986
1.10015
1.10181
1.10359
1.10551
1.10754
1.10966
1.11181
1.11386
1.11565
1.11692
1.11743
1.11725
1.0438
1.04343
1.04336
1.04352
1.04384
1.04425
1.0447
1.04513
1.04553
1.04589
1.0462
1.04645
1.04666
1.04683
1.04696
1.04706
1.04713
1.04718
1.0472
1.04721
1.04721
1.04719
1.04717
1.04713
1.04709
1.04705
1.047
1.04696
1.04691
1.04686
1.04681
1.04677
1.04673
1.04669
1.04666
1.04662
1.0466
1.04658
1.04657
1.04656
1.04656
1.04656
1.04657
1.04659
1.04662
1.04665
1.0467
1.04675
1.04681
1.04687
1.04695
1.04704
1.04714
1.04724
1.04736
1.04749
1.04763
1.04778
1.04794
1.04812
1.04831
1.04851
1.04872
1.04895
1.04919
1.04944
1.04971
1.05
1.05029
1.05061
1.05093
1.05127
1.05163
1.052
1.05238
1.05277
1.05318
1.0536
1.05404
1.05448
1.05493
1.0554
1.05587
1.05635
1.05684
1.05733
1.05782
1.05832
1.05881
1.05931
1.0598
1.06029
1.06077
1.06125
1.06171
1.06217
1.06261
1.06303
1.06344
1.06383
1.0642
1.06455
1.06488
1.06519
1.06546
1.06571
1.06594
1.06614
1.0663
1.06644
1.06655
1.06663
1.06668
1.06669
1.06668
1.06664
1.06657
1.06648
1.06636
1.06621
1.06604
1.06585
1.06564
1.06541
1.06516
1.0649
1.06463
1.06434
1.06405
1.06374
1.06343
1.06312
1.0628
1.06248
1.06216
1.06184
1.06153
1.06122
1.06091
1.06061
1.06032
1.06003
1.05975
1.05949
1.05924
1.05899
1.05876
1.05855
1.05834
1.05816
1.05798
1.05782
1.05768
1.05755
1.05743
1.05733
1.05725
1.05718
1.05713
1.05709
1.05707
1.05706
1.05707
1.05709
1.05712
1.05717
1.05723
1.0573
1.05738
1.05748
1.05759
1.0577
1.05783
1.05796
1.05811
1.05826
1.05842
1.05858
1.05875
1.05893
1.05911
1.0593
1.05949
1.05968
1.05988
1.06008
1.06028
1.06048
1.06068
1.06087
1.06107
1.06127
1.06146
1.06165
1.06184
1.06203
1.06221
1.06239
1.06256
1.06273
1.06289
1.06305
1.0632
1.06335
1.06349
1.06363
1.06376
1.06388
1.064
1.06411
1.06422
1.06432
1.06442
1.06451
1.06459
1.06467
1.06474
1.06481
1.06487
1.06493
1.06499
1.06503
1.06508
1.06512
1.06515
1.06518
1.06521
1.06523
1.06525
1.06527
1.06529
1.0653
1.06531
1.06532
1.06533
1.06534
1.06535
1.06536
1.06537
1.06539
1.06541
1.06544
1.06547
1.06551
1.06555
1.06561
1.06568
1.06575
1.06585
1.06595
1.06607
1.0662
1.06635
1.06652
1.06671
1.06691
1.06714
1.06738
1.06765
1.06794
1.06825
1.06857
1.06893
1.0693
1.06969
1.0701
1.07053
1.07098
1.07144
1.07192
1.07242
1.07293
1.07345
1.07397
1.07451
1.07505
1.0756
1.07614
1.07669
1.07723
1.07777
1.07831
1.07883
1.07935
1.07986
1.08035
1.08083
1.08129
1.08174
1.08217
1.08259
1.08298
1.08336
1.08371
1.08405
1.08436
1.08466
1.08493
1.08519
1.08542
1.08563
1.08583
1.086
1.08615
1.08628
1.08639
1.08648
1.08655
1.0866
1.08664
1.08665
1.08665
1.08663
1.08659
1.08653
1.08646
1.08638
1.08628
1.08617
1.08604
1.08591
1.08576
1.08561
1.08545
1.08529
1.08511
1.08494
1.08476
1.08459
1.08441
1.08423
1.08405
1.08388
1.08371
1.08354
1.08338
1.08322
1.08307
1.08293
1.08279
1.08265
1.08253
1.08241
1.08229
1.08219
1.08209
1.08201
1.08193
1.08186
1.0818
1.08175
1.08171
1.08168
1.08167
1.08166
1.08167
1.08169
1.08173
1.08179
1.08186
1.08194
1.08205
1.08218
1.08233
1.0825
1.0827
1.08293
1.08318
1.08347
1.08378
1.08414
1.08453
1.08496
1.08543
1.08594
1.0865
1.08712
1.08778
1.0885
1.08928
1.09011
1.09102
1.09198
1.09302
1.09413
1.09533
1.0966
1.09796
1.0994
1.10094
1.10256
1.10427
1.10603
1.10781
1.10954
1.1111
1.11237
1.11321
1.1135
1.11323
1.04468
1.04436
1.04425
1.0443
1.04448
1.04475
1.04506
1.04538
1.04568
1.04597
1.04622
1.04643
1.04661
1.04676
1.04687
1.04696
1.04702
1.04707
1.04709
1.0471
1.0471
1.04708
1.04706
1.04703
1.04699
1.04695
1.04691
1.04687
1.04682
1.04678
1.04674
1.0467
1.04666
1.04662
1.04659
1.04656
1.04654
1.04653
1.04651
1.04651
1.04651
1.04652
1.04653
1.04655
1.04658
1.04662
1.04666
1.04671
1.04677
1.04684
1.04692
1.04701
1.04711
1.04722
1.04733
1.04746
1.0476
1.04776
1.04792
1.04809
1.04828
1.04848
1.0487
1.04892
1.04916
1.04942
1.04969
1.04997
1.05027
1.05058
1.0509
1.05124
1.0516
1.05196
1.05235
1.05274
1.05315
1.05357
1.054
1.05444
1.0549
1.05536
1.05583
1.05631
1.0568
1.05729
1.05779
1.05829
1.05878
1.05928
1.05978
1.06027
1.06075
1.06123
1.06169
1.06215
1.06259
1.06302
1.06343
1.06382
1.06419
1.06454
1.06487
1.06517
1.06545
1.0657
1.06593
1.06612
1.06629
1.06643
1.06653
1.06661
1.06665
1.06667
1.06665
1.06661
1.06654
1.06644
1.06631
1.06616
1.06599
1.0658
1.06558
1.06535
1.0651
1.06484
1.06456
1.06428
1.06398
1.06368
1.06337
1.06305
1.06273
1.06242
1.0621
1.06178
1.06147
1.06116
1.06085
1.06055
1.06026
1.05998
1.05971
1.05944
1.05919
1.05895
1.05872
1.05851
1.05831
1.05812
1.05795
1.05779
1.05765
1.05752
1.05741
1.05732
1.05723
1.05717
1.05712
1.05708
1.05706
1.05705
1.05706
1.05708
1.05712
1.05716
1.05722
1.0573
1.05738
1.05748
1.05758
1.0577
1.05782
1.05796
1.0581
1.05825
1.05841
1.05857
1.05874
1.05892
1.0591
1.05929
1.05947
1.05967
1.05986
1.06005
1.06025
1.06045
1.06065
1.06084
1.06104
1.06123
1.06142
1.06161
1.0618
1.06198
1.06216
1.06234
1.06251
1.06268
1.06284
1.063
1.06315
1.0633
1.06344
1.06357
1.0637
1.06382
1.06394
1.06405
1.06416
1.06426
1.06436
1.06444
1.06453
1.06461
1.06468
1.06475
1.06481
1.06487
1.06493
1.06497
1.06502
1.06506
1.06509
1.06513
1.06515
1.06518
1.0652
1.06522
1.06524
1.06525
1.06526
1.06527
1.06529
1.0653
1.06531
1.06532
1.06534
1.06535
1.06538
1.0654
1.06544
1.06548
1.06553
1.06558
1.06565
1.06573
1.06582
1.06593
1.06604
1.06618
1.06633
1.0665
1.06668
1.06689
1.06711
1.06736
1.06762
1.06791
1.06822
1.06855
1.0689
1.06927
1.06966
1.07007
1.07049
1.07094
1.0714
1.07188
1.07238
1.07289
1.0734
1.07393
1.07447
1.07501
1.07555
1.0761
1.07664
1.07719
1.07773
1.07826
1.07879
1.0793
1.07981
1.0803
1.08078
1.08125
1.08169
1.08212
1.08254
1.08293
1.08331
1.08366
1.084
1.08431
1.08461
1.08488
1.08514
1.08537
1.08558
1.08577
1.08595
1.0861
1.08623
1.08634
1.08643
1.0865
1.08656
1.08659
1.08661
1.0866
1.08658
1.08654
1.08649
1.08642
1.08633
1.08623
1.08612
1.086
1.08586
1.08572
1.08556
1.0854
1.08523
1.08506
1.08489
1.08471
1.08453
1.08435
1.08417
1.084
1.08382
1.08365
1.08348
1.08332
1.08316
1.08301
1.08286
1.08272
1.08259
1.08246
1.08234
1.08223
1.08213
1.08203
1.08194
1.08187
1.0818
1.08173
1.08168
1.08164
1.08161
1.0816
1.08159
1.0816
1.08162
1.08165
1.0817
1.08177
1.08185
1.08195
1.08207
1.08222
1.08238
1.08257
1.08279
1.08303
1.08331
1.08362
1.08396
1.08433
1.08475
1.08521
1.08571
1.08625
1.08685
1.08749
1.08819
1.08894
1.08975
1.09062
1.09156
1.09255
1.09362
1.09475
1.09595
1.09722
1.09857
1.09998
1.10144
1.10295
1.10447
1.10596
1.10735
1.10855
1.10948
1.11005
1.1102
1.10989
1.04535
1.04508
1.04495
1.04494
1.04504
1.0452
1.04541
1.04564
1.04587
1.04609
1.04628
1.04646
1.04661
1.04673
1.04682
1.0469
1.04695
1.04699
1.04701
1.04702
1.04701
1.047
1.04697
1.04694
1.04691
1.04687
1.04683
1.04679
1.04675
1.04671
1.04667
1.04663
1.0466
1.04656
1.04654
1.04651
1.04649
1.04648
1.04647
1.04646
1.04647
1.04648
1.04649
1.04652
1.04655
1.04658
1.04663
1.04668
1.04674
1.04681
1.04689
1.04698
1.04708
1.04719
1.04731
1.04744
1.04758
1.04773
1.04789
1.04807
1.04825
1.04845
1.04867
1.04889
1.04913
1.04939
1.04965
1.04994
1.05023
1.05054
1.05087
1.0512
1.05156
1.05192
1.0523
1.0527
1.0531
1.05352
1.05395
1.0544
1.05485
1.05531
1.05579
1.05627
1.05675
1.05725
1.05774
1.05824
1.05874
1.05924
1.05974
1.06023
1.06072
1.06119
1.06166
1.06212
1.06256
1.06299
1.0634
1.0638
1.06417
1.06452
1.06485
1.06516
1.06543
1.06569
1.06591
1.06611
1.06627
1.06641
1.06651
1.06659
1.06663
1.06664
1.06662
1.06658
1.0665
1.0664
1.06627
1.06612
1.06594
1.06575
1.06553
1.06529
1.06504
1.06478
1.0645
1.06421
1.06391
1.06361
1.0633
1.06298
1.06267
1.06235
1.06203
1.06171
1.0614
1.06109
1.06079
1.06049
1.0602
1.05992
1.05965
1.05939
1.05914
1.0589
1.05868
1.05847
1.05827
1.05809
1.05792
1.05776
1.05762
1.0575
1.05739
1.05729
1.05721
1.05715
1.0571
1.05707
1.05705
1.05704
1.05705
1.05707
1.05711
1.05716
1.05722
1.05729
1.05737
1.05747
1.05758
1.05769
1.05782
1.05795
1.05809
1.05824
1.0584
1.05856
1.05873