# vtk DataFile Version 2.0
LBE mesh
ASCII
DATASET STRUCTURED_POINTS
DIMENSIONS 400 100 1
ASPECT_RATIO 1 1 1
ORIGIN 0 0 0
POINT_DATA 40000
SCALARS rho double 1
LOOKUP_TABLE default
1.14334
1.22731
1.25146
1.25595
1.25805
1.25999
1.26143
1.26236
1.26298
1.26344
1.2638
1.26408
1.26431
1.26449
1.26464
1.26476
1.26486
1.26494
1.26501
1.26506
1.26511
1.26514
1.26517
1.26519
1.2652
1.2652
1.2652
1.2652
1.26519
1.26518
1.26516
1.26514
1.26511
1.26509
1.26506
1.26503
1.26499
1.26496
1.26492
1.26488
1.26484
1.2648
1.26477
1.26473
1.26469
1.26465
1.26462
1.26459
1.26456
1.26453
1.2645
1.26448
1.26446
1.26445
1.26444
1.26444
1.26444
1.26445
1.26446
1.26448
1.26451
1.26455
1.26459
1.26464
1.2647
1.26477
1.26484
1.26493
1.26502
1.26512
1.26524
1.26536
1.26549
1.26563
1.26578
1.26594
1.26611
1.26629
1.26648
1.26667
1.26688
1.2671
1.26732
1.26755
1.26779
1.26804
1.2683
1.26857
1.26884
1.26912
1.2694
1.26969
1.26999
1.27029
1.27059
1.2709
1.27121
1.27152
1.27183
1.27214
1.27245
1.27277
1.27308
1.27338
1.27369
1.27399
1.27429
1.27458
1.27486
1.27514
1.27541
1.27568
1.27594
1.27618
1.27642
1.27665
1.27687
1.27708
1.27728
1.27747
1.27765
1.27781
1.27797
1.27812
1.27826
1.27839
1.27851
1.27862
1.27873
1.27882
1.27891
1.279
1.27907
1.27915
1.27921
1.27927
1.27933
1.27939
1.27943
1.27948
1.27952
1.27956
1.2796
1.27964
1.27967
1.2797
1.27973
1.27976
1.27979
1.27981
1.27983
1.27986
1.27988
1.27989
1.27991
1.27993
1.27995
1.27996
1.27997
1.27999
1.28
1.28001
1.28002
1.28002
1.28003
1.28004
1.28004
1.28005
1.28005
1.28005
1.28005
1.28005
1.28005
1.28005
1.28005
1.28005
1.28004
1.28004
1.28003
1.28003
1.28002
1.28001
1.28001
1.28
1.27999
1.27999
1.27998
1.27997
1.27996
1.27996
1.27995
1.27994
1.27994
1.27993
1.27993
1.27993
1.27992
1.27992
1.27992
1.27993
1.27993
1.27993
1.27994
1.27995
1.27996
1.27997
1.27999
1.28001
1.28003
1.28005
1.28007
1.2801
1.28013
1.28017
1.28021
1.28025
1.28029
1.28034
1.28039
1.28045
1.28051
1.28058
1.28065
1.28072
1.2808
1.28088
1.28097
1.28106
1.28116
1.28127
1.28138
1.28149
1.28161
1.28174
1.28187
1.28201
1.28216
1.28231
1.28247
1.28264
1.28281
1.28299
1.28318
1.28337
1.28357
1.28378
1.284
1.28422
1.28446
1.28469
1.28494
1.2852
1.28546
1.28573
1.286
1.28629
1.28658
1.28688
1.28718
1.28749
1.28781
1.28814
1.28846
1.2888
1.28914
1.28948
1.28983
1.29018
1.29053
1.29089
1.29125
1.2916
1.29196
1.29232
1.29267
1.29303
1.29338
1.29372
1.29406
1.2944
1.29473
1.29505
1.29537
1.29568
1.29598
1.29627
1.29655
1.29683
1.29709
1.29735
1.2976
1.29784
1.29807
1.29829
1.2985
1.29871
1.2989
1.29909
1.29928
1.29945
1.29962
1.29979
1.29995
1.3001
1.30025
1.30039
1.30053
1.30067
1.3008
1.30093
1.30105
1.30118
1.30129
1.30141
1.30152
1.30163
1.30174
1.30184
1.30194
1.30204
1.30213
1.30223
1.30231
1.3024
1.30249
1.30257
1.30265
1.30273
1.30281
1.30288
1.30296
1.30303
1.30311
1.30318
1.30326
1.30334
1.30342
1.3035
1.30359
1.30368
1.30378
1.30388
1.30399
1.3041
1.30422
1.30435
1.3045
1.30465
1.30481
1.30498
1.30517
1.30537
1.30559
1.30582
1.30606
1.30633
1.30661
1.30691
1.30723
1.30758
1.30794
1.30832
1.30873
1.30917
1.30963
1.31011
1.31063
1.31117
1.31174
1.31235
1.31298
1.31366
1.31436
1.31511
1.31589
1.31672
1.31759
1.31852
1.31949
1.32052
1.32162
1.32278
1.32402
1.32534
1.32676
1.32829
1.32995
1.33176
1.33375
1.33596
1.33843
1.34125
1.34451
1.34837
1.35305
1.3591
1.36758
1.37953
1.39645
1.42964
1.21776
1.22669
1.23912
1.24982
1.25531
1.25804
1.25973
1.26095
1.26185
1.26252
1.26303
1.26343
1.26374
1.26399
1.2642
1.26437
1.26451
1.26463
1.26472
1.26481
1.26487
1.26493
1.26497
1.265
1.26503
1.26504
1.26505
1.26506
1.26506
1.26505
1.26504
1.26503
1.26501
1.26499
1.26496
1.26494
1.26491
1.26488
1.26484
1.26481
1.26478
1.26474
1.2647
1.26467
1.26464
1.2646
1.26457
1.26454
1.26451
1.26449
1.26446
1.26445
1.26443
1.26442
1.26441
1.26441
1.26442
1.26443
1.26444
1.26447
1.2645
1.26454
1.26458
1.26463
1.26469
1.26476
1.26484
1.26493
1.26502
1.26513
1.26524
1.26537
1.2655
1.26564
1.26579
1.26596
1.26613
1.26631
1.26649
1.26669
1.2669
1.26712
1.26734
1.26758
1.26782
1.26807
1.26833
1.26859
1.26886
1.26914
1.26943
1.26972
1.27001
1.27031
1.27061
1.27092
1.27123
1.27154
1.27185
1.27216
1.27247
1.27278
1.27309
1.2734
1.2737
1.274
1.2743
1.27459
1.27487
1.27515
1.27542
1.27568
1.27593
1.27618
1.27641
1.27664
1.27686
1.27707
1.27726
1.27745
1.27763
1.27779
1.27795
1.2781
1.27824
1.27836
1.27848
1.2786
1.2787
1.2788
1.27889
1.27897
1.27905
1.27912
1.27919
1.27925
1.27931
1.27936
1.27941
1.27946
1.2795
1.27954
1.27958
1.27962
1.27965
1.27968
1.27971
1.27974
1.27977
1.27979
1.27981
1.27984
1.27986
1.27988
1.2799
1.27991
1.27993
1.27994
1.27996
1.27997
1.27998
1.27999
1.28
1.28001
1.28002
1.28002
1.28003
1.28003
1.28004
1.28004
1.28004
1.28004
1.28004
1.28004
1.28004
1.28003
1.28003
1.28003
1.28002
1.28002
1.28001
1.28
1.28
1.27999
1.27998
1.27998
1.27997
1.27996
1.27996
1.27995
1.27994
1.27994
1.27993
1.27993
1.27992
1.27992
1.27992
1.27992
1.27992
1.27992
1.27993
1.27993
1.27994
1.27995
1.27996
1.27997
1.27999
1.28
1.28002
1.28005
1.28007
1.2801
1.28013
1.28017
1.28021
1.28025
1.2803
1.28034
1.2804
1.28046
1.28052
1.28058
1.28065
1.28073
1.28081
1.28089
1.28098
1.28107
1.28117
1.28128
1.28139
1.28151
1.28163
1.28176
1.28189
1.28203
1.28218
1.28233
1.28249
1.28266
1.28283
1.28301
1.2832
1.2834
1.2836
1.28381
1.28403
1.28425
1.28448
1.28472
1.28497
1.28523
1.28549
1.28576
1.28604
1.28632
1.28661
1.28691
1.28722
1.28753
1.28785
1.28817
1.2885
1.28884
1.28917
1.28952
1.28987
1.29022
1.29057
1.29092
1.29128
1.29164
1.29199
1.29235
1.2927
1.29305
1.2934
1.29375
1.29408
1.29442
1.29475
1.29507
1.29538
1.29569
1.29599
1.29628
1.29656
1.29683
1.2971
1.29735
1.2976
1.29783
1.29806
1.29828
1.29849
1.2987
1.2989
1.29908
1.29927
1.29944
1.29961
1.29978
1.29993
1.30009
1.30024
1.30038
1.30052
1.30066
1.30079
1.30092
1.30104
1.30116
1.30128
1.3014
1.30151
1.30162
1.30172
1.30183
1.30193
1.30202
1.30212
1.30221
1.3023
1.30239
1.30247
1.30255
1.30263
1.30271
1.30279
1.30287
1.30294
1.30302
1.3031
1.30317
1.30325
1.30333
1.30341
1.3035
1.30358
1.30368
1.30377
1.30388
1.30399
1.3041
1.30423
1.30436
1.3045
1.30466
1.30482
1.305
1.30519
1.30539
1.30561
1.30584
1.30609
1.30636
1.30665
1.30695
1.30727
1.30762
1.30799
1.30838
1.30879
1.30923
1.30969
1.31018
1.3107
1.31125
1.31182
1.31243
1.31307
1.31375
1.31446
1.31522
1.31601
1.31684
1.31772
1.31866
1.31964
1.32068
1.32179
1.32297
1.32422
1.32557
1.32701
1.32857
1.33027
1.33212
1.33417
1.33645
1.33902
1.34196
1.34539
1.3495
1.35457
1.36096
1.36925
1.3813
1.40255
1.43644
1.23826
1.2354
1.24305
1.2495
1.25348
1.25635
1.25842
1.25988
1.26093
1.26173
1.26234
1.26283
1.26322
1.26353
1.26379
1.26401
1.26418
1.26433
1.26446
1.26456
1.26465
1.26472
1.26478
1.26482
1.26486
1.26489
1.26491
1.26492
1.26493
1.26493
1.26493
1.26492
1.26491
1.26489
1.26487
1.26485
1.26483
1.2648
1.26477
1.26474
1.26471
1.26468
1.26464
1.26461
1.26458
1.26455
1.26452
1.26449
1.26447
1.26444
1.26442
1.26441
1.2644
1.26439
1.26438
1.26438
1.26439
1.2644
1.26442
1.26445
1.26448
1.26452
1.26456
1.26462
1.26468
1.26475
1.26483
1.26492
1.26502
1.26513
1.26524
1.26537
1.2655
1.26565
1.2658
1.26596
1.26613
1.26632
1.26651
1.26671
1.26692
1.26713
1.26736
1.26759
1.26784
1.26809
1.26835
1.26861
1.26889
1.26917
1.26945
1.26974
1.27004
1.27034
1.27064
1.27095
1.27125
1.27156
1.27187
1.27219
1.2725
1.27281
1.27311
1.27342
1.27372
1.27402
1.27431
1.2746
1.27488
1.27516
1.27543
1.27569
1.27594
1.27618
1.27642
1.27664
1.27686
1.27706
1.27726
1.27744
1.27762
1.27778
1.27794
1.27809
1.27822
1.27835
1.27847
1.27858
1.27868
1.27878
1.27887
1.27895
1.27903
1.2791
1.27916
1.27923
1.27928
1.27934
1.27939
1.27943
1.27948
1.27952
1.27956
1.27959
1.27963
1.27966
1.27969
1.27972
1.27975
1.27977
1.2798
1.27982
1.27984
1.27986
1.27988
1.2799
1.27991
1.27993
1.27994
1.27996
1.27997
1.27998
1.27999
1.28
1.28
1.28001
1.28002
1.28002
1.28002
1.28003
1.28003
1.28003
1.28003
1.28003
1.28002
1.28002
1.28002
1.28002
1.28001
1.28001
1.28
1.27999
1.27999
1.27998
1.27997
1.27997
1.27996
1.27995
1.27995
1.27994
1.27993
1.27993
1.27992
1.27992
1.27992
1.27991
1.27991
1.27991
1.27991
1.27992
1.27992
1.27993
1.27993
1.27994
1.27995
1.27997
1.27998
1.28
1.28002
1.28004
1.28007
1.2801
1.28013
1.28017
1.28021
1.28025
1.28029
1.28034
1.2804
1.28046
1.28052
1.28058
1.28065
1.28073
1.28081
1.28089
1.28098
1.28108
1.28118
1.28128
1.2814
1.28151
1.28163
1.28176
1.2819
1.28204
1.28219
1.28234
1.2825
1.28267
1.28284
1.28303
1.28322
1.28341
1.28361
1.28383
1.28404
1.28427
1.2845
1.28474
1.28499
1.28525
1.28551
1.28578
1.28606
1.28635
1.28664
1.28694
1.28724
1.28756
1.28788
1.2882
1.28853
1.28887
1.28921
1.28955
1.2899
1.29025
1.2906
1.29096
1.29131
1.29167
1.29202
1.29238
1.29273
1.29308
1.29343
1.29377
1.29411
1.29445
1.29477
1.29509
1.2954
1.29571
1.29601
1.2963
1.29657
1.29685
1.29711
1.29736
1.29761
1.29784
1.29807
1.29829
1.2985
1.2987
1.29889
1.29908
1.29926
1.29944
1.29961
1.29977
1.29993
1.30008
1.30023
1.30037
1.30051
1.30065
1.30078
1.30091
1.30103
1.30115
1.30127
1.30139
1.3015
1.30161
1.30171
1.30181
1.30191
1.30201
1.30211
1.3022
1.30229
1.30237
1.30246
1.30254
1.30262
1.3027
1.30278
1.30286
1.30293
1.30301
1.30308
1.30316
1.30324
1.30332
1.3034
1.30348
1.30357
1.30367
1.30376
1.30387
1.30398
1.3041
1.30422
1.30436
1.3045
1.30466
1.30482
1.305
1.30519
1.3054
1.30562
1.30585
1.30611
1.30638
1.30666
1.30697
1.3073
1.30764
1.30801
1.3084
1.30882
1.30926
1.30973
1.31022
1.31074
1.31129
1.31187
1.31249
1.31313
1.31381
1.31453
1.31528
1.31608
1.31692
1.31781
1.31874
1.31973
1.32078
1.32189
1.32308
1.32434
1.32569
1.32714
1.32872
1.33042
1.33229
1.33435
1.33665
1.33924
1.3422
1.34563
1.34968
1.35458
1.36071
1.36866
1.37861
1.38942
1.39992
1.24617
1.24509
1.24744
1.25022
1.25337
1.25593
1.25778
1.25918
1.26027
1.26113
1.2618
1.26234
1.26278
1.26313
1.26343
1.26368
1.26389
1.26406
1.26421
1.26433
1.26444
1.26452
1.2646
1.26466
1.26471
1.26474
1.26477
1.2648
1.26481
1.26482
1.26482
1.26482
1.26481
1.2648
1.26479
1.26477
1.26475
1.26472
1.2647
1.26467
1.26464
1.26461
1.26458
1.26456
1.26453
1.2645
1.26447
1.26444
1.26442
1.2644
1.26438
1.26437
1.26436
1.26435
1.26435
1.26435
1.26436
1.26437
1.26439
1.26442
1.26445
1.26449
1.26454
1.2646
1.26466
1.26474
1.26482
1.26491
1.26501
1.26512
1.26524
1.26536
1.2655
1.26564
1.2658
1.26596
1.26614
1.26632
1.26651
1.26671
1.26692
1.26714
1.26737
1.26761
1.26785
1.2681
1.26836
1.26863
1.2689
1.26919
1.26947
1.26976
1.27006
1.27036
1.27066
1.27097
1.27128
1.27159
1.2719
1.27221
1.27252
1.27283
1.27314
1.27344
1.27374
1.27404
1.27433
1.27462
1.2749
1.27518
1.27545
1.27571
1.27596
1.2762
1.27643
1.27666
1.27687
1.27707
1.27727
1.27745
1.27762
1.27778
1.27794
1.27808
1.27822
1.27834
1.27846
1.27857
1.27867
1.27876
1.27885
1.27893
1.27901
1.27908
1.27915
1.27921
1.27926
1.27932
1.27937
1.27941
1.27946
1.2795
1.27954
1.27957
1.27961
1.27964
1.27967
1.2797
1.27973
1.27975
1.27978
1.2798
1.27982
1.27984
1.27986
1.27988
1.27989
1.27991
1.27992
1.27994
1.27995
1.27996
1.27997
1.27998
1.27999
1.27999
1.28
1.28001
1.28001
1.28001
1.28001
1.28001
1.28001
1.28001
1.28001
1.28001
1.28001
1.28
1.28
1.27999
1.27999
1.27998
1.27997
1.27997
1.27996
1.27996
1.27995
1.27994
1.27994
1.27993
1.27992
1.27992
1.27991
1.27991
1.27991
1.2799
1.2799
1.2799
1.2799
1.27991
1.27991
1.27992
1.27992
1.27993
1.27995
1.27996
1.27998
1.27999
1.28001
1.28004
1.28006
1.28009
1.28013
1.28016
1.2802
1.28024
1.28029
1.28034
1.28039
1.28045
1.28051
1.28058
1.28065
1.28073
1.28081
1.28089
1.28098
1.28108
1.28118
1.28128
1.2814
1.28151
1.28164
1.28177
1.2819
1.28204
1.28219
1.28235
1.28251
1.28267
1.28285
1.28303
1.28322
1.28342
1.28362
1.28383
1.28405
1.28428
1.28451
1.28475
1.285
1.28526
1.28552
1.2858
1.28608
1.28636
1.28666
1.28696
1.28726
1.28758
1.2879
1.28822
1.28856
1.28889
1.28923
1.28958
1.28993
1.29028
1.29063
1.29099
1.29134
1.2917
1.29206
1.29241
1.29277
1.29312
1.29346
1.29381
1.29415
1.29448
1.2948
1.29512
1.29543
1.29574
1.29603
1.29632
1.2966
1.29687
1.29713
1.29738
1.29762
1.29786
1.29808
1.2983
1.29851
1.29871
1.2989
1.29909
1.29927
1.29944
1.29961
1.29977
1.29993
1.30008
1.30023
1.30037
1.30051
1.30064
1.30077
1.3009
1.30103
1.30115
1.30126
1.30138
1.30149
1.3016
1.3017
1.30181
1.30191
1.302
1.3021
1.30219
1.30228
1.30237
1.30245
1.30253
1.30261
1.30269
1.30277
1.30284
1.30292
1.303
1.30307
1.30315
1.30322
1.3033
1.30339
1.30347
1.30356
1.30365
1.30375
1.30386
1.30397
1.30408
1.30421
1.30435
1.30449
1.30465
1.30481
1.30499
1.30519
1.30539
1.30561
1.30585
1.3061
1.30637
1.30666
1.30697
1.3073
1.30765
1.30802
1.30841
1.30883
1.30927
1.30974
1.31024
1.31076
1.31131
1.31189
1.31251
1.31315
1.31384
1.31456
1.31531
1.31611
1.31695
1.31784
1.31878
1.31977
1.32081
1.32193
1.32311
1.32437
1.32572
1.32717
1.32873
1.33043
1.33228
1.33432
1.33658
1.33911
1.34198
1.34526
1.34908
1.35356
1.35881
1.3649
1.37167
1.37718
1.37737
1.25066
1.25022
1.25078
1.25234
1.25432
1.25609
1.25762
1.25888
1.25991
1.26073
1.26141
1.26197
1.26242
1.26281
1.26313
1.2634
1.26363
1.26382
1.26398
1.26413
1.26424
1.26435
1.26443
1.2645
1.26456
1.26461
1.26465
1.26468
1.2647
1.26471
1.26472
1.26472
1.26472
1.26472
1.2647
1.26469
1.26467
1.26465
1.26463
1.26461
1.26458
1.26455
1.26453
1.2645
1.26447
1.26445
1.26442
1.2644
1.26437
1.26436
1.26434
1.26433
1.26432
1.26431
1.26431
1.26431
1.26432
1.26434
1.26436
1.26439
1.26442
1.26447
1.26452
1.26457
1.26464
1.26472
1.2648
1.26489
1.26499
1.2651
1.26522
1.26535
1.26549
1.26563
1.26579
1.26596
1.26613
1.26632
1.26651
1.26671
1.26692
1.26715
1.26737
1.26761
1.26786
1.26811
1.26837
1.26864
1.26892
1.2692
1.26949
1.26978
1.27008
1.27038
1.27068
1.27099
1.2713
1.27161
1.27193
1.27224
1.27255
1.27286
1.27317
1.27347
1.27377
1.27407
1.27436
1.27465
1.27493
1.27521
1.27547
1.27573
1.27598
1.27622
1.27645
1.27668
1.27689
1.27709
1.27728
1.27746
1.27763
1.27779
1.27794
1.27809
1.27822
1.27834
1.27846
1.27856
1.27866
1.27876
1.27884
1.27892
1.279
1.27907
1.27913
1.27919
1.27925
1.2793
1.27935
1.2794
1.27944
1.27948
1.27952
1.27955
1.27959
1.27962
1.27965
1.27968
1.27971
1.27973
1.27976
1.27978
1.2798
1.27982
1.27984
1.27986
1.27988
1.27989
1.27991
1.27992
1.27993
1.27994
1.27995
1.27996
1.27997
1.27998
1.27998
1.27999
1.27999
1.28
1.28
1.28
1.28
1.28
1.28
1.27999
1.27999
1.27999
1.27998
1.27998
1.27997
1.27997
1.27996
1.27996
1.27995
1.27994
1.27994
1.27993
1.27992
1.27992
1.27991
1.27991
1.2799
1.2799
1.2799
1.27989
1.27989
1.27989
1.27989
1.2799
1.2799
1.27991
1.27991
1.27992
1.27994
1.27995
1.27997
1.27999
1.28001
1.28003
1.28006
1.28009
1.28012
1.28015
1.28019
1.28024
1.28028
1.28033
1.28039
1.28044
1.28051
1.28057
1.28064
1.28072
1.2808
1.28089
1.28098
1.28107
1.28117
1.28128
1.28139
1.28151
1.28163
1.28176
1.2819
1.28204
1.28219
1.28234
1.2825
1.28267
1.28285
1.28303
1.28322
1.28342
1.28362
1.28383
1.28405
1.28428
1.28451
1.28476
1.28501
1.28527
1.28553
1.2858
1.28608
1.28637
1.28667
1.28697
1.28728
1.28759
1.28791
1.28824
1.28857
1.28891
1.28925
1.2896
1.28995
1.2903
1.29066
1.29102
1.29137
1.29173
1.29209
1.29245
1.2928
1.29315
1.2935
1.29384
1.29418
1.29451
1.29484
1.29516
1.29547
1.29577
1.29607
1.29635
1.29663
1.2969
1.29716
1.29741
1.29765
1.29788
1.2981
1.29832
1.29853
1.29872
1.29892
1.2991
1.29928
1.29945
1.29962
1.29978
1.29993
1.30008
1.30023
1.30037
1.30051
1.30064
1.30077
1.3009
1.30102
1.30114
1.30126
1.30138
1.30149
1.3016
1.3017
1.3018
1.3019
1.302
1.30209
1.30218
1.30227
1.30236
1.30244
1.30252
1.3026
1.30268
1.30276
1.30283
1.30291
1.30298
1.30306
1.30313
1.30321
1.30329
1.30337
1.30346
1.30354
1.30364
1.30373
1.30384
1.30395
1.30407
1.30419
1.30433
1.30447
1.30463
1.30479
1.30497
1.30517
1.30537
1.30559
1.30583
1.30608
1.30635
1.30664
1.30695
1.30728
1.30763
1.308
1.3084
1.30882
1.30926
1.30973
1.31022
1.31075
1.3113
1.31188
1.3125
1.31314
1.31383
1.31454
1.3153
1.3161
1.31694
1.31782
1.31876
1.31974
1.32079
1.32189
1.32306
1.32431
1.32565
1.32708
1.32861
1.33028
1.33208
1.33406
1.33624
1.33866
1.34136
1.34439
1.34781
1.35165
1.35589
1.36024
1.36415
1.36686
1.36613
1.25388
1.25333
1.25345
1.25431
1.25544
1.25667
1.25785
1.25889
1.25978
1.26054
1.26117
1.26171
1.26217
1.26256
1.26289
1.26317
1.26341
1.26361
1.26379
1.26394
1.26407
1.26418
1.26428
1.26436
1.26443
1.26448
1.26453
1.26456
1.26459
1.26461
1.26462
1.26463
1.26463
1.26463
1.26462
1.26461
1.2646
1.26458
1.26456
1.26454
1.26452
1.26449
1.26447
1.26444
1.26442
1.26439
1.26437
1.26435
1.26433
1.26431
1.26429
1.26428
1.26427
1.26427
1.26427
1.26427
1.26428
1.2643
1.26432
1.26435
1.26439
1.26443
1.26448
1.26454
1.26461
1.26469
1.26477
1.26487
1.26497
1.26508
1.2652
1.26533
1.26547
1.26562
1.26578
1.26594
1.26612
1.26631
1.2665
1.26671
1.26692
1.26714
1.26737
1.26761
1.26786
1.26812
1.26838
1.26865
1.26893
1.26921
1.2695
1.2698
1.27009
1.2704
1.27071
1.27101
1.27133
1.27164
1.27195
1.27227
1.27258
1.27289
1.2732
1.2735
1.27381
1.2741
1.2744
1.27468
1.27497
1.27524
1.27551
1.27577
1.27601
1.27626
1.27649
1.27671
1.27692
1.27712
1.27731
1.27749
1.27765
1.27781
1.27796
1.2781
1.27823
1.27835
1.27846
1.27857
1.27866
1.27875
1.27884
1.27892
1.27899
1.27906
1.27912
1.27918
1.27923
1.27928
1.27933
1.27938
1.27942
1.27946
1.2795
1.27953
1.27957
1.2796
1.27963
1.27966
1.27969
1.27971
1.27974
1.27976
1.27978
1.2798
1.27982
1.27984
1.27986
1.27987
1.27989
1.2799
1.27991
1.27992
1.27993
1.27994
1.27995
1.27996
1.27997
1.27997
1.27997
1.27998
1.27998
1.27998
1.27998
1.27998
1.27998
1.27998
1.27998
1.27997
1.27997
1.27996
1.27996
1.27995
1.27995
1.27994
1.27994
1.27993
1.27992
1.27992
1.27991
1.2799
1.2799
1.27989
1.27989
1.27989
1.27988
1.27988
1.27988
1.27988
1.27988
1.27989
1.27989
1.2799
1.2799
1.27991
1.27992
1.27994
1.27995
1.27997
1.27999
1.28002
1.28004
1.28007
1.28011
1.28014
1.28018
1.28023
1.28027
1.28032
1.28037
1.28043
1.2805
1.28056
1.28063
1.28071
1.28079
1.28087
1.28096
1.28106
1.28116
1.28127
1.28138
1.2815
1.28162
1.28175
1.28188
1.28203
1.28217
1.28233
1.28249
1.28266
1.28284
1.28302
1.28321
1.28341
1.28361
1.28383
1.28405
1.28427
1.28451
1.28475
1.285
1.28526
1.28553
1.2858
1.28608
1.28637
1.28667
1.28697
1.28728
1.2876
1.28792
1.28825
1.28859
1.28892
1.28927
1.28962
1.28997
1.29033
1.29068
1.29104
1.2914
1.29176
1.29212
1.29248
1.29284
1.29319
1.29354
1.29388
1.29422
1.29456
1.29488
1.2952
1.29551
1.29582
1.29611
1.2964
1.29667
1.29694
1.2972
1.29744
1.29768
1.29791
1.29813
1.29835
1.29855
1.29875
1.29894
1.29912
1.2993
1.29947
1.29963
1.29979
1.29994
1.30009
1.30024
1.30038
1.30051
1.30065
1.30078
1.3009
1.30103
1.30115
1.30126
1.30138
1.30149
1.3016
1.3017
1.3018
1.3019
1.302
1.30209
1.30218
1.30227
1.30236
1.30244
1.30252
1.3026
1.30268
1.30275
1.30283
1.3029
1.30297
1.30305
1.30312
1.3032
1.30327
1.30335
1.30344
1.30352
1.30362
1.30371
1.30382
1.30392
1.30404
1.30417
1.3043
1.30444
1.3046
1.30476
1.30494
1.30513
1.30534
1.30556
1.3058
1.30605
1.30632
1.30661
1.30692
1.30725
1.3076
1.30797
1.30836
1.30878
1.30922
1.30969
1.31019
1.31071
1.31126
1.31184
1.31246
1.3131
1.31378
1.3145
1.31525
1.31604
1.31688
1.31776
1.31868
1.31966
1.32069
1.32179
1.32294
1.32417
1.32548
1.32688
1.32837
1.32999
1.33173
1.33362
1.33568
1.33793
1.34041
1.34313
1.34608
1.34924
1.35247
1.35552
1.35788
1.35909
1.3588
1.25609
1.25549
1.25547
1.25589
1.25658
1.25742
1.25828
1.25909
1.25984
1.2605
1.26107
1.26157
1.26201
1.26238
1.26271
1.26299
1.26323
1.26345
1.26363
1.26379
1.26393
1.26404
1.26415
1.26423
1.26431
1.26437
1.26442
1.26446
1.26449
1.26452
1.26454
1.26455
1.26455
1.26456
1.26455
1.26454
1.26453
1.26452
1.2645
1.26448
1.26446
1.26444
1.26441
1.26439
1.26437
1.26434
1.26432
1.2643
1.26428
1.26426
1.26425
1.26424
1.26423
1.26423
1.26423
1.26423
1.26424
1.26426
1.26429
1.26432
1.26435
1.2644
1.26445
1.26451
1.26458
1.26466
1.26474
1.26484
1.26494
1.26505
1.26517
1.26531
1.26545
1.2656
1.26576
1.26593
1.2661
1.26629
1.26649
1.26669
1.26691
1.26713
1.26737
1.26761
1.26786
1.26811
1.26838
1.26865
1.26893
1.26922
1.26951
1.26981
1.27011
1.27041
1.27072
1.27104
1.27135
1.27166
1.27198
1.27229
1.27261
1.27292
1.27323
1.27354
1.27384
1.27414
1.27443
1.27472
1.275
1.27528
1.27555
1.27581
1.27605
1.27629
1.27652
1.27674
1.27695
1.27715
1.27734
1.27752
1.27768
1.27784
1.27798
1.27812
1.27825
1.27836
1.27847
1.27858
1.27867
1.27876
1.27884
1.27892
1.27899
1.27905
1.27911
1.27917
1.27922
1.27927
1.27932
1.27936
1.2794
1.27944
1.27948
1.27952
1.27955
1.27958
1.27961
1.27964
1.27966
1.27969
1.27971
1.27974
1.27976
1.27978
1.2798
1.27982
1.27983
1.27985
1.27987
1.27988
1.27989
1.2799
1.27991
1.27992
1.27993
1.27994
1.27995
1.27995
1.27996
1.27996
1.27996
1.27996
1.27996
1.27996
1.27996
1.27996
1.27996
1.27996
1.27995
1.27995
1.27994
1.27994
1.27993
1.27993
1.27992
1.27991
1.27991
1.2799
1.2799
1.27989
1.27988
1.27988
1.27988
1.27987
1.27987
1.27987
1.27987
1.27987
1.27987
1.27987
1.27988
1.27988
1.27989
1.2799
1.27991
1.27993
1.27994
1.27996
1.27998
1.28
1.28003
1.28006
1.28009
1.28013
1.28017
1.28021
1.28026
1.28031
1.28036
1.28042
1.28048
1.28055
1.28062
1.28069
1.28077
1.28086
1.28095
1.28104
1.28114
1.28125
1.28136
1.28148
1.2816
1.28173
1.28187
1.28201
1.28216
1.28231
1.28247
1.28264
1.28282
1.283
1.28319
1.28339
1.2836
1.28381
1.28403
1.28426
1.28449
1.28474
1.28499
1.28525
1.28552
1.28579
1.28607
1.28636
1.28666
1.28697
1.28728
1.2876
1.28792
1.28825
1.28859
1.28893
1.28928
1.28963
1.28998
1.29034
1.2907
1.29106
1.29143
1.29179
1.29215
1.29251
1.29287
1.29323
1.29358
1.29393
1.29427
1.2946
1.29493
1.29525
1.29556
1.29587
1.29616
1.29644
1.29672
1.29699
1.29724
1.29749
1.29772
1.29795
1.29817
1.29838
1.29858
1.29878
1.29897
1.29915
1.29932
1.29949
1.29965
1.29981
1.29996
1.30011
1.30025
1.30039
1.30052
1.30066
1.30078
1.30091
1.30103
1.30115
1.30127
1.30138
1.30149
1.3016
1.3017
1.30181
1.3019
1.302
1.30209
1.30218
1.30227
1.30235
1.30244
1.30252
1.30259
1.30267
1.30274
1.30282
1.30289
1.30296
1.30303
1.30311
1.30318
1.30326
1.30334
1.30342
1.3035
1.30359
1.30369
1.30379
1.3039
1.30401
1.30413
1.30427
1.30441
1.30456
1.30473
1.3049
1.30509
1.3053
1.30552
1.30575
1.306
1.30627
1.30656
1.30687
1.30719
1.30754
1.30791
1.30831
1.30872
1.30916
1.30963
1.31012
1.31064
1.31119
1.31177
1.31238
1.31303
1.3137
1.31441
1.31516
1.31595
1.31677
1.31764
1.31856
1.31952
1.32054
1.32161
1.32275
1.32395
1.32522
1.32658
1.32802
1.32957
1.33122
1.333
1.33492
1.33699
1.33922
1.34159
1.34408
1.34662
1.34904
1.35115
1.35265
1.35324
1.35299
1.25761
1.2571
1.25699
1.25718
1.2576
1.25816
1.25878
1.25941
1.26002
1.26057
1.26108
1.26153
1.26193
1.26228
1.26259
1.26286
1.2631
1.26332
1.2635
1.26366
1.2638
1.26392
1.26403
1.26412
1.2642
1.26427
1.26432
1.26437
1.2644
1.26443
1.26445
1.26447
1.26448
1.26448
1.26448
1.26448
1.26447
1.26446
1.26444
1.26442
1.2644
1.26438
1.26436
1.26434
1.26431
1.26429
1.26427
1.26425
1.26423
1.26422
1.2642
1.26419
1.26418
1.26418
1.26418
1.26419
1.2642
1.26422
1.26424
1.26428
1.26431
1.26436
1.26441
1.26447
1.26454
1.26462
1.26471
1.2648
1.26491
1.26502
1.26514
1.26528
1.26542
1.26557
1.26573
1.2659
1.26608
1.26627
1.26647
1.26668
1.26689
1.26712
1.26735
1.2676
1.26785
1.26811
1.26838
1.26865
1.26893
1.26922
1.26952
1.26982
1.27012
1.27043
1.27074
1.27105
1.27137
1.27169
1.272
1.27232
1.27264
1.27295
1.27327
1.27357
1.27388
1.27418
1.27448
1.27477
1.27505
1.27532
1.27559
1.27585
1.2761
1.27634
1.27657
1.27679
1.277
1.27719
1.27738
1.27755
1.27772
1.27787
1.27801
1.27815
1.27827
1.27838
1.27849
1.27859
1.27868
1.27877
1.27884
1.27892
1.27898
1.27905
1.27911
1.27916
1.27921
1.27926
1.27931
1.27935
1.27939
1.27943
1.27946
1.2795
1.27953
1.27956
1.27959
1.27962
1.27964
1.27967
1.27969
1.27972
1.27974
1.27976
1.27978
1.2798
1.27981
1.27983
1.27984
1.27986
1.27987
1.27988
1.27989
1.2799
1.27991
1.27992
1.27993
1.27993
1.27994
1.27994
1.27994
1.27995
1.27995
1.27995
1.27994
1.27994
1.27994
1.27994
1.27993
1.27993
1.27993
1.27992
1.27992
1.27991
1.2799
1.2799
1.27989
1.27989
1.27988
1.27987
1.27987
1.27986
1.27986
1.27986
1.27985
1.27985
1.27985
1.27985
1.27985
1.27986
1.27986
1.27987
1.27987
1.27988
1.2799
1.27991
1.27993
1.27994
1.27997
1.27999
1.28001
1.28004
1.28008
1.28011
1.28015
1.28019
1.28024
1.28029
1.28034
1.2804
1.28046
1.28053
1.2806
1.28067
1.28075
1.28084
1.28093
1.28102
1.28112
1.28123
1.28134
1.28146
1.28158
1.28171
1.28184
1.28198
1.28213
1.28229
1.28245
1.28262
1.28279
1.28298
1.28317
1.28337
1.28357
1.28379
1.28401
1.28424
1.28447
1.28472
1.28497
1.28523
1.2855
1.28577
1.28606
1.28635
1.28665
1.28696
1.28727
1.28759
1.28792
1.28825
1.28859
1.28893
1.28928
1.28964
1.28999
1.29036
1.29072
1.29108
1.29145
1.29182
1.29218
1.29255
1.29291
1.29327
1.29362
1.29397
1.29431
1.29465
1.29498
1.2953
1.29562
1.29592
1.29621
1.2965
1.29677
1.29704
1.29729
1.29754
1.29777
1.298
1.29821
1.29842
1.29862
1.29881
1.299
1.29918
1.29935
1.29951
1.29967
1.29983
1.29998
1.30012
1.30027
1.3004
1.30054
1.30067
1.3008
1.30092
1.30104
1.30116
1.30128
1.30139
1.3015
1.30161
1.30171
1.30181
1.30191
1.302
1.3021
1.30219
1.30227
1.30236
1.30244
1.30252
1.30259
1.30267
1.30274
1.30281
1.30288
1.30295
1.30302
1.30309
1.30317
1.30324
1.30332
1.3034
1.30348
1.30357
1.30366
1.30376
1.30386
1.30398
1.3041
1.30423
1.30437
1.30452
1.30468
1.30486
1.30504
1.30525
1.30546
1.3057
1.30595
1.30621
1.3065
1.3068
1.30713
1.30747
1.30784
1.30823
1.30864
1.30908
1.30955
1.31004
1.31055
1.3111
1.31168
1.31228
1.31292
1.31359
1.31429
1.31503
1.31581
1.31663
1.31749
1.31839
1.31933
1.32033
1.32138
1.32248
1.32365
1.32488
1.32619
1.32757
1.32903
1.3306
1.33225
1.33402
1.33589
1.33786
1.3399
1.34197
1.34398
1.3458
1.34727
1.34825
1.34858
1.34823
1.25873
1.25831
1.25815
1.25822
1.25848
1.25886
1.25931
1.25979
1.26027
1.26073
1.26116
1.26155
1.26191
1.26224
1.26253
1.26279
1.26302
1.26322
1.2634
1.26356
1.2637
1.26383
1.26393
1.26403
1.26411
1.26418
1.26424
1.26428
1.26432
1.26436
1.26438
1.2644
1.26441
1.26442
1.26442
1.26442
1.26441
1.2644
1.26439
1.26437
1.26435
1.26433
1.26431
1.26429
1.26427
1.26425
1.26423
1.26421
1.26419
1.26417
1.26416
1.26415
1.26414
1.26414
1.26414
1.26415
1.26416
1.26418
1.2642
1.26424
1.26427
1.26432
1.26437
1.26443
1.2645
1.26458
1.26467
1.26477
1.26487
1.26499
1.26511
1.26525
1.26539
1.26554
1.2657
1.26588
1.26606
1.26625
1.26645
1.26666
1.26687
1.2671
1.26734
1.26758
1.26784
1.2681
1.26837
1.26865
1.26893
1.26922
1.26952
1.26982
1.27013
1.27044
1.27075
1.27107
1.27139
1.27171
1.27203
1.27235
1.27267
1.27299
1.2733
1.27361
1.27392
1.27422
1.27452
1.27481
1.27509
1.27537
1.27564
1.2759
1.27615
1.27639
1.27662
1.27684
1.27705
1.27724
1.27742
1.2776
1.27776
1.27791
1.27805
1.27818
1.2783
1.27841
1.27851
1.27861
1.2787
1.27878
1.27885
1.27892
1.27899
1.27905
1.2791
1.27916
1.27921
1.27925
1.2793
1.27934
1.27938
1.27941
1.27945
1.27948
1.27951
1.27954
1.27957
1.2796
1.27962
1.27965
1.27967
1.2797
1.27972
1.27974
1.27976
1.27978
1.27979
1.27981
1.27982
1.27984
1.27985
1.27986
1.27987
1.27988
1.27989
1.2799
1.27991
1.27991
1.27992
1.27992
1.27992
1.27993
1.27993
1.27993
1.27993
1.27992
1.27992
1.27992
1.27992
1.27991
1.27991
1.2799
1.2799
1.27989
1.27989
1.27988
1.27987
1.27987
1.27986
1.27986
1.27985
1.27985
1.27984
1.27984
1.27984
1.27984
1.27984
1.27984
1.27984
1.27984
1.27984
1.27985
1.27986
1.27987
1.27988
1.27989
1.27991
1.27993
1.27995
1.27997
1.28
1.28003
1.28006
1.28009
1.28013
1.28017
1.28022
1.28027
1.28032
1.28038
1.28044
1.2805
1.28057
1.28065
1.28073
1.28081
1.2809
1.28099
1.28109
1.2812
1.28131
1.28143
1.28155
1.28168
1.28181
1.28195
1.2821
1.28226
1.28242
1.28259
1.28276
1.28295
1.28314
1.28333
1.28354
1.28375
1.28397
1.2842
1.28444
1.28469
1.28494
1.2852
1.28547
1.28575
1.28603
1.28632
1.28663
1.28693
1.28725
1.28757
1.2879
1.28824
1.28858
1.28893
1.28928
1.28964
1.29
1.29036
1.29073
1.2911
1.29147
1.29184
1.29221
1.29258
1.29294
1.29331
1.29366
1.29402
1.29436
1.2947
1.29504
1.29536
1.29567
1.29598
1.29627
1.29656
1.29683
1.2971
1.29735
1.29759
1.29783
1.29805
1.29826
1.29847
1.29867
1.29886
1.29904
1.29921
1.29938
1.29954
1.2997
1.29985
1.3
1.30015
1.30028
1.30042
1.30055
1.30068
1.30081
1.30093
1.30105
1.30117
1.30129
1.3014
1.30151
1.30161
1.30172
1.30182
1.30192
1.30201
1.3021
1.30219
1.30228
1.30236
1.30244
1.30252
1.30259
1.30267
1.30274
1.30281
1.30288
1.30295
1.30301
1.30308
1.30315
1.30322
1.3033
1.30337
1.30345
1.30354
1.30363
1.30372
1.30383
1.30394
1.30406
1.30418
1.30432
1.30447
1.30463
1.3048
1.30498
1.30518
1.3054
1.30563
1.30588
1.30614
1.30642
1.30672
1.30704
1.30739
1.30775
1.30814
1.30855
1.30898
1.30944
1.30993
1.31044
1.31098
1.31155
1.31215
1.31278
1.31344
1.31414
1.31487
1.31564
1.31644
1.31728
1.31817
1.31909
1.32007
1.32109
1.32216
1.32328
1.32447
1.32571
1.32703
1.32841
1.32987
1.3314
1.333
1.33468
1.3364
1.33814
1.33984
1.34143
1.34281
1.34387
1.34452
1.34468
1.34431
1.25959
1.25924
1.25907
1.25908
1.25923
1.25948
1.2598
1.26017
1.26055
1.26092
1.26129
1.26163
1.26195
1.26224
1.2625
1.26275
1.26296
1.26316
1.26333
1.26349
1.26363
1.26375
1.26386
1.26395
1.26403
1.2641
1.26416
1.26421
1.26425
1.26429
1.26432
1.26434
1.26435
1.26436
1.26436
1.26436
1.26435
1.26435
1.26433
1.26432
1.2643
1.26428
1.26426
1.26424
1.26422
1.2642
1.26418
1.26416
1.26415
1.26413
1.26412
1.26411
1.2641
1.2641
1.2641
1.26411
1.26412
1.26414
1.26416
1.26419
1.26423
1.26428
1.26433
1.26439
1.26447
1.26454
1.26463
1.26473
1.26484
1.26495
1.26508
1.26521
1.26536
1.26551
1.26567
1.26585
1.26603
1.26622
1.26642
1.26663
1.26685
1.26708
1.26732
1.26757
1.26782
1.26808
1.26836
1.26864
1.26892
1.26922
1.26952
1.26982
1.27013
1.27045
1.27077
1.27109
1.27141
1.27173
1.27205
1.27238
1.2727
1.27302
1.27334
1.27365
1.27396
1.27426
1.27456
1.27486
1.27514
1.27542
1.27569
1.27596
1.27621
1.27645
1.27668
1.27689
1.2771
1.27729
1.27748
1.27765
1.2778
1.27795
1.27809
1.27821
1.27833
1.27844
1.27854
1.27863
1.27871
1.27879
1.27886
1.27893
1.27899
1.27905
1.2791
1.27915
1.2792
1.27925
1.27929
1.27933
1.27936
1.2794
1.27943
1.27946
1.27949
1.27952
1.27955
1.27958
1.2796
1.27963
1.27965
1.27967
1.2797
1.27972
1.27973
1.27975
1.27977
1.27979
1.2798
1.27982
1.27983
1.27984
1.27985
1.27986
1.27987
1.27988
1.27988
1.27989
1.2799
1.2799
1.2799
1.27991
1.27991
1.27991
1.27991
1.27991
1.2799
1.2799
1.2799
1.27989
1.27989
1.27988
1.27988
1.27987
1.27987
1.27986