# vtk DataFile Version 2.0
LBE mesh
ASCII
DATASET STRUCTURED_POINTS
DIMENSIONS 400 100 1
ASPECT_RATIO 1 1 1
ORIGIN 0 0 0
POINT_DATA 40000
SCALARS rho double 1
LOOKUP_TABLE default
1.02343
1.07477
1.09025
1.09437
1.09658
1.09826
1.09942
1.10018
1.1007
1.10108
1.10136
1.10157
1.10174
1.10186
1.10195
1.10202
1.10207
1.10211
1.10213
1.10214
1.10214
1.10213
1.10211
1.10209
1.10206
1.10203
1.102
1.10196
1.10192
1.10187
1.10182
1.10178
1.10173
1.10168
1.10163
1.10158
1.10153
1.10148
1.10143
1.10138
1.10133
1.10129
1.10124
1.1012
1.10116
1.10113
1.1011
1.10107
1.10104
1.10102
1.101
1.10099
1.10099
1.10098
1.10099
1.101
1.10101
1.10104
1.10107
1.1011
1.10115
1.1012
1.10126
1.10133
1.1014
1.10149
1.10158
1.10169
1.1018
1.10192
1.10205
1.10219
1.10233
1.10249
1.10266
1.10283
1.10302
1.10321
1.10341
1.10363
1.10385
1.10408
1.10431
1.10456
1.10481
1.10508
1.10534
1.10562
1.1059
1.10619
1.10649
1.10679
1.10709
1.1074
1.10771
1.10803
1.10835
1.10867
1.10899
1.10931
1.10963
1.10995
1.11027
1.11059
1.1109
1.11121
1.11152
1.11182
1.11211
1.1124
1.11268
1.11295
1.11322
1.11348
1.11373
1.11396
1.11419
1.11441
1.11462
1.11482
1.11501
1.11518
1.11535
1.11551
1.11566
1.11579
1.11592
1.11604
1.11616
1.11626
1.11636
1.11645
1.11653
1.11661
1.11669
1.11676
1.11682
1.11688
1.11694
1.117
1.11705
1.1171
1.11715
1.1172
1.11725
1.1173
1.11735
1.1174
1.11745
1.1175
1.11755
1.1176
1.11765
1.11771
1.11776
1.11782
1.11787
1.11793
1.11799
1.11805
1.11812
1.11818
1.11825
1.11831
1.11838
1.11845
1.11852
1.11859
1.11866
1.11873
1.1188
1.11888
1.11895
1.11902
1.1191
1.11917
1.11925
1.11932
1.1194
1.11947
1.11955
1.11963
1.1197
1.11978
1.11986
1.11993
1.12001
1.12009
1.12016
1.12024
1.12032
1.1204
1.12048
1.12056
1.12064
1.12072
1.12081
1.12089
1.12097
1.12106
1.12114
1.12123
1.12132
1.12141
1.1215
1.12159
1.12168
1.12178
1.12187
1.12196
1.12206
1.12216
1.12225
1.12235
1.12245
1.12255
1.12265
1.12275
1.12285
1.12295
1.12305
1.12315
1.12325
1.12335
1.12345
1.12355
1.12365
1.12375
1.12385
1.12395
1.12405
1.12415
1.12425
1.12435
1.12445
1.12455
1.12466
1.12476
1.12486
1.12497
1.12508
1.12519
1.12531
1.12542
1.12555
1.12567
1.1258
1.12594
1.12608
1.12622
1.12637
1.12653
1.12669
1.12687
1.12704
1.12723
1.12742
1.12762
1.12783
1.12805
1.12828
1.12851
1.12875
1.129
1.12925
1.12952
1.12979
1.13007
1.13035
1.13064
1.13093
1.13123
1.13153
1.13184
1.13215
1.13246
1.13277
1.13308
1.13339
1.1337
1.13401
1.13432
1.13462
1.13492
1.13522
1.13551
1.1358
1.13609
1.13637
1.13664
1.13691
1.13718
1.13744
1.1377
1.13795
1.1382
1.13844
1.13868
1.13892
1.13915
1.13939
1.13962
1.13984
1.14007
1.14029
1.14052
1.14074
1.14096
1.14117
1.14139
1.14161
1.14182
1.14203
1.14224
1.14244
1.14265
1.14285
1.14305
1.14324
1.14343
1.14362
1.1438
1.14397
1.14414
1.1443
1.14446
1.14461
1.14476
1.14489
1.14502
1.14515
1.14527
1.14538
1.14548
1.14558
1.14567
1.14575
1.14584
1.14591
1.14598
1.14605
1.14612
1.14619
1.14625
1.14632
1.14638
1.14645
1.14653
1.14661
1.14669
1.14678
1.14688
1.14699
1.14712
1.14725
1.1474
1.14757
1.14775
1.14795
1.14817
1.14841
1.14868
1.14896
1.14928
1.14962
1.14999
1.15038
1.15081
1.15127
1.15176
1.15229
1.15285
1.15345
1.15409
1.15476
1.15548
1.15625
1.15706
1.15792
1.15884
1.15981
1.16084
1.16195
1.16312
1.16438
1.16573
1.1672
1.16879
1.17054
1.17247
1.17463
1.17708
1.17992
1.18327
1.18733
1.19259
1.2
1.21049
1.22472
1.25116
1.06019
1.07212
1.08272
1.09034
1.0944
1.09661
1.09803
1.09904
1.09977
1.10031
1.10071
1.10102
1.10126
1.10144
1.10158
1.1017
1.10178
1.10184
1.10189
1.10192
1.10194
1.10195
1.10194
1.10194
1.10192
1.1019
1.10187
1.10184
1.10181
1.10177
1.10173
1.10169
1.10164
1.1016
1.10155
1.10151
1.10146
1.10141
1.10137
1.10132
1.10128
1.10124
1.1012
1.10116
1.10112
1.10109
1.10106
1.10103
1.10101
1.10099
1.10098
1.10097
1.10096
1.10096
1.10097
1.10098
1.101
1.10103
1.10106
1.1011
1.10114
1.1012
1.10126
1.10133
1.10141
1.10149
1.10159
1.10169
1.1018
1.10193
1.10206
1.1022
1.10235
1.10251
1.10267
1.10285
1.10303
1.10323
1.10343
1.10365
1.10387
1.1041
1.10434
1.10458
1.10484
1.1051
1.10537
1.10564
1.10593
1.10622
1.10651
1.10681
1.10712
1.10742
1.10774
1.10805
1.10837
1.10869
1.10901
1.10933
1.10965
1.10997
1.11028
1.1106
1.11091
1.11122
1.11152
1.11182
1.11212
1.1124
1.11268
1.11296
1.11322
1.11348
1.11372
1.11396
1.11419
1.1144
1.11461
1.11481
1.115
1.11517
1.11534
1.1155
1.11564
1.11578
1.11591
1.11603
1.11614
1.11625
1.11634
1.11643
1.11652
1.1166
1.11667
1.11674
1.11681
1.11687
1.11693
1.11699
1.11704
1.1171
1.11715
1.1172
1.11725
1.1173
1.11735
1.11739
1.11744
1.1175
1.11755
1.1176
1.11765
1.11771
1.11776
1.11782
1.11787
1.11793
1.11799
1.11806
1.11812
1.11818
1.11825
1.11832
1.11838
1.11845
1.11852
1.11859
1.11866
1.11873
1.11881
1.11888
1.11895
1.11903
1.1191
1.11918
1.11925
1.11933
1.1194
1.11948
1.11955
1.11963
1.11971
1.11978
1.11986
1.11994
1.12001
1.12009
1.12017
1.12025
1.12033
1.1204
1.12048
1.12056
1.12065
1.12073
1.12081
1.12089
1.12098
1.12106
1.12115
1.12124
1.12133
1.12142
1.12151
1.1216
1.12169
1.12178
1.12188
1.12197
1.12207
1.12217
1.12226
1.12236
1.12246
1.12256
1.12266
1.12276
1.12286
1.12296
1.12306
1.12316
1.12326
1.12336
1.12346
1.12356
1.12366
1.12376
1.12386
1.12396
1.12406
1.12416
1.12426
1.12436
1.12446
1.12456
1.12467
1.12477
1.12488
1.12499
1.1251
1.12521
1.12532
1.12544
1.12556
1.12569
1.12582
1.12596
1.1261
1.12624
1.1264
1.12656
1.12672
1.12689
1.12707
1.12726
1.12745
1.12766
1.12787
1.12808
1.12831
1.12854
1.12879
1.12903
1.12929
1.12956
1.12983
1.1301
1.13039
1.13067
1.13097
1.13127
1.13157
1.13187
1.13218
1.13249
1.1328
1.13311
1.13342
1.13373
1.13404
1.13434
1.13464
1.13494
1.13524
1.13553
1.13582
1.1361
1.13638
1.13665
1.13692
1.13718
1.13744
1.1377
1.13795
1.1382
1.13844
1.13868
1.13892
1.13915
1.13938
1.13961
1.13984
1.14006
1.14029
1.14051
1.14073
1.14095
1.14117
1.14138
1.1416
1.14181
1.14202
1.14223
1.14244
1.14264
1.14284
1.14304
1.14323
1.14342
1.14361
1.14379
1.14396
1.14413
1.14429
1.14445
1.1446
1.14474
1.14488
1.14501
1.14514
1.14525
1.14536
1.14547
1.14556
1.14566
1.14574
1.14582
1.1459
1.14597
1.14604
1.14611
1.14618
1.14625
1.14631
1.14638
1.14645
1.14653
1.14661
1.1467
1.14679
1.1469
1.14701
1.14714
1.14727
1.14743
1.1476
1.14778
1.14799
1.14821
1.14846
1.14873
1.14902
1.14934
1.14968
1.15005
1.15046
1.15089
1.15135
1.15185
1.15238
1.15295
1.15356
1.1542
1.15488
1.15561
1.15639
1.15721
1.15808
1.159
1.15998
1.16103
1.16215
1.16334
1.16462
1.166
1.16749
1.16912
1.17091
1.17291
1.17515
1.17771
1.1807
1.18426
1.18867
1.19424
1.20142
1.21179
1.23029
1.26022
1.07798
1.07861
1.08474
1.08975
1.09301
1.09533
1.09699
1.09816
1.09901
1.09965
1.10014
1.10053
1.10082
1.10106
1.10124
1.10139
1.1015
1.10159
1.10166
1.10171
1.10175
1.10177
1.10178
1.10179
1.10178
1.10177
1.10175
1.10173
1.1017
1.10167
1.10164
1.1016
1.10156
1.10152
1.10148
1.10144
1.1014
1.10136
1.10131
1.10127
1.10123
1.10119
1.10116
1.10112
1.10109
1.10106
1.10103
1.10101
1.10098
1.10097
1.10096
1.10095
1.10094
1.10095
1.10096
1.10097
1.10099
1.10102
1.10105
1.10109
1.10114
1.10119
1.10126
1.10133
1.10141
1.10149
1.10159
1.1017
1.10181
1.10193
1.10207
1.10221
1.10236
1.10252
1.10269
1.10286
1.10305
1.10325
1.10345
1.10367
1.10389
1.10412
1.10436
1.10461
1.10486
1.10512
1.10539
1.10567
1.10595
1.10624
1.10654
1.10684
1.10714
1.10745
1.10776
1.10808
1.1084
1.10871
1.10903
1.10935
1.10967
1.10999
1.11031
1.11062
1.11093
1.11124
1.11155
1.11184
1.11214
1.11242
1.1127
1.11297
1.11323
1.11349
1.11373
1.11397
1.1142
1.11441
1.11462
1.11481
1.115
1.11518
1.11534
1.1155
1.11564
1.11578
1.11591
1.11603
1.11614
1.11624
1.11634
1.11643
1.11652
1.1166
1.11667
1.11674
1.11681
1.11687
1.11693
1.11699
1.11704
1.11709
1.11715
1.1172
1.11725
1.1173
1.11735
1.1174
1.11745
1.1175
1.11755
1.1176
1.11765
1.11771
1.11776
1.11782
1.11788
1.11794
1.118
1.11806
1.11812
1.11819
1.11825
1.11832
1.11839
1.11846
1.11853
1.1186
1.11867
1.11874
1.11881
1.11889
1.11896
1.11903
1.11911
1.11918
1.11926
1.11933
1.11941
1.11948
1.11956
1.11963
1.11971
1.11979
1.11986
1.11994
1.12002
1.1201
1.12017
1.12025
1.12033
1.12041
1.12049
1.12057
1.12065
1.12074
1.12082
1.1209
1.12099
1.12107
1.12116
1.12125
1.12134
1.12143
1.12152
1.12161
1.1217
1.12179
1.12189
1.12198
1.12208
1.12218
1.12227
1.12237
1.12247
1.12257
1.12267
1.12277
1.12287
1.12297
1.12307
1.12317
1.12327
1.12337
1.12347
1.12357
1.12367
1.12377
1.12387
1.12397
1.12407
1.12417
1.12427
1.12437
1.12447
1.12458
1.12468
1.12478
1.12489
1.125
1.12511
1.12522
1.12534
1.12546
1.12558
1.12571
1.12584
1.12598
1.12612
1.12626
1.12642
1.12658
1.12674
1.12692
1.1271
1.12729
1.12748
1.12768
1.1279
1.12811
1.12834
1.12858
1.12882
1.12907
1.12933
1.12959
1.12986
1.13014
1.13042
1.13071
1.13101
1.1313
1.13161
1.13191
1.13222
1.13253
1.13284
1.13315
1.13345
1.13376
1.13407
1.13437
1.13467
1.13497
1.13527
1.13556
1.13584
1.13612
1.1364
1.13667
1.13694
1.1372
1.13746
1.13771
1.13796
1.13821
1.13845
1.13869
1.13892
1.13916
1.13939
1.13962
1.13984
1.14007
1.14029
1.14051
1.14073
1.14095
1.14117
1.14139
1.1416
1.14181
1.14203
1.14223
1.14244
1.14264
1.14284
1.14304
1.14323
1.14342
1.14361
1.14379
1.14396
1.14413
1.14429
1.14445
1.1446
1.14474
1.14488
1.14501
1.14513
1.14525
1.14536
1.14546
1.14556
1.14565
1.14574
1.14582
1.14589
1.14597
1.14604
1.14611
1.14618
1.14624
1.14631
1.14638
1.14645
1.14653
1.14661
1.1467
1.1468
1.1469
1.14702
1.14715
1.14729
1.14744
1.14761
1.1478
1.14801
1.14824
1.14849
1.14876
1.14905
1.14937
1.14972
1.1501
1.1505
1.15094
1.15141
1.15191
1.15245
1.15302
1.15363
1.15428
1.15497
1.1557
1.15648
1.1573
1.15818
1.15911
1.1601
1.16115
1.16227
1.16347
1.16476
1.16615
1.16765
1.1693
1.1711
1.17311
1.17536
1.17794
1.18092
1.18445
1.1887
1.19404
1.20096
1.2096
1.21899
1.22848
1.08633
1.08568
1.0878
1.09037
1.09292
1.09495
1.09645
1.09759
1.09847
1.09916
1.09969
1.10012
1.10045
1.10073
1.10094
1.10112
1.10126
1.10137
1.10146
1.10153
1.10158
1.10161
1.10164
1.10165
1.10166
1.10165
1.10164
1.10163
1.10161
1.10158
1.10156
1.10153
1.10149
1.10146
1.10142
1.10138
1.10134
1.10131
1.10127
1.10123
1.10119
1.10116
1.10112
1.10109
1.10106
1.10103
1.101
1.10098
1.10096
1.10095
1.10094
1.10093
1.10093
1.10093
1.10094
1.10096
1.10098
1.10101
1.10104
1.10108
1.10113
1.10119
1.10125
1.10133
1.10141
1.1015
1.1016
1.1017
1.10182
1.10194
1.10208
1.10222
1.10237
1.10253
1.1027
1.10288
1.10307
1.10326
1.10347
1.10369
1.10391
1.10414
1.10438
1.10463
1.10488
1.10515
1.10542
1.1057
1.10598
1.10627
1.10657
1.10687
1.10717
1.10748
1.10779
1.10811
1.10843
1.10875
1.10907
1.10939
1.10971
1.11003
1.11034
1.11066
1.11097
1.11127
1.11158
1.11188
1.11217
1.11245
1.11273
1.113
1.11326
1.11352
1.11376
1.114
1.11422
1.11444
1.11464
1.11484
1.11502
1.11519
1.11536
1.11551
1.11566
1.11579
1.11592
1.11604
1.11615
1.11625
1.11635
1.11644
1.11652
1.1166
1.11668
1.11675
1.11681
1.11688
1.11694
1.11699
1.11705
1.1171
1.11715
1.1172
1.11725
1.1173
1.11735
1.1174
1.11745
1.11751
1.11756
1.11761
1.11766
1.11772
1.11777
1.11783
1.11789
1.11795
1.11801
1.11807
1.11813
1.1182
1.11826
1.11833
1.1184
1.11847
1.11854
1.11861
1.11868
1.11875
1.11882
1.1189
1.11897
1.11904
1.11912
1.11919
1.11927
1.11934
1.11942
1.11949
1.11957
1.11964
1.11972
1.1198
1.11987
1.11995
1.12003
1.12011
1.12018
1.12026
1.12034
1.12042
1.1205
1.12058
1.12067
1.12075
1.12083
1.12092
1.121
1.12109
1.12117
1.12126
1.12135
1.12144
1.12153
1.12162
1.12171
1.12181
1.1219
1.122
1.12209
1.12219
1.12229
1.12239
1.12248
1.12258
1.12268
1.12278
1.12288
1.12298
1.12308
1.12318
1.12328
1.12339
1.12349
1.12358
1.12368
1.12378
1.12388
1.12398
1.12408
1.12418
1.12428
1.12438
1.12448
1.12459
1.12469
1.12479
1.1249
1.12501
1.12512
1.12523
1.12535
1.12547
1.12559
1.12572
1.12585
1.12599
1.12613
1.12628
1.12644
1.1266
1.12676
1.12694
1.12712
1.12731
1.12751
1.12771
1.12792
1.12814
1.12837
1.12861
1.12885
1.1291
1.12936
1.12963
1.1299
1.13018
1.13046
1.13075
1.13105
1.13134
1.13165
1.13195
1.13226
1.13257
1.13288
1.13319
1.1335
1.1338
1.13411
1.13441
1.13471
1.13501
1.1353
1.13559
1.13588
1.13616
1.13643
1.1367
1.13697
1.13723
1.13748
1.13774
1.13798
1.13823
1.13847
1.13871
1.13894
1.13917
1.1394
1.13963
1.13986
1.14008
1.1403
1.14053
1.14075
1.14096
1.14118
1.1414
1.14161
1.14183
1.14204
1.14224
1.14245
1.14265
1.14286
1.14305
1.14325
1.14343
1.14362
1.1438
1.14397
1.14414
1.1443
1.14446
1.14461
1.14475
1.14489
1.14501
1.14514
1.14525
1.14536
1.14546
1.14556
1.14565
1.14574
1.14582
1.14589
1.14597
1.14604
1.14611
1.14617
1.14624
1.14631
1.14638
1.14645
1.14653
1.14661
1.1467
1.1468
1.1469
1.14702
1.14715
1.14729
1.14745
1.14762
1.14781
1.14802
1.14825
1.1485
1.14877
1.14907
1.14939
1.14974
1.15012
1.15053
1.15096
1.15144
1.15194
1.15248
1.15305
1.15367
1.15432
1.15501
1.15575
1.15653
1.15735
1.15823
1.15917
1.16015
1.16121
1.16233
1.16353
1.16481
1.16619
1.16769
1.16932
1.1711
1.17308
1.17529
1.17778
1.18064
1.18396
1.18785
1.19241
1.19771
1.20363
1.20845
1.20866
1.09039
1.08991
1.09058
1.09198
1.09361
1.09507
1.09632
1.09734
1.09817
1.09884
1.09937
1.09981
1.10017
1.10046
1.10069
1.10089
1.10105
1.10117
1.10128
1.10136
1.10142
1.10147
1.1015
1.10153
1.10154
1.10155
1.10155
1.10154
1.10152
1.10151
1.10148
1.10146
1.10143
1.1014
1.10137
1.10133
1.1013
1.10126
1.10123
1.10119
1.10116
1.10112
1.10109
1.10106
1.10103
1.10101
1.10098
1.10096
1.10094
1.10093
1.10092
1.10092
1.10092
1.10092
1.10093
1.10095
1.10097
1.101
1.10104
1.10108
1.10113
1.10119
1.10125
1.10133
1.10141
1.1015
1.1016
1.10171
1.10182
1.10195
1.10208
1.10223
1.10238
1.10254
1.10271
1.10289
1.10308
1.10328
1.10349
1.1037
1.10393
1.10416
1.1044
1.10465
1.10491
1.10517
1.10544
1.10572
1.10601
1.1063
1.1066
1.1069
1.10721
1.10752
1.10783
1.10815
1.10846
1.10878
1.10911
1.10943
1.10975
1.11007
1.11038
1.1107
1.11101
1.11132
1.11162
1.11192
1.11221
1.11249
1.11277
1.11304
1.1133
1.11356
1.1138
1.11404
1.11426
1.11447
1.11468
1.11487
1.11505
1.11523
1.11539
1.11554
1.11568
1.11582
1.11594
1.11606
1.11617
1.11627
1.11637
1.11646
1.11654
1.11662
1.11669
1.11676
1.11683
1.11689
1.11695
1.11701
1.11706
1.11712
1.11717
1.11722
1.11727
1.11732
1.11737
1.11742
1.11747
1.11752
1.11757
1.11762
1.11768
1.11773
1.11779
1.11785
1.1179
1.11796
1.11802
1.11809
1.11815
1.11821
1.11828
1.11834
1.11841
1.11848
1.11855
1.11862
1.11869
1.11876
1.11883
1.11891
1.11898
1.11905
1.11913
1.1192
1.11928
1.11935
1.11943
1.1195
1.11958
1.11966
1.11973
1.11981
1.11989
1.11996
1.12004
1.12012
1.1202
1.12028
1.12036
1.12044
1.12052
1.1206
1.12068
1.12076
1.12085
1.12093
1.12102
1.1211
1.12119
1.12128
1.12137
1.12146
1.12155
1.12164
1.12173
1.12182
1.12192
1.12201
1.12211
1.12221
1.1223
1.1224
1.1225
1.1226
1.1227
1.1228
1.1229
1.123
1.1231
1.1232
1.1233
1.1234
1.1235
1.1236
1.1237
1.1238
1.1239
1.12399
1.12409
1.12419
1.12429
1.12439
1.1245
1.1246
1.1247
1.12481
1.12491
1.12502
1.12513
1.12524
1.12536
1.12548
1.12561
1.12573
1.12587
1.126
1.12615
1.1263
1.12645
1.12661
1.12678
1.12696
1.12714
1.12733
1.12753
1.12773
1.12795
1.12817
1.1284
1.12863
1.12888
1.12913
1.12939
1.12966
1.12993
1.13021
1.1305
1.13079
1.13109
1.13139
1.13169
1.132
1.1323
1.13261
1.13292
1.13323
1.13354
1.13385
1.13416
1.13446
1.13476
1.13506
1.13535
1.13564
1.13592
1.1362
1.13647
1.13674
1.137
1.13726
1.13752
1.13777
1.13801
1.13826
1.1385
1.13873
1.13897
1.1392
1.13943
1.13965
1.13988
1.1401
1.14033
1.14055
1.14077
1.14098
1.1412
1.14142
1.14163
1.14185
1.14206
1.14226
1.14247
1.14267
1.14288
1.14307
1.14327
1.14345
1.14364
1.14382
1.14399
1.14416
1.14432
1.14448
1.14462
1.14477
1.1449
1.14503
1.14515
1.14527
1.14537
1.14548
1.14557
1.14566
1.14574
1.14582
1.1459
1.14597
1.14604
1.14611
1.14617
1.14624
1.14631
1.14638
1.14645
1.14652
1.14661
1.14669
1.14679
1.1469
1.14701
1.14714
1.14728
1.14744
1.14761
1.1478
1.14801
1.14824
1.14849
1.14876
1.14906
1.14938
1.14973
1.15011
1.15052
1.15096
1.15143
1.15194
1.15248
1.15305
1.15367
1.15432
1.15501
1.15575
1.15653
1.15736
1.15823
1.15916
1.16015
1.16119
1.16231
1.1635
1.16476
1.16613
1.16759
1.16918
1.17092
1.17282
1.17493
1.17728
1.17992
1.18288
1.18623
1.18991
1.1937
1.19711
1.19948
1.19884
1.09303
1.09259
1.09279
1.09353
1.0945
1.09553
1.0965
1.09734
1.09806
1.09867
1.09918
1.09961
1.09996
1.10025
1.1005
1.1007
1.10087
1.10101
1.10112
1.10121
1.10129
1.10134
1.10139
1.10142
1.10144
1.10145
1.10146
1.10146
1.10145
1.10144
1.10142
1.1014
1.10137
1.10135
1.10132
1.10129
1.10126
1.10122
1.10119
1.10116
1.10113
1.1011
1.10107
1.10104
1.10101
1.10099
1.10096
1.10095
1.10093
1.10092
1.10091
1.10091
1.10091
1.10092
1.10093
1.10095
1.10097
1.101
1.10104
1.10108
1.10113
1.10119
1.10126
1.10133
1.10141
1.10151
1.10161
1.10172
1.10183
1.10196
1.10209
1.10224
1.10239
1.10256
1.10273
1.10291
1.1031
1.1033
1.10351
1.10372
1.10395
1.10418
1.10442
1.10467
1.10493
1.1052
1.10547
1.10575
1.10604
1.10633
1.10663
1.10693
1.10724
1.10755
1.10787
1.10819
1.10851
1.10883
1.10915
1.10947
1.10979
1.11011
1.11043
1.11075
1.11106
1.11137
1.11167
1.11197
1.11226
1.11255
1.11283
1.1131
1.11336
1.11361
1.11385
1.11409
1.11431
1.11452
1.11473
1.11492
1.1151
1.11527
1.11543
1.11558
1.11573
1.11586
1.11598
1.1161
1.11621
1.11631
1.1164
1.11649
1.11657
1.11665
1.11672
1.11679
1.11685
1.11691
1.11697
1.11703
1.11708
1.11714
1.11719
1.11724
1.11729
1.11734
1.11739
1.11744
1.11749
1.11754
1.11759
1.11764
1.1177
1.11775
1.11781
1.11786
1.11792
1.11798
1.11804
1.1181
1.11817
1.11823
1.1183
1.11836
1.11843
1.1185
1.11857
1.11864
1.11871
1.11878
1.11885
1.11892
1.119
1.11907
1.11914
1.11922
1.11929
1.11937
1.11944
1.11952
1.1196
1.11967
1.11975
1.11983
1.1199
1.11998
1.12006
1.12014
1.12022
1.12029
1.12037
1.12045
1.12053
1.12062
1.1207
1.12078
1.12086
1.12095
1.12103
1.12112
1.12121
1.1213
1.12139
1.12148
1.12157
1.12166
1.12175
1.12184
1.12194
1.12203
1.12213
1.12223
1.12232
1.12242
1.12252
1.12262
1.12272
1.12282
1.12292
1.12302
1.12312
1.12322
1.12331
1.12341
1.12351
1.12361
1.12371
1.12381
1.12391
1.12401
1.12411
1.12421
1.1243
1.12441
1.12451
1.12461
1.12471
1.12482
1.12492
1.12503
1.12514
1.12525
1.12537
1.12549
1.12562
1.12574
1.12588
1.12602
1.12616
1.12631
1.12646
1.12663
1.1268
1.12697
1.12716
1.12735
1.12755
1.12775
1.12797
1.12819
1.12842
1.12866
1.12891
1.12916
1.12942
1.12969
1.12997
1.13025
1.13054
1.13083
1.13113
1.13143
1.13173
1.13204
1.13235
1.13266
1.13297
1.13329
1.1336
1.1339
1.13421
1.13451
1.13481
1.13511
1.1354
1.13569
1.13597
1.13625
1.13652
1.13679
1.13705
1.13731
1.13756
1.13781
1.13806
1.1383
1.13853
1.13877
1.139
1.13923
1.13946
1.13968
1.13991
1.14013
1.14035
1.14057
1.14079
1.14101
1.14123
1.14144
1.14166
1.14187
1.14208
1.14229
1.1425
1.1427
1.1429
1.1431
1.14329
1.14348
1.14367
1.14385
1.14402
1.14419
1.14435
1.1445
1.14465
1.14479
1.14493
1.14505
1.14517
1.14529
1.14539
1.14549
1.14559
1.14568
1.14576
1.14584
1.14591
1.14598
1.14605
1.14611
1.14618
1.14624
1.14631
1.14637
1.14644
1.14652
1.1466
1.14669
1.14678
1.14688
1.147
1.14712
1.14726
1.14742
1.14759
1.14778
1.14799
1.14821
1.14846
1.14874
1.14903
1.14936
1.14971
1.15009
1.15049
1.15093
1.1514
1.15191
1.15245
1.15302
1.15364
1.15429
1.15498
1.15571
1.15649
1.15731
1.15818
1.1591
1.16008
1.16112
1.16221
1.16338
1.16462
1.16595
1.16738
1.16891
1.17057
1.17237
1.17434
1.1765
1.17886
1.18142
1.18416
1.18696
1.18962
1.19166
1.19272
1.19247
1.09488
1.09444
1.09445
1.09484
1.09543
1.09613
1.09684
1.09751
1.09812
1.09865
1.0991
1.0995
1.09983
1.10012
1.10036
1.10056
1.10074
1.10088
1.101
1.1011
1.10118
1.10124
1.10129
1.10133
1.10135
1.10137
1.10138
1.10139
1.10138
1.10138
1.10136
1.10135
1.10133
1.1013
1.10128
1.10125
1.10122
1.10119
1.10116
1.10113
1.1011
1.10108
1.10105
1.10102
1.101
1.10098
1.10095
1.10094
1.10092
1.10091
1.10091
1.1009
1.10091
1.10091
1.10093
1.10095
1.10097
1.101
1.10104
1.10108
1.10113
1.10119
1.10126
1.10134
1.10142
1.10151
1.10161
1.10172
1.10184
1.10197
1.1021
1.10225
1.1024
1.10257
1.10274
1.10292
1.10311
1.10331
1.10352
1.10374
1.10397
1.1042
1.10445
1.1047
1.10496
1.10522
1.1055
1.10578
1.10607
1.10636
1.10666
1.10697
1.10728
1.10759
1.10791
1.10823
1.10855
1.10888
1.1092
1.10952
1.10985
1.11017
1.11049
1.1108
1.11112
1.11143
1.11173
1.11203
1.11232
1.11261
1.11289
1.11316
1.11342
1.11368
1.11392
1.11415
1.11437
1.11459
1.11479
1.11498
1.11516
1.11533
1.11549
1.11564
1.11578
1.11591
1.11603
1.11614
1.11625
1.11635
1.11644
1.11653
1.11661
1.11668
1.11676
1.11682
1.11689
1.11695
1.117
1.11706
1.11711
1.11717
1.11722
1.11727
1.11732
1.11737
1.11741
1.11746
1.11751
1.11757
1.11762
1.11767
1.11772
1.11778
1.11783
1.11789
1.11794
1.118
1.11806
1.11813
1.11819
1.11825
1.11832
1.11838
1.11845
1.11852
1.11859
1.11866
1.11873
1.1188
1.11887
1.11894
1.11902
1.11909
1.11916
1.11924
1.11931
1.11939
1.11946
1.11954
1.11961
1.11969
1.11977
1.11984
1.11992
1.12
1.12008
1.12016
1.12023
1.12031
1.12039
1.12047
1.12056
1.12064
1.12072
1.1208
1.12089
1.12097
1.12106
1.12114
1.12123
1.12132
1.12141
1.1215
1.12159
1.12168
1.12177
1.12187
1.12196
1.12206
1.12215
1.12225
1.12235
1.12244
1.12254
1.12264
1.12274
1.12284
1.12294
1.12304
1.12313
1.12323
1.12333
1.12343
1.12353
1.12363
1.12373
1.12382
1.12392
1.12402
1.12412
1.12422
1.12432
1.12442
1.12452
1.12462
1.12472
1.12482
1.12493
1.12504
1.12515
1.12526
1.12538
1.1255
1.12562
1.12575
1.12589
1.12602
1.12617
1.12632
1.12647
1.12664
1.12681
1.12698
1.12717
1.12736
1.12756
1.12777
1.12798
1.12821
1.12844
1.12868
1.12893
1.12918
1.12945
1.12972
1.13
1.13028
1.13057
1.13087
1.13117
1.13147
1.13178
1.13209
1.1324
1.13271
1.13303
1.13334
1.13365
1.13396
1.13427
1.13457
1.13488
1.13517
1.13546
1.13575
1.13603
1.13631
1.13658
1.13685
1.13711
1.13736
1.13761
1.13786
1.1381
1.13834
1.13858
1.13881
1.13904
1.13927
1.1395
1.13972
1.13995
1.14017
1.14039
1.14061
1.14083
1.14105
1.14126
1.14148
1.14169
1.14191
1.14212
1.14233
1.14254
1.14274
1.14294
1.14314
1.14333
1.14352
1.1437
1.14388
1.14406
1.14422
1.14438
1.14454
1.14469
1.14483
1.14496
1.14509
1.1452
1.14532
1.14542
1.14552
1.14561
1.1457
1.14578
1.14585
1.14593
1.14599
1.14606
1.14612
1.14618
1.14625
1.14631
1.14637
1.14644
1.14651
1.14659
1.14667
1.14677
1.14687
1.14698
1.1471
1.14724
1.14739
1.14756
1.14775
1.14795
1.14818
1.14842
1.14869
1.14899
1.14931
1.14966
1.15003
1.15044
1.15088
1.15134
1.15185
1.15238
1.15296
1.15357
1.15421
1.1549
1.15563
1.1564
1.15721
1.15808
1.15899
1.15995
1.16097
1.16204
1.16318
1.16439
1.16568
1.16705
1.16851
1.17007
1.17175
1.17356
1.17549
1.17756
1.17972
1.18191
1.18401
1.18583
1.18714
1.18765
1.18744
1.09619
1.0958
1.09573
1.09591
1.09628
1.09675
1.09727
1.09778
1.09827
1.09872
1.09912
1.09947
1.09978
1.10004
1.10027
1.10047
1.10064
1.10078
1.1009
1.101
1.10109
1.10115
1.10121
1.10125
1.10128
1.10131
1.10132
1.10133
1.10133
1.10132
1.10131
1.1013
1.10129
1.10127
1.10124
1.10122
1.1012
1.10117
1.10114
1.10112
1.10109
1.10106
1.10104
1.10101
1.10099
1.10097
1.10095
1.10093
1.10092
1.10091
1.10091
1.10091
1.10091
1.10092
1.10093
1.10095
1.10097
1.10101
1.10104
1.10109
1.10114
1.1012
1.10127
1.10135
1.10143
1.10152
1.10162
1.10173
1.10185
1.10198
1.10212
1.10227
1.10242
1.10259
1.10276
1.10294
1.10313
1.10333
1.10354
1.10376
1.10399
1.10423
1.10447
1.10472
1.10498
1.10525
1.10553
1.10581
1.1061
1.1064
1.1067
1.10701
1.10732
1.10764
1.10796
1.10828
1.1086
1.10893
1.10925
1.10958
1.1099
1.11023
1.11055
1.11087
1.11118
1.1115
1.1118
1.1121
1.1124
1.11268
1.11296
1.11324
1.1135
1.11375
1.114
1.11423
1.11445
1.11466
1.11486
1.11505
1.11523
1.1154
1.11556
1.1157
1.11584
1.11597
1.11609
1.1162
1.1163
1.1164
1.11649
1.11658
1.11666
1.11673
1.1168
1.11686
1.11693
1.11699
1.11704
1.1171
1.11715
1.1172
1.11725
1.1173
1.11735
1.1174
1.11745
1.1175
1.11754
1.11759
1.11765
1.1177
1.11775
1.1178
1.11786
1.11791
1.11797
1.11803
1.11809
1.11815
1.11821
1.11828
1.11834
1.11841
1.11847
1.11854
1.11861
1.11868
1.11875
1.11882
1.11889
1.11897
1.11904
1.11911
1.11919
1.11926
1.11933
1.11941
1.11948
1.11956
1.11964
1.11971
1.11979
1.11987
1.11994
1.12002
1.1201
1.12018
1.12026
1.12034
1.12042
1.1205
1.12058
1.12066
1.12074
1.12083
1.12091
1.121
1.12108
1.12117
1.12126
1.12134
1.12143
1.12152
1.12161
1.12171
1.1218
1.12189
1.12199
1.12208
1.12218
1.12227
1.12237
1.12247
1.12256
1.12266
1.12276
1.12286
1.12296
1.12306
1.12315
1.12325
1.12335
1.12345
1.12355
1.12364
1.12374
1.12384
1.12394
1.12403
1.12413
1.12423
1.12433
1.12443
1.12453
1.12463
1.12473
1.12483
1.12494
1.12505
1.12516
1.12527
1.12539
1.12551
1.12563
1.12576
1.12589
1.12603
1.12618
1.12633
1.12648
1.12665
1.12682
1.12699
1.12718
1.12737
1.12757
1.12778
1.128
1.12822
1.12846
1.1287
1.12895
1.12921
1.12947
1.12975
1.13003
1.13031
1.13061
1.1309
1.13121
1.13151
1.13182
1.13214
1.13245
1.13277
1.13308
1.1334
1.13371
1.13403
1.13434
1.13464
1.13494
1.13524
1.13553
1.13582
1.1361
1.13638
1.13665
1.13691
1.13717
1.13743
1.13767
1.13792
1.13816
1.1384
1.13863
1.13886
1.13909
1.13932
1.13955
1.13977
1.13999
1.14021
1.14043
1.14065
1.14087
1.14109
1.14131
1.14152
1.14174
1.14195
1.14216
1.14237
1.14258
1.14278
1.14299
1.14318
1.14338
1.14357
1.14375
1.14393
1.1441
1.14427
1.14443
1.14458
1.14473
1.14487
1.145
1.14512
1.14524
1.14535
1.14546
1.14555
1.14564
1.14573
1.1458
1.14588
1.14595
1.14601
1.14607
1.14613
1.14619
1.14625
1.14631
1.14637
1.14644
1.14651
1.14658
1.14666
1.14675
1.14685
1.14696
1.14708
1.14721
1.14736
1.14752
1.1477
1.14791
1.14813
1.14837
1.14864
1.14893
1.14925
1.14959
1.14996
1.15036
1.1508
1.15126
1.15176
1.15229
1.15286
1.15346
1.15411
1.15479
1.15551
1.15627
1.15708
1.15792
1.15882
1.15976
1.16076
1.16181
1.16291
1.16408
1.16531
1.16662
1.168
1.16946
1.171
1.17264
1.17435
1.17612
1.17791
1.17964
1.18122
1.18249
1.18333
1.18361
1.18332
1.09717
1.09684
1.09673
1.0968
1.09702
1.09734
1.09771
1.0981
1.09849
1.09886
1.0992
1.0995
1.09978
1.10002
1.10024
1.10042
1.10058
1.10072
1.10084
1.10094
1.10102
1.10109
1.10115
1.10119
1.10123
1.10125
1.10127
1.10128
1.10129
1.10129
1.10128
1.10127
1.10126
1.10124
1.10122
1.1012
1.10118
1.10115
1.10113
1.10111
1.10108
1.10106
1.10103
1.10101
1.10099
1.10097
1.10095
1.10094
1.10093
1.10092
1.10091
1.10091
1.10092
1.10093
1.10094
1.10096
1.10098
1.10102
1.10105
1.1011
1.10115
1.10121
1.10128
1.10136
1.10144
1.10154
1.10164
1.10175
1.10187
1.102
1.10213
1.10228
1.10244
1.1026
1.10277
1.10296
1.10315
1.10335
1.10356
1.10378
1.10401
1.10425
1.10449
1.10475
1.10501
1.10528
1.10556
1.10584
1.10613
1.10643
1.10674
1.10705
1.10736
1.10768
1.108
1.10833
1.10865
1.10898
1.10931
1.10964
1.10997
1.11029
1.11062
1.11094
1.11125
1.11157
1.11188
1.11218
1.11248
1.11276
1.11305
1.11332
1.11358
1.11384
1.11408
1.11431
1.11454
1.11475
1.11495
1.11513
1.11531
1.11548
1.11563
1.11578
1.11591
1.11604
1.11616
1.11627
1.11637
1.11646
1.11655
1.11663
1.11671
1.11678
1.11685
1.11691
1.11697
1.11703
1.11709
1.11714
1.11719
1.11724
1.11729
1.11734
1.11739
1.11744
1.11748
1.11753
1.11758
1.11763
1.11768
1.11773
1.11778
1.11784
1.11789
1.11795
1.118
1.11806
1.11812
1.11818
1.11824
1.1183
1.11837
1.11843
1.1185
1.11857
1.11864
1.11871
1.11878
1.11885
1.11892
1.11899
1.11906
1.11914
1.11921
1.11928
1.11936
1.11943
1.11951
1.11958
1.11966
1.11974
1.11981
1.11989
1.11997
1.12005
1.12012
1.1202
1.12028
1.12036
1.12044
1.12052
1.12061
1.12069
1.12077
1.12085
1.12094
1.12102
1.12111
1.1212
1.12128
1.12137
1.12146
1.12155
1.12164
1.12173
1.12183
1.12192
1.12201
1.12211
1.1222
1.1223
1.1224
1.12249
1.12259
1.12269
1.12279
1.12288
1.12298
1.12308
1.12318
1.12327
1.12337
1.12347
1.12357
1.12366
1.12376
1.12386
1.12395
1.12405
1.12415
1.12424
1.12434
1.12444
1.12454
1.12464
1.12474
1.12484
1.12495
1.12505
1.12516
1.12528
1.12539
1.12551
1.12564
1.12577
1.1259
1.12604
1.12618
1.12633
1.12649
1.12665
1.12682
1.127
1.12719
1.12738
1.12758
1.12779
1.12801
1.12824
1.12847
1.12872
1.12897
1.12923
1.12949
1.12977
1.13005
1.13034
1.13064
1.13094
1.13124
1.13156
1.13187
1.13219
1.1325
1.13282
1.13314
1.13346
1.13378
1.13409
1.1344
1.13471
1.13502
1.13531
1.13561
1.13589
1.13617
1.13645
1.13672
1.13698
1.13724
1.13749
1.13774
1.13799
1.13823
1.13846
1.13869
1.13892
1.13915
1.13938
1.1396
1.13982
1.14004
1.14026
1.14048
1.1407
1.14092
1.14114
1.14135
1.14157
1.14179
1.142
1.14221
1.14242
1.14263
1.14284
1.14304
1.14324
1.14343
1.14362
1.1438
1.14398
1.14416
1.14432
1.14448
1.14464
1.14478
1.14492
1.14505
1.14517
1.14529
1.1454
1.1455
1.14559
1.14568
1.14576
1.14584
1.14591
1.14597
1.14604
1.14609
1.14615
1.14621
1.14626
1.14632
1.14638
1.14644
1.1465
1.14657
1.14665
1.14673
1.14682
1.14693
1.14704
1.14717
1.14732
1.14748
1.14765
1.14785
1.14807
1.1483
1.14857
1.14885
1.14916
1.1495
1.14987
1.15027
1.15069
1.15115
1.15164
1.15217
1.15273
1.15333
1.15396
1.15463
1.15535
1.1561
1.15689
1.15772
1.1586
1.15952
1.16049
1.1615
1.16257
1.16369
1.16486
1.1661
1.16739
1.16874
1.17015
1.17161
1.17311
1.17462
1.17609
1.17746
1.17865
1.17955
1.18011
1.18025
1.17993
1.09793
1.09764
1.09752
1.09753
1.09766
1.09787
1.09814
1.09843
1.09874
1.09903
1.09932
1.09958
1.09982
1.10004
1.10023
1.10041
1.10056
1.10069
1.1008
1.1009
1.10098
1.10105
1.1011
1.10115
1.10119
1.10121
1.10123
1.10125
1.10125
1.10126
1.10125
1.10125
1.10124
1.10122
1.10121
1.10119
1.10117
1.10115
1.10112
1.1011
1.10108
1.10106
1.10103
1.10101
1.10099
1.10097
1.10096
1.10095
1.10093
1.10093
1.10092
1.10092
1.10093
1.10094
1.10095
1.10097
1.101
1.10103
1.10107
1.10112
1.10117
1.10123
1.1013
1.10138
1.10146
1.10155
1.10165
1.10177
1.10189
1.10201
1.10215
1.1023
1.10246
1.10262
1.1028
1.10298
1.10317
1.10337
1.10358
1.10381
1.10403
1.10427
1.10452
1.10477
1.10504
1.10531
1.10559
1.10588
1.10617
1.10647
1.10678
1.10709
1.10741
1.10773
1.10805
1.10838
1.10871
1.10904
1.10937
1.1097
1.11003
1.11036
1.11069
1.11101
1.11133
1.11165
1.11196
1.11226
1.11256
1.11285
1.11314
1.11341
1.11368
1.11393
1.11418
1.11441
1.11463
1.11484
1.11504
1.11523
1.1154
1.11557
1.11572
1.11586
1.116
1.11612
1.11623
1.11634
1.11644
1.11653
1.11662
1.1167
1.11677
1.11684
1.11691
1.11697
1.11703
1.11708
1.11714
1.11719
1.11724
1.11729
1.11734
1.11738
1.11743
1.11748
1.11753
1.11757
1.11762
1.11767
1.11772
1.11777
1.11782
1.11787
1.11793
1.11798
1.11804
1.11809
1.11815
1.11821
1.11827
1.11834
1.1184
1.11846
1.11853
1.1186
1.11867
1.11873
1.1188
1.11887
1.11895
1.11902
1.11909
1.11916
1.11924
1.11931
1.11939
1.11946
1.11954
1.11961
1.11969
1.11976
1.11984