# vtk DataFile Version 2.0
LBE mesh
ASCII
DATASET STRUCTURED_POINTS
DIMENSIONS 400 100 1
ASPECT_RATIO 1 1 1
ORIGIN 0 0 0
POINT_DATA 40000
SCALARS rho double 1
LOOKUP_TABLE default
0.944636
0.975211
0.984752
0.988314
0.990383
0.991732
0.99267
0.993369
0.993989
0.994547
0.995099
0.995612
0.996127
0.996604
0.997083
0.997524
0.997968
0.998378
0.998793
0.999178
0.99957
0.999939
1.00032
1.00068
1.00105
1.00141
1.00179
1.00217
1.00257
1.00298
1.00341
1.00388
1.00438
1.00493
1.00552
1.00616
1.00686
1.0076
1.00839
1.00919
1.00999
1.01077
1.0115
1.01216
1.01274
1.01322
1.01361
1.0139
1.0141
1.01424
1.01431
1.01432
1.01428
1.01419
1.01405
1.01384
1.01356
1.01321
1.01277
1.01225
1.01166
1.01098
1.01025
1.00947
1.00866
1.00784
1.00702
1.00622
1.00547
1.00476
1.00411
1.00353
1.00301
1.00255
1.00215
1.00179
1.00147
1.00118
1.00091
1.00066
1.00043
1.00021
1.00002
0.999864
0.999743
0.999665
0.999635
0.999657
0.999729
0.999849
1.00001
1.0002
1.00042
1.00065
1.00088
1.0011
1.00131
1.00149
1.00164
1.00175
1.00181
1.00184
1.00182
1.00176
1.00167
1.00154
1.00138
1.0012
1.00101
1.00082
1.00064
1.00047
1.00033
1.00023
1.00017
1.00015
1.00018
1.00026
1.00038
1.00054
1.00073
1.00095
1.00119
1.00144
1.00171
1.002
1.00232
1.00266
1.00305
1.00348
1.00396
1.0045
1.0051
1.00575
1.00645
1.00719
1.00796
1.00873
1.0095
1.01025
1.01095
1.01161
1.01219
1.01271
1.01315
1.01351
1.0138
1.01402
1.01419
1.01431
1.01439
1.01445
1.01448
1.01451
1.01452
1.01453
1.01453
1.01454
1.01454
1.01454
1.01454
1.01454
1.01454
1.01454
1.01454
1.01454
1.01454
1.01454
1.01454
1.01454
1.01454
1.01454
1.01454
1.01454
1.01454
1.01454
1.01454
1.01454
1.01454
1.01454
1.01454
1.01454
1.01454
1.01454
1.01454
1.01454
1.01454
1.01454
1.01454
1.01454
1.01454
1.01454
1.01454
1.01454
1.01454
1.01454
1.01454
1.01454
1.01454
1.01454
1.01454
1.01454
1.01454
1.01454
1.01454
1.01454
1.01454
1.01454
1.01454
1.01454
1.01454
1.01454
1.01454
1.01454
1.01454
1.01454
1.01454
1.01454
1.01454
1.01454
1.01454
1.01454
1.01454
1.01454
1.01454
1.01454
1.01454
1.01454
1.01454
1.01454
1.01454
1.01454
1.01454
1.01454
1.01454
1.01454
1.01454
1.01454
1.01454
1.01454
1.01454
1.01454
1.01454
1.01454
1.01454
1.01454
1.01454
1.01454
1.01454
1.01454
1.01454
1.01454
1.01454
1.01454
1.01454
1.01454
1.01454
1.01454
1.01454
1.01454
1.01454
1.01454
1.01454
1.01454
1.01454
1.01454
1.01454
1.01454
1.01454
1.01454
1.01454
1.01454
1.01454
1.01454
1.01454
1.01454
1.01454
1.01454
1.01454
1.01454
1.01454
1.01454
1.01454
1.01454
1.01454
1.01454
1.01454
1.01454
1.01454
1.01454
1.01454
1.01454
1.01454
1.01454
1.01454
1.01454
1.01454
1.01454
1.01454
1.01454
1.01454
1.01454
1.01454
1.01454
1.01454
1.01454
1.01454
1.01454
1.01454
1.01454
1.01454
1.01454
1.01454
1.01454
1.01454
1.01454
1.01454
1.01454
1.01454
1.01454
1.01454
1.01454
1.01454
1.01454
1.01454
1.01454
1.01454
1.01454
1.01454
1.01454
1.01454
1.01454
1.01454
1.01454
1.01454
1.01454
1.01454
1.01454
1.01454
1.01454
1.01454
1.01454
1.01454
1.01454
1.01454
1.01454
1.01454
1.01454
1.01454
1.01454
1.01455
1.01456
1.01458
1.01461
1.01467
1.01477
1.01493
1.01517
1.0155
1.01595
1.01652
1.01722
1.01803
1.01892
1.01987
1.02082
1.02175
1.02262
1.02341
1.02412
1.02473
1.02527
1.02575
1.02619
1.0266
1.02699
1.02737
1.02776
1.02816
1.02857
1.02899
1.02944
1.02991
1.03041
1.03094
1.03152
1.03216
1.03287
1.03367
1.03459
1.03568
1.037
1.03864
1.04074
1.04352
1.04742
1.05321
1.06174
1.07503
1.10312
0.956972
0.971016
0.980362
0.985794
0.988709
0.990453
0.991695
0.992641
0.993451
0.994136
0.994786
0.99536
0.99593
0.996438
0.99695
0.997408
0.997875
0.998294
0.998726
0.999116
0.999521
0.999893
1.00028
1.00064
1.00102
1.00139
1.00177
1.00215
1.00255
1.00297
1.00341
1.00387
1.00437
1.00491
1.0055
1.00614
1.00682
1.00756
1.00832
1.00911
1.00991
1.01068
1.01141
1.01207
1.01265
1.01314
1.01354
1.01384
1.01405
1.01418
1.01425
1.01425
1.0142
1.01409
1.01392
1.01368
1.01338
1.013
1.01254
1.01201
1.01141
1.01074
1.01003
1.00928
1.0085
1.00772
1.00695
1.00621
1.0055
1.00483
1.00422
1.00366
1.00316
1.00271
1.0023
1.00194
1.00161
1.0013
1.00102
1.00076
1.00052
1.0003
1.00012
0.999964
0.999852
0.999784
0.999762
0.999786
0.999856
0.999966
1.00011
1.00028
1.00047
1.00067
1.00088
1.00107
1.00124
1.0014
1.00152
1.00162
1.00168
1.0017
1.00168
1.00164
1.00155
1.00144
1.0013
1.00115
1.00099
1.00082
1.00066
1.00052
1.00039
1.0003
1.00025
1.00023
1.00026
1.00034
1.00045
1.00061
1.0008
1.00101
1.00126
1.00152
1.0018
1.0021
1.00242
1.00277
1.00316
1.00359
1.00406
1.00459
1.00516
1.00579
1.00646
1.00717
1.0079
1.00864
1.00938
1.01011
1.0108
1.01144
1.01203
1.01255
1.013
1.01338
1.01369
1.01393
1.01412
1.01425
1.01435
1.01442
1.01446
1.01449
1.01451
1.01452
1.01453
1.01453
1.01453
1.01453
1.01453
1.01453
1.01453
1.01453
1.01453
1.01453
1.01453
1.01453
1.01453
1.01453
1.01453
1.01453
1.01453
1.01453
1.01453
1.01453
1.01453
1.01453
1.01453
1.01453
1.01453
1.01453
1.01453
1.01453
1.01453
1.01453
1.01453
1.01453
1.01453
1.01453
1.01453
1.01453
1.01453
1.01453
1.01453
1.01453
1.01453
1.01453
1.01453
1.01453
1.01453
1.01453
1.01453
1.01453
1.01453
1.01453
1.01453
1.01453
1.01453
1.01453
1.01453
1.01453
1.01453
1.01453
1.01453
1.01453
1.01453
1.01453
1.01453
1.01453
1.01453
1.01453
1.01453
1.01453
1.01453
1.01453
1.01453
1.01453
1.01453
1.01453
1.01453
1.01453
1.01453
1.01453
1.01453
1.01453
1.01453
1.01453
1.01453
1.01453
1.01453
1.01453
1.01453
1.01453
1.01453
1.01453
1.01453
1.01453
1.01453
1.01453
1.01453
1.01453
1.01453
1.01453
1.01453
1.01453
1.01453
1.01453
1.01453
1.01453
1.01453
1.01453
1.01453
1.01453
1.01453
1.01453
1.01453
1.01453
1.01453
1.01453
1.01453
1.01453
1.01453
1.01453
1.01453
1.01453
1.01453
1.01453
1.01453
1.01453
1.01453
1.01453
1.01453
1.01453
1.01453
1.01453
1.01453
1.01453
1.01453
1.01453
1.01453
1.01453
1.01453
1.01453
1.01453
1.01453
1.01453
1.01453
1.01453
1.01453
1.01453
1.01453
1.01453
1.01453
1.01453
1.01453
1.01453
1.01453
1.01453
1.01453
1.01453
1.01453
1.01453
1.01453
1.01453
1.01453
1.01453
1.01453
1.01453
1.01453
1.01453
1.01453
1.01453
1.01453
1.01453
1.01453
1.01453
1.01453
1.01453
1.01453
1.01453
1.01453
1.01453
1.01453
1.01453
1.01453
1.01453
1.01453
1.01453
1.01453
1.01453
1.01453
1.01453
1.01453
1.01453
1.01453
1.01453
1.01453
1.01453
1.01454
1.01454
1.01456
1.01458
1.01462
1.01469
1.01481
1.01499
1.01525
1.0156
1.01608
1.01667
1.01737
1.01818
1.01906
1.01998
1.02091
1.0218
1.02264
1.02341
1.02409
1.0247
1.02523
1.02572
1.02616
1.02657
1.02697
1.02737
1.02776
1.02817
1.02858
1.02901
1.02947
1.02994
1.03045
1.031
1.03159
1.03224
1.03297
1.0338
1.03476
1.0359
1.03729
1.03904
1.04131
1.04436
1.0485
1.05425
1.06316
1.07918
1.10457
0.973413
0.976267
0.981297
0.985181
0.987801
0.989666
0.991058
0.992142
0.993053
0.993835
0.994547
0.995183
0.995786
0.996332
0.99686
0.997343
0.997818
0.998255
0.998691
0.999095
0.999501
0.999884
1.00027
1.00064
1.00102
1.00139
1.00178
1.00216
1.00256
1.00298
1.00342
1.00388
1.00438
1.00492
1.0055
1.00613
1.00681
1.00753
1.00829
1.00908
1.00986
1.01063
1.01136
1.01203
1.01262
1.01311
1.01351
1.01381
1.01402
1.01414
1.01419
1.01417
1.01409
1.01394
1.01373
1.01345
1.01311
1.01269
1.01221
1.01166
1.01107
1.01042
1.00974
1.00904
1.00833
1.00762
1.00693
1.00626
1.00562
1.00501
1.00445
1.00393
1.00345
1.00301
1.0026
1.00222
1.00187
1.00154
1.00124
1.00096
1.00071
1.00049
1.00031
1.00017
1.00006
1
0.999984
1.00001
1.00006
1.00015
1.00027
1.0004
1.00055
1.0007
1.00085
1.00099
1.00112
1.00124
1.00133
1.0014
1.00144
1.00146
1.00145
1.00142
1.00136
1.00128
1.00118
1.00106
1.00094
1.00082
1.00069
1.00058
1.00049
1.00042
1.00038
1.00038
1.00041
1.00048
1.0006
1.00075
1.00094
1.00116
1.00141
1.00168
1.00198
1.0023
1.00263
1.003
1.00339
1.00381
1.00427
1.00477
1.00531
1.0059
1.00652
1.00718
1.00786
1.00855
1.00925
1.00994
1.0106
1.01123
1.01181
1.01234
1.01281
1.01321
1.01354
1.01381
1.01402
1.01419
1.0143
1.01439
1.01445
1.01448
1.01451
1.01452
1.01453
1.01454
1.01454
1.01454
1.01454
1.01454
1.01454
1.01454
1.01454
1.01454
1.01454
1.01454
1.01454
1.01454
1.01454
1.01454
1.01454
1.01454
1.01454
1.01454
1.01454
1.01454
1.01454
1.01454
1.01454
1.01454
1.01454
1.01454
1.01454
1.01454
1.01454
1.01454
1.01454
1.01454
1.01454
1.01454
1.01454
1.01454
1.01454
1.01454
1.01454
1.01454
1.01454
1.01454
1.01454
1.01454
1.01454
1.01454
1.01454
1.01454
1.01454
1.01454
1.01454
1.01454
1.01454
1.01454
1.01454
1.01454
1.01454
1.01454
1.01454
1.01454
1.01454
1.01454
1.01454
1.01454
1.01454
1.01454
1.01454
1.01454
1.01454
1.01454
1.01454
1.01454
1.01454
1.01454
1.01454
1.01454
1.01454
1.01454
1.01454
1.01454
1.01454
1.01454
1.01454
1.01454
1.01454
1.01454
1.01454
1.01454
1.01454
1.01454
1.01454
1.01454
1.01454
1.01454
1.01454
1.01454
1.01454
1.01454
1.01454
1.01454
1.01454
1.01454
1.01454
1.01454
1.01454
1.01454
1.01454
1.01454
1.01454
1.01454
1.01454
1.01454
1.01454
1.01454
1.01454
1.01454
1.01454
1.01454
1.01454
1.01454
1.01454
1.01454
1.01454
1.01454
1.01454
1.01454
1.01454
1.01454
1.01454
1.01454
1.01454
1.01454
1.01454
1.01454
1.01454
1.01454
1.01454
1.01454
1.01454
1.01454
1.01454
1.01454
1.01454
1.01454
1.01454
1.01454
1.01454
1.01454
1.01454
1.01454
1.01454
1.01454
1.01454
1.01454
1.01454
1.01454
1.01454
1.01454
1.01454
1.01454
1.01454
1.01454
1.01454
1.01454
1.01454
1.01454
1.01454
1.01454
1.01454
1.01454
1.01454
1.01454
1.01454
1.01454
1.01454
1.01454
1.01454
1.01454
1.01454
1.01454
1.01454
1.01454
1.01454
1.01454
1.01454
1.01454
1.01454
1.01454
1.01454
1.01454
1.01455
1.01455
1.01456
1.01457
1.0146
1.01465
1.01474
1.01487
1.01506
1.01534
1.01572
1.01621
1.01681
1.01753
1.01833
1.01919
1.02009
1.02098
1.02184
1.02265
1.02339
1.02406
1.02466
1.02519
1.02567
1.02612
1.02654
1.02695
1.02735
1.02776
1.02817
1.02859
1.02903
1.02948
1.02996
1.03048
1.03102
1.03162
1.03227
1.033
1.03383
1.03479
1.03593
1.03731
1.03905
1.04127
1.04419
1.04817
1.05368
1.06095
1.069
1.07632
0.982474
0.982009
0.983851
0.986075
0.988061
0.989642
0.99091
0.991969
0.992889
0.993698
0.99443
0.995092
0.995708
0.996273
0.99681
0.997306
0.997784
0.998231
0.998667
0.999079
0.999485
0.999874
1.00026
1.00064
1.00102
1.00139
1.00177
1.00216
1.00256
1.00297
1.00341
1.00387
1.00437
1.0049
1.00548
1.0061
1.00678
1.0075
1.00825
1.00904
1.00982
1.0106
1.01133
1.012
1.01259
1.01308
1.01347
1.01376
1.01396
1.01406
1.01409
1.01403
1.0139
1.01371
1.01345
1.01312
1.01272
1.01227
1.01176
1.01121
1.01063
1.01001
1.00939
1.00876
1.00813
1.00751
1.00691
1.00633
1.00577
1.00524
1.00474
1.00426
1.00381
1.00338
1.00296
1.00257
1.0022
1.00185
1.00152
1.00123
1.00097
1.00075
1.00057
1.00043
1.00034
1.00028
1.00026
1.00027
1.00031
1.00037
1.00044
1.00052
1.00061
1.0007
1.00079
1.00087
1.00094
1.00101
1.00106
1.00111
1.00113
1.00115
1.00115
1.00113
1.0011
1.00106
1.00101
1.00094
1.00087
1.0008
1.00073
1.00066
1.00061
1.00057
1.00055
1.00056
1.0006
1.00067
1.00079
1.00094
1.00113
1.00135
1.00161
1.0019
1.00221
1.00255
1.00291
1.00328
1.00368
1.00409
1.00453
1.005
1.0055
1.00603
1.00659
1.00718
1.00779
1.00842
1.00905
1.00969
1.01031
1.01092
1.01149
1.01203
1.01251
1.01294
1.01331
1.01361
1.01386
1.01406
1.0142
1.01431
1.01439
1.01444
1.01447
1.0145
1.01451
1.01452
1.01452
1.01452
1.01453
1.01453
1.01453
1.01453
1.01453
1.01453
1.01453
1.01453
1.01453
1.01453
1.01453
1.01453
1.01453
1.01453
1.01453
1.01453
1.01453
1.01453
1.01453
1.01453
1.01453
1.01453
1.01453
1.01453
1.01453
1.01453
1.01453
1.01453
1.01453
1.01453
1.01453
1.01453
1.01453
1.01453
1.01453
1.01453
1.01453
1.01453
1.01453
1.01453
1.01453
1.01453
1.01453
1.01453
1.01453
1.01453
1.01453
1.01453
1.01453
1.01453
1.01453
1.01453
1.01453
1.01453
1.01453
1.01453
1.01453
1.01453
1.01453
1.01453
1.01453
1.01453
1.01453
1.01453
1.01453
1.01453
1.01453
1.01453
1.01453
1.01453
1.01453
1.01453
1.01453
1.01453
1.01453
1.01453
1.01453
1.01453
1.01453
1.01453
1.01453
1.01453
1.01453
1.01453
1.01453
1.01453
1.01453
1.01453
1.01453
1.01453
1.01453
1.01453
1.01453
1.01453
1.01453
1.01453
1.01453
1.01453
1.01453
1.01453
1.01453
1.01453
1.01453
1.01453
1.01453
1.01453
1.01453
1.01453
1.01453
1.01453
1.01453
1.01453
1.01453
1.01453
1.01453
1.01453
1.01453
1.01453
1.01453
1.01453
1.01453
1.01453
1.01453
1.01453
1.01453
1.01453
1.01453
1.01453
1.01453
1.01453
1.01453
1.01453
1.01453
1.01453
1.01453
1.01453
1.01453
1.01453
1.01453
1.01453
1.01453
1.01453
1.01453
1.01453
1.01453
1.01453
1.01453
1.01453
1.01453
1.01453
1.01453
1.01453
1.01453
1.01453
1.01453
1.01453
1.01453
1.01453
1.01453
1.01453
1.01453
1.01453
1.01453
1.01453
1.01453
1.01453
1.01453
1.01453
1.01453
1.01453
1.01453
1.01453
1.01453
1.01453
1.01453
1.01453
1.01453
1.01453
1.01453
1.01453
1.01453
1.01453
1.01453
1.01453
1.01453
1.01453
1.01453
1.01453
1.01453
1.01454
1.01455
1.01456
1.0146
1.01466
1.01475
1.0149
1.01511
1.01541
1.0158
1.01631
1.01692
1.01763
1.01842
1.01927
1.02014
1.021
1.02183
1.02262
1.02333
1.02399
1.02458
1.02511
1.0256
1.02605
1.02648
1.02689
1.0273
1.02771
1.02812
1.02855
1.02899
1.02944
1.02993
1.03044
1.03098
1.03157
1.03222
1.03294
1.03375
1.03468
1.03578
1.03711
1.03874
1.04081
1.04346
1.04683
1.05102
1.0559
1.05984
1.05944
0.986675
0.986035
0.986643
0.987749
0.989001
0.990174
0.991231
0.992176
0.993027
0.9938
0.99451
0.995163
0.995771
0.996334
0.996866
0.997363
0.997838
0.998286
0.998719
0.999132
0.999536
0.999925
1.00031
1.00069
1.00106
1.00144
1.00182
1.0022
1.0026
1.00301
1.00345
1.00391
1.0044
1.00493
1.0055
1.00612
1.0068
1.00751
1.00827
1.00906
1.00985
1.01062
1.01136
1.01203
1.01261
1.0131
1.01348
1.01376
1.01393
1.014
1.01398
1.01388
1.01371
1.01345
1.01313
1.01275
1.01231
1.01183
1.0113
1.01076
1.0102
1.00963
1.00907
1.00852
1.00798
1.00746
1.00696
1.00648
1.00601
1.00556
1.00512
1.00469
1.00427
1.00385
1.00344
1.00303
1.00264
1.00227
1.00193
1.00163
1.00137
1.00114
1.00097
1.00084
1.00074
1.00068
1.00065
1.00065
1.00065
1.00067
1.00069
1.00072
1.00074
1.00077
1.00079
1.00081
1.00082
1.00084
1.00085
1.00087
1.00088
1.00089
1.0009
1.00091
1.00091
1.00091
1.00091
1.0009
1.00089
1.00088
1.00086
1.00085
1.00084
1.00083
1.00084
1.00086
1.00091
1.00099
1.0011
1.00125
1.00144
1.00167
1.00194
1.00224
1.00258
1.00293
1.0033
1.00369
1.00409
1.00449
1.00491
1.00534
1.00579
1.00625
1.00674
1.00724
1.00777
1.00832
1.00888
1.00945
1.01002
1.01059
1.01115
1.01168
1.01218
1.01264
1.01304
1.01339
1.01369
1.01392
1.01411
1.01425
1.01435
1.01442
1.01447
1.0145
1.01452
1.01453
1.01454
1.01454
1.01455
1.01455
1.01455
1.01455
1.01455
1.01455
1.01455
1.01455
1.01455
1.01455
1.01455
1.01455
1.01455
1.01455
1.01455
1.01455
1.01455
1.01455
1.01455
1.01455
1.01455
1.01455
1.01455
1.01455
1.01455
1.01455
1.01455
1.01455
1.01455
1.01455
1.01455
1.01455
1.01455
1.01455
1.01455
1.01455
1.01455
1.01455
1.01455
1.01455
1.01455
1.01455
1.01455
1.01455
1.01455
1.01455
1.01455
1.01455
1.01455
1.01455
1.01455
1.01455
1.01455
1.01455
1.01455
1.01455
1.01455
1.01455
1.01455
1.01455
1.01455
1.01455
1.01455
1.01455
1.01455
1.01455
1.01455
1.01455
1.01455
1.01455
1.01455
1.01455
1.01455
1.01455
1.01455
1.01455
1.01455
1.01455
1.01455
1.01455
1.01455
1.01455
1.01455
1.01455
1.01455
1.01455
1.01455
1.01455
1.01455
1.01455
1.01455
1.01455
1.01455
1.01455
1.01455
1.01455
1.01455
1.01455
1.01455
1.01455
1.01455
1.01455
1.01455
1.01455
1.01455
1.01455
1.01455
1.01455
1.01455
1.01455
1.01455
1.01455
1.01455
1.01455
1.01455
1.01455
1.01455
1.01455
1.01455
1.01455
1.01455
1.01455
1.01455
1.01455
1.01455
1.01455
1.01455
1.01455
1.01455
1.01455
1.01455
1.01455
1.01455
1.01455
1.01455
1.01455
1.01455
1.01455
1.01455
1.01455
1.01455
1.01455
1.01455
1.01455
1.01455
1.01455
1.01455
1.01455
1.01455
1.01455
1.01455
1.01455
1.01455
1.01455
1.01455
1.01455
1.01455
1.01455
1.01455
1.01455
1.01455
1.01455
1.01455
1.01455
1.01455
1.01455
1.01455
1.01455
1.01455
1.01455
1.01455
1.01455
1.01455
1.01455
1.01455
1.01455
1.01455
1.01455
1.01455
1.01455
1.01455
1.01455
1.01455
1.01455
1.01455
1.01455
1.01455
1.01455
1.01455
1.01456
1.01457
1.01459
1.01463
1.0147
1.0148
1.01496
1.01519
1.0155
1.01591
1.01643
1.01704
1.01775
1.01853
1.01935
1.0202
1.02103
1.02184
1.02259
1.0233
1.02394
1.02452
1.02505
1.02554
1.026
1.02644
1.02686
1.02727
1.02768
1.0281
1.02853
1.02897
1.02943
1.02991
1.03042
1.03096
1.03154
1.03218
1.03288
1.03367
1.03456
1.0356
1.03684
1.03834
1.04018
1.04244
1.04515
1.04812
1.05085
1.05257
1.05144
0.989352
0.988872
0.98898
0.9895
0.990244
0.991057
0.991866
0.992642
0.993377
0.994071
0.994723
0.995335
0.995911
0.996452
0.996965
0.997449
0.997912
0.998352
0.998776
0.999183
0.99958
0.999966
1.00035
1.00072
1.00109
1.00146
1.00184
1.00222
1.00262
1.00303
1.00346
1.00391
1.0044
1.00493
1.0055
1.00612
1.00679
1.00751
1.00827
1.00906
1.00986
1.01063
1.01137
1.01204
1.01262
1.01309
1.01345
1.0137
1.01384
1.01387
1.0138
1.01365
1.01341
1.0131
1.01272
1.01229
1.01181
1.0113
1.01077
1.01024
1.00972
1.00921
1.00872
1.00826
1.00781
1.00739
1.00699
1.00661
1.00623
1.00586
1.00548
1.0051
1.0047
1.0043
1.0039
1.0035
1.0031
1.00273
1.00238
1.00208
1.00182
1.0016
1.00143
1.0013
1.0012
1.00114
1.00109
1.00106
1.00103
1.001
1.00098
1.00094
1.00091
1.00087
1.00083
1.00079
1.00075
1.00072
1.0007
1.00069
1.00069
1.0007
1.00072
1.00075
1.00078
1.00083
1.00087
1.00092
1.00097
1.00101
1.00105
1.00108
1.00112
1.00115
1.00118
1.00123
1.00129
1.00137
1.00148
1.00163
1.00182
1.00205
1.00232
1.00263
1.00298
1.00334
1.00373
1.00412
1.00451
1.0049
1.00529
1.00567
1.00606
1.00645
1.00686
1.00727
1.00771
1.00816
1.00864
1.00913
1.00965
1.01017
1.01071
1.01123
1.01174
1.01223
1.01267
1.01307
1.01341
1.01369
1.01392
1.0141
1.01424
1.01433
1.0144
1.01445
1.01448
1.0145
1.01451
1.01452
1.01452
1.01452
1.01452
1.01452
1.01452
1.01452
1.01452
1.01452
1.01452
1.01452
1.01452
1.01452
1.01452
1.01452
1.01452
1.01452
1.01452
1.01452
1.01452
1.01452
1.01452
1.01452
1.01452
1.01452
1.01452
1.01452
1.01452
1.01452
1.01452
1.01452
1.01452
1.01452
1.01452
1.01452
1.01452
1.01452
1.01452
1.01452
1.01452
1.01452
1.01452
1.01452
1.01452
1.01452
1.01452
1.01452
1.01452
1.01452
1.01452
1.01452
1.01452
1.01452
1.01452
1.01452
1.01452
1.01452
1.01452
1.01452
1.01452
1.01452
1.01452
1.01452
1.01452
1.01452
1.01452
1.01452
1.01452
1.01452
1.01452
1.01452
1.01452
1.01452
1.01452
1.01452
1.01452
1.01452
1.01452
1.01452
1.01452
1.01452
1.01452
1.01452
1.01452
1.01452
1.01452
1.01452
1.01452
1.01452
1.01452
1.01452
1.01452
1.01452
1.01452
1.01452
1.01452
1.01452
1.01452
1.01452
1.01452
1.01452
1.01452
1.01452
1.01452
1.01452
1.01452
1.01452
1.01452
1.01452
1.01452
1.01452
1.01452
1.01452
1.01452
1.01452
1.01452
1.01452
1.01452
1.01452
1.01452
1.01452
1.01452
1.01452
1.01452
1.01452
1.01452
1.01452
1.01452
1.01452
1.01452
1.01452
1.01452
1.01452
1.01452
1.01452
1.01452
1.01452
1.01452
1.01452
1.01452
1.01452
1.01452
1.01452
1.01452
1.01452
1.01452
1.01452
1.01452
1.01452
1.01452
1.01452
1.01452
1.01452
1.01452
1.01452
1.01452
1.01452
1.01452
1.01452
1.01452
1.01452
1.01452
1.01452
1.01452
1.01452
1.01452
1.01452
1.01452
1.01452
1.01452
1.01452
1.01452
1.01452
1.01452
1.01452
1.01452
1.01452
1.01452
1.01452
1.01452
1.01452
1.01452
1.01452
1.01452
1.01452
1.01452
1.01452
1.01452
1.01453
1.01453
1.01454
1.01455
1.01457
1.01462
1.01469
1.0148
1.01497
1.01521
1.01554
1.01596
1.01648
1.0171
1.0178
1.01856
1.01937
1.02019
1.021
1.02178
1.02251
1.0232
1.02383
1.02441
1.02494
1.02543
1.02589
1.02634
1.02676
1.02718
1.0276
1.02802
1.02845
1.02889
1.02934
1.02982
1.03032
1.03086
1.03143
1.03205
1.03274
1.03349
1.03434
1.03532
1.03645
1.03779
1.03938
1.04122
1.04325
1.04528
1.04681
1.04737
1.04661
0.991362
0.990906
0.990828
0.991076
0.991519
0.992073
0.992676
0.993296
0.993912
0.994514
0.995095
0.995652
0.996184
0.996692
0.997177
0.997639
0.998083
0.998509
0.99892
0.999318
0.999705
1.00008
1.00046
1.00082
1.00119
1.00156
1.00193
1.00231
1.0027
1.00311
1.00353
1.00398
1.00447
1.00499
1.00556
1.00619
1.00686
1.00758
1.00835
1.00915
1.00995
1.01073
1.01146
1.01212
1.01268
1.01314
1.01347
1.01368
1.01377
1.01375
1.01363
1.01342
1.01312
1.01275
1.01232
1.01184
1.01134
1.01082
1.0103
1.0098
1.00933
1.00888
1.00847
1.00809
1.00774
1.00742
1.00711
1.00681
1.00651
1.00621
1.00589
1.00556
1.0052
1.00482
1.00443
1.00404
1.00366
1.00329
1.00296
1.00266
1.00241
1.0022
1.00204
1.00191
1.00181
1.00173
1.00167
1.00161
1.00154
1.00148
1.0014
1.00132
1.00123
1.00113
1.00104
1.00095
1.00087
1.00081
1.00076
1.00073
1.00071
1.00072
1.00075
1.0008
1.00087
1.00094
1.00103
1.00113
1.00122
1.00132
1.0014
1.00148
1.00156
1.00163
1.00169
1.00175
1.00182
1.00191
1.00203
1.00217
1.00235
1.00258
1.00285
1.00316
1.0035
1.00387
1.00426
1.00464
1.00502
1.00539
1.00575
1.00608
1.00641
1.00673
1.00705
1.00738
1.00772
1.00808
1.00847
1.00888
1.00933
1.0098
1.0103
1.01081
1.01132
1.01182
1.0123
1.01274
1.01313
1.01347
1.01375
1.01398
1.01415
1.01428
1.01437
1.01444
1.01448
1.01451
1.01453
1.01454
1.01454
1.01455
1.01455
1.01455
1.01455
1.01455
1.01455
1.01455
1.01455
1.01455
1.01455
1.01455
1.01455
1.01455
1.01455
1.01455
1.01455
1.01455
1.01455
1.01455
1.01455
1.01455
1.01455
1.01455
1.01455
1.01455
1.01455
1.01455
1.01455
1.01455
1.01455
1.01455
1.01455
1.01455
1.01455
1.01455
1.01455
1.01455
1.01455
1.01455
1.01455
1.01455
1.01455
1.01455
1.01455
1.01455
1.01455
1.01455
1.01455
1.01455
1.01455
1.01455
1.01455
1.01455
1.01455
1.01455
1.01455
1.01455
1.01455
1.01455
1.01455
1.01455
1.01455
1.01455
1.01455
1.01455
1.01455
1.01455
1.01455
1.01455
1.01455
1.01455
1.01455
1.01455
1.01455
1.01455
1.01455
1.01455
1.01455
1.01455
1.01455
1.01455
1.01455
1.01455
1.01455
1.01455
1.01455
1.01455
1.01455
1.01455
1.01455
1.01455
1.01455
1.01455
1.01455
1.01455
1.01455
1.01455
1.01455
1.01455
1.01455
1.01455
1.01455
1.01455
1.01455
1.01455
1.01455
1.01455
1.01455
1.01455
1.01455
1.01455
1.01455
1.01455
1.01455
1.01455
1.01455
1.01455
1.01455
1.01455
1.01455
1.01455
1.01455
1.01455
1.01455
1.01455
1.01455
1.01455
1.01455
1.01455
1.01455
1.01455
1.01455
1.01455
1.01455
1.01455
1.01455
1.01455
1.01455
1.01455
1.01455
1.01455
1.01455
1.01455
1.01455
1.01455
1.01455
1.01455
1.01455
1.01455
1.01455
1.01455
1.01455
1.01455
1.01455
1.01455
1.01455
1.01455
1.01455
1.01455
1.01455
1.01455
1.01455
1.01455
1.01455
1.01455
1.01455
1.01455
1.01455
1.01455
1.01455
1.01455
1.01455
1.01455
1.01455
1.01455
1.01455
1.01455
1.01455
1.01455
1.01455
1.01455
1.01455
1.01455
1.01455
1.01455
1.01455
1.01455
1.01456
1.01457
1.01458
1.01461
1.01465
1.01473
1.01485
1.01503
1.01528
1.01561
1.01604
1.01656
1.01718
1.01787
1.01862
1.01941
1.02021
1.02099
1.02175
1.02247
1.02315
1.02377
1.02434
1.02487
1.02537
1.02584
1.02628
1.02671
1.02713
1.02755
1.02798
1.02841
1.02885
1.0293
1.02978
1.03028
1.0308
1.03137
1.03197
1.03263
1.03336
1.03416
1.03507
1.03611
1.03729
1.03863
1.04009
1.04157
1.04289
1.04376
1.04383
1.04311
0.992878
0.99246
0.992332
0.992434
0.992698
0.993074
0.993518
0.994001
0.994502
0.995009
0.995512
0.996005
0.996485
0.99695
0.997399
0.997832
0.998251
0.998657
0.99905
0.999433
0.999808
1.00018
1.00054
1.0009
1.00126
1.00162
1.00198
1.00236
1.00274
1.00314
1.00357
1.00402
1.0045
1.00502
1.00559
1.00622
1.0069
1.00763
1.0084
1.0092
1.01
1.01078
1.01151
1.01216
1.0127
1.01312
1.01341
1.01358
1.01362
1.01354
1.01336
1.01308
1.01272
1.0123
1.01182
1.01132
1.0108
1.01029
1.00979
1.00933
1.00891
1.00854
1.0082
1.00791
1.00764
1.0074
1.00717
1.00695
1.00672
1.00648
1.00621
1.00592
1.0056
1.00526
1.0049
1.00453
1.00417
1.00383
1.00352
1.00325
1.00302
1.00283
1.00268
1.00256
1.00245
1.00236
1.00228
1.00219
1.0021
1.00199
1.00188
1.00175
1.00162
1.00149
1.00136
1.00124
1.00113
1.00104
1.00097
1.00092
1.00091
1.00092
1.00095
1.00101
1.0011
1.0012
1.00132
1.00145
1.00158
1.00171
1.00184
1.00196
1.00207
1.00216
1.00225
1.00233
1.00242
1.00251
1.00262
1.00276
1.00293
1.00314
1.0034
1.00369
1.00402
1.00437
1.00474
1.00511
1.00547
1.00581
1.00613
1.00642
1.00668
1.00693
1.00718
1.00742
1.00768
1.00795
1.00825
1.00858
1.00896
1.00937
1.00982
1.0103
1.01081
1.01132
1.01183
1.01231
1.01275
1.01314
1.01347
1.01375
1.01397
1.01414
1.01426
1.01435
1.01442
1.01446
1.01448
1.0145
1.01451
1.01451
1.01452
1.01452
1.01452
1.01452
1.01452
1.01452
1.01452
1.01452
1.01452
1.01452
1.01452
1.01452
1.01452
1.01452
1.01452
1.01452
1.01452
1.01452
1.01452
1.01452
1.01452
1.01452
1.01452
1.01452
1.01452
1.01452
1.01452
1.01452
1.01452
1.01452
1.01452
1.01452
1.01452
1.01452
1.01452
1.01452
1.01452
1.01452
1.01452
1.01452
1.01452
1.01452
1.01452
1.01452
1.01452
1.01452
1.01452
1.01452
1.01452
1.01452
1.01452
1.01452
1.01452
1.01452
1.01452
1.01452
1.01452
1.01452
1.01452
1.01452
1.01452
1.01452
1.01452
1.01452
1.01452
1.01452
1.01452
1.01452
1.01452
1.01452
1.01452
1.01452
1.01452
1.01452
1.01452
1.01452
1.01452
1.01452
1.01452
1.01452
1.01452
1.01452
1.01452
1.01452
1.01452
1.01452
1.01452
1.01452
1.01452
1.01452
1.01452
1.01452
1.01452
1.01452
1.01452
1.01452
1.01452
1.01452
1.01452
1.01452
1.01452
1.01452
1.01452
1.01452
1.01452
1.01452
1.01452
1.01452
1.01452
1.01452
1.01452
1.01452
1.01452
1.01452
1.01452
1.01452
1.01452
1.01452
1.01452
1.01452
1.01452
1.01452
1.01452
1.01452
1.01452
1.01452
1.01452
1.01452
1.01452
1.01452
1.01452
1.01452
1.01452
1.01452
1.01452
1.01452
1.01452
1.01452
1.01452
1.01452
1.01452
1.01452
1.01452
1.01452
1.01452
1.01452
1.01452
1.01452
1.01452
1.01452
1.01452
1.01452
1.01452
1.01452
1.01452
1.01452
1.01452
1.01452
1.01452
1.01452
1.01452
1.01452
1.01452
1.01452
1.01452
1.01452
1.01452
1.01452
1.01452
1.01452
1.01452
1.01452
1.01452
1.01452
1.01452
1.01452
1.01452
1.01452
1.01452
1.01452
1.01452
1.01452
1.01452
1.01452
1.01452
1.01452
1.01453
1.01454
1.01455
1.01458
1.01463
1.01471
1.01483
1.01502
1.01527
1.01561
1.01604
1.01657
1.01718
1.01786
1.0186
1.01937
1.02015
1.02092
1.02166
1.02236
1.02302
1.02364
1.02421
1.02474
1.02523
1.0257
1.02615
1.02659
1.02701
1.02743
1.02786
1.02829
1.02873
1.02918
1.02965
1.03014
1.03066
1.03121
1.0318
1.03243
1.03312
1.03387
1.03471
1.03563
1.03665
1.03774
1.03887
1.03993
1.04078
1.04124
1.04115
1.04049
0.994073
0.993717
0.993566
0.993593
0.993757
0.994021
0.994354
0.994735
0.995145
0.995572
0.996006
0.99644
0.99687
0.997293
0.997706
0.99811
0.998503
0.998887
0.999262
0.999629
0.999989
1.00034
1.0007
1.00105
1.0014
1.00175
1.00211
1.00248
1.00286
1.00326
1.00368
1.00412
1.00461
1.00513
1.00571
1.00634
1.00702
1.00776
1.00854
1.00935
1.01015
1.01092
1.01164
1.01226
1.01277
1.01316
1.0134
1.01351
1.01349
1.01335
1.01311
1.01277
1.01236
1.01189
1.01138
1.01086
1.01034
1.00985
1.00939
1.00899
1.00863
1.00832
1.00805
1.00783
1.00764
1.00747
1.00731
1.00715
1.00698
1.00678
1.00656
1.00631
1.00603
1.00572
1.00539
1.00507
1.00475
1.00445
1.00418
1.00395
1.00375
1.00358
1.00345
1.00333
1.00323
1.00313
1.00303
1.00292
1.0028
1.00267
1.00253
1.00237
1.00222
1.00206
1.00191
1.00177
1.00165
1.00155
1.00147
1.00142
1.0014
1.00141
1.00145
1.00151
1.00161
1.00173
1.00186
1.00201
1.00216
1.00232
1.00247
1.00262
1.00275
1.00287
1.00298
1.00308
1.00317
1.00326
1.00337
1.00349
1.00365
1.00384
1.00406
1.00433
1.00463
1.00495
1.00529
1.00563
1.00596
1.00626
1.00654
1.00678
1.007
1.00719
1.00736
1.00753
1.00771
1.00791
1.00813
1.00839
1.00869
1.00904
1.00944
1.00988
1.01036
1.01087
1.01139
1.0119
1.01238
1.01282
1.01321
1.01354
1.01381
1.01403
1.01419
1.01431
1.0144
1.01446
1.0145
1.01452
1.01453
1.01454
1.01455
1.01455
1.01455
1.01455
1.01455
1.01455
1.01455
1.01455
1.01455
1.01455
1.01455
1.01455
1.01455
1.01455
1.01455
1.01455
1.01455
1.01455
1.01455
1.01455
1.01455
1.01455
1.01455
1.01455
1.01455
1.01455
1.01455
1.01455
1.01455
1.01455
1.01455
1.01455
1.01455
1.01455
1.01455
1.01455
1.01455
1.01455
1.01455
1.01455
1.01455
1.01455
1.01455
1.01455
1.01455
1.01455
1.01455
1.01455
1.01455
1.01455
1.01455
1.01455
1.01455
1.01455
1.01455
1.01455
1.01455
1.01455
1.01455
1.01455
1.01455
1.01455
1.01455
1.01455
1.01455
1.01455
1.01455
1.01455
1.01455
1.01455
1.01455
1.01455
1.01455
1.01455
1.01455
1.01455
1.01455
1.01455
1.01455
1.01455
1.01455
1.01455
1.01455
1.01455
1.01455
1.01455
1.01455
1.01455
1.01455
1.01455
1.01455
1.01455
1.01455
1.01455
1.01455
1.01455
1.01455
1.01455
1.01455
1.01455
1.01455
1.01455
1.01455
1.01455
1.01455
1.01455
1.01455
1.01455
1.01455
1.01455
1.01455
1.01455
1.01455
1.01455
1.01455
1.01455
1.01455
1.01455
1.01455
1.01455
1.01455
1.01455
1.01455
1.01455
1.01455
1.01455
1.01455
1.01455
1.01455
1.01455
1.01455
1.01455
1.01455
1.01455
1.01455
1.01455
1.01455
1.01455
1.01455
1.01455
1.01455
1.01455
1.01455
1.01455
1.01455
1.01455
1.01455
1.01455
1.01455
1.01455
1.01455
1.01455
1.01455
1.01455
1.01455
1.01455
1.01455
1.01455
1.01455
1.01455
1.01455
1.01455
1.01455
1.01455
1.01455
1.01455
1.01455
1.01455
1.01455
1.01455
1.01455
1.01455
1.01455
1.01455
1.01455
1.01455
1.01455
1.01455
1.01455
1.01455
1.01455
1.01455
1.01455
1.01455
1.01455
1.01456
1.01456
1.01457
1.01459
1.01461
1.01467
1.01475
1.01487
1.01506
1.01532
1.01566
1.01609
1.01661
1.01721
1.01789
1.01861
1.01937
1.02013
1.02088
1.02161
1.0223
1.02295
1.02356
1.02413
1.02466
1.02516
1.02563
1.02608
1.02652
1.02695
1.02737
1.02779
1.02822
1.02866
1.02911
1.02957
1.03006
1.03057
1.0311
1.03167
1.03228
1.03293
1.03363
1.03439
1.03521
1.03607
1.03696
1.03782
1.03858
1.03912
1.03934
1.03917
1.03856
0.995023
0.994726
0.994586
0.994577
0.994677
0.994864
0.995115
0.995415
0.995748
0.996104
0.996474
0.996853
0.997233
0.997613
0.997989
0.99836
0.998726
0.999086
0.99944
0.999789
1.00013
1.00048
1.00082
1.00116
1.0015
1.00184
1.0022
1.00256
1.00293
1.00333
1.00374
1.00419
1.00467
1.0052
1.00578
1.00642
1.00711
1.00786
1.00865
1.00945
1.01026
1.01102
1.01171
1.01231
1.01278
1.01311
1.0133
1.01335
1.01327
1.01306
1.01275
1.01235
1.01189
1.01139
1.01086
1.01034
1.00984
1.00939
1.00898
1.00862
1.00832
1.00808
1.00788
1.00772
1.00759
1.00747
1.00737
1.00725
1.00713
1.00697
1.00679
1.00657
1.00633
1.00606
1.00578
1.0055
1.00523
1.00498
1.00477
1.00458
1.00442
1.00429
1.00418
1.00408
1.00399
1.00389
1.00378
1.00366
1.00352
1.00337
1.00322
1.00305
1.00289
1.00272
1.00257
1.00243
1.0023
1.0022
1.00213
1.00208
1.00206
1.00207
1.00211
1.00218
1.00227
1.00239
1.00252
1.00268
1.00284
1.003
1.00317
1.00332
1.00347
1.00361
1.00372
1.00383
1.00393
1.00402
1.00411
1.00422
1.00434
1.0045
1.00469
1.00491
1.00516
1.00544
1.00573