# vtk DataFile Version 2.0
LBE mesh
ASCII
DATASET STRUCTURED_POINTS
DIMENSIONS 400 100 1
ASPECT_RATIO 1 1 1
ORIGIN 0 0 0
POINT_DATA 40000
SCALARS rho double 1
LOOKUP_TABLE default
1.01309
1.06169
1.07643
1.08053
1.08277
1.08443
1.08558
1.08633
1.08685
1.08722
1.0875
1.0877
1.08786
1.08797
1.08805
1.08811
1.08814
1.08816
1.08817
1.08816
1.08815
1.08814
1.08812
1.08809
1.08807
1.08804
1.08802
1.08799
1.08797
1.08795
1.08794
1.08792
1.08791
1.08791
1.08791
1.08792
1.08793
1.08794
1.08797
1.088
1.08803
1.08807
1.08812
1.08817
1.08823
1.0883
1.08837
1.08845
1.08853
1.08863
1.08872
1.08883
1.08894
1.08905
1.08918
1.08931
1.08944
1.08958
1.08973
1.08988
1.09004
1.09021
1.09038
1.09056
1.09074
1.09094
1.09113
1.09134
1.09155
1.09177
1.09199
1.09222
1.09246
1.09271
1.09296
1.09321
1.09348
1.09375
1.09402
1.0943
1.09459
1.09488
1.09518
1.09548
1.09578
1.09608
1.09639
1.0967
1.09701
1.09732
1.09763
1.09794
1.09824
1.09854
1.09883
1.09911
1.09939
1.09966
1.09992
1.10017
1.10041
1.10063
1.10084
1.10104
1.10121
1.10137
1.10152
1.10164
1.10175
1.10183
1.1019
1.10194
1.10196
1.10196
1.10194
1.10189
1.10183
1.10174
1.10163
1.10151
1.10136
1.10119
1.10101
1.1008
1.10058
1.10035
1.1001
1.09984
1.09957
1.09929
1.099
1.0987
1.09839
1.09808
1.09776
1.09743
1.09711
1.09678
1.09645
1.09612
1.09579
1.09547
1.09514
1.09481
1.09449
1.09418
1.09386
1.09355
1.09325
1.09295
1.09266
1.09237
1.09209
1.09182
1.09156
1.0913
1.09105
1.09081
1.09057
1.09035
1.09013
1.08992
1.08972
1.08953
1.08934
1.08917
1.089
1.08884
1.08869
1.08855
1.08842
1.0883
1.08818
1.08807
1.08797
1.08788
1.08779
1.08771
1.08764
1.08757
1.08751
1.08746
1.08741
1.08736
1.08733
1.08729
1.08727
1.08724
1.08722
1.0872
1.08719
1.08717
1.08716
1.08716
1.08715
1.08714
1.08713
1.08713
1.08712
1.08711
1.0871
1.08709
1.08708
1.08706
1.08704
1.08702
1.08699
1.08696
1.08692
1.08688
1.08684
1.08679
1.08674
1.08669
1.08663
1.08656
1.08649
1.08642
1.08635
1.08627
1.08619
1.08611
1.08602
1.08594
1.08585
1.08577
1.08568
1.0856
1.08552
1.08544
1.08536
1.08529
1.08523
1.08516
1.08511
1.08506
1.08502
1.08498
1.08496
1.08494
1.08493
1.08493
1.08494
1.08496
1.085
1.08504
1.08509
1.08515
1.08523
1.08532
1.08541
1.08552
1.08564
1.08578
1.08592
1.08608
1.08624
1.08642
1.08661
1.08681
1.08702
1.08724
1.08747
1.08771
1.08796
1.08821
1.08848
1.08876
1.08904
1.08933
1.08962
1.08993
1.09023
1.09055
1.09086
1.09118
1.0915
1.09183
1.09215
1.09247
1.0928
1.09312
1.09344
1.09376
1.09407
1.09438
1.09468
1.09498
1.09527
1.09555
1.09583
1.0961
1.09636
1.09661
1.09686
1.09709
1.09731
1.09753
1.09773
1.09792
1.0981
1.09827
1.09843
1.09858
1.09871
1.09883
1.09894
1.09903
1.09911
1.09918
1.09923
1.09926
1.09929
1.09929
1.09929
1.09926
1.09922
1.09917
1.0991
1.09902
1.09892
1.0988
1.09868
1.09854
1.09839
1.09822
1.09805
1.09786
1.09767
1.09747
1.09726
1.09704
1.09682
1.0966
1.09637
1.09615
1.09592
1.09569
1.09547
1.09524
1.09502
1.09481
1.0946
1.0944
1.09421
1.09402
1.09384
1.09368
1.09352
1.09338
1.09325
1.09313
1.09303
1.09294
1.09287
1.09281
1.09277
1.09275
1.09275
1.09277
1.09281
1.09287
1.09296
1.09307
1.09321
1.09338
1.09357
1.0938
1.09407
1.09437
1.0947
1.09508
1.0955
1.09596
1.09647
1.09703
1.09764
1.0983
1.09902
1.09981
1.10066
1.10158
1.10258
1.10366
1.10483
1.10611
1.1075
1.10902
1.1107
1.11257
1.11466
1.11703
1.11977
1.12301
1.12695
1.13205
1.13905
1.14887
1.16437
1.1979
1.04665
1.05886
1.06932
1.07669
1.08063
1.08281
1.08421
1.08521
1.08594
1.08647
1.08686
1.08716
1.08738
1.08755
1.08768
1.08777
1.08784
1.08789
1.08792
1.08794
1.08795
1.08795
1.08795
1.08794
1.08792
1.08791
1.08789
1.08788
1.08786
1.08785
1.08784
1.08783
1.08783
1.08783
1.08784
1.08785
1.08786
1.08788
1.08791
1.08794
1.08798
1.08802
1.08807
1.08813
1.08819
1.08826
1.08833
1.08841
1.0885
1.08859
1.08869
1.0888
1.08891
1.08903
1.08915
1.08928
1.08942
1.08956
1.08971
1.08986
1.09002
1.09019
1.09037
1.09055
1.09073
1.09093
1.09113
1.09133
1.09154
1.09176
1.09199
1.09222
1.09246
1.09271
1.09296
1.09322
1.09348
1.09375
1.09403
1.09431
1.0946
1.09489
1.09519
1.09549
1.09579
1.0961
1.09641
1.09672
1.09703
1.09734
1.09764
1.09795
1.09825
1.09855
1.09884
1.09912
1.0994
1.09967
1.09993
1.10017
1.10041
1.10063
1.10084
1.10103
1.1012
1.10136
1.1015
1.10163
1.10173
1.10181
1.10187
1.10191
1.10193
1.10193
1.1019
1.10186
1.10179
1.1017
1.10159
1.10146
1.10131
1.10114
1.10096
1.10075
1.10054
1.1003
1.10006
1.0998
1.09952
1.09924
1.09895
1.09865
1.09835
1.09804
1.09772
1.0974
1.09707
1.09675
1.09642
1.09609
1.09577
1.09544
1.09512
1.09479
1.09447
1.09416
1.09385
1.09354
1.09324
1.09294
1.09265
1.09237
1.09209
1.09182
1.09155
1.0913
1.09105
1.09081
1.09057
1.09035
1.09013
1.08992
1.08972
1.08953
1.08935
1.08917
1.08901
1.08885
1.0887
1.08856
1.08843
1.0883
1.08819
1.08808
1.08798
1.08788
1.0878
1.08772
1.08764
1.08758
1.08752
1.08746
1.08741
1.08737
1.08733
1.0873
1.08727
1.08725
1.08723
1.08721
1.08719
1.08718
1.08717
1.08716
1.08715
1.08714
1.08714
1.08713
1.08712
1.08711
1.0871
1.08709
1.08707
1.08706
1.08704
1.08701
1.08699
1.08695
1.08692
1.08688
1.08684
1.08679
1.08674
1.08668
1.08662
1.08656
1.08649
1.08641
1.08634
1.08626
1.08618
1.0861
1.08602
1.08593
1.08585
1.08576
1.08568
1.08559
1.08551
1.08543
1.08536
1.08529
1.08522
1.08516
1.08511
1.08506
1.08502
1.08499
1.08496
1.08494
1.08494
1.08494
1.08495
1.08497
1.085
1.08505
1.0851
1.08517
1.08524
1.08533
1.08543
1.08554
1.08566
1.0858
1.08594
1.0861
1.08626
1.08644
1.08663
1.08683
1.08704
1.08726
1.08749
1.08773
1.08798
1.08824
1.08851
1.08878
1.08907
1.08935
1.08965
1.08995
1.09026
1.09057
1.09089
1.0912
1.09152
1.09185
1.09217
1.09249
1.09281
1.09313
1.09345
1.09377
1.09408
1.09439
1.09469
1.09498
1.09527
1.09555
1.09583
1.0961
1.09636
1.09661
1.09685
1.09708
1.0973
1.09751
1.09772
1.09791
1.09809
1.09826
1.09841
1.09856
1.09869
1.09881
1.09891
1.09901
1.09909
1.09915
1.0992
1.09924
1.09926
1.09926
1.09925
1.09923
1.09919
1.09913
1.09906
1.09898
1.09888
1.09877
1.09864
1.0985
1.09835
1.09818
1.09801
1.09783
1.09763
1.09743
1.09722
1.09701
1.09679
1.09657
1.09634
1.09612
1.09589
1.09567
1.09544
1.09522
1.095
1.09479
1.09459
1.09439
1.09419
1.09401
1.09384
1.09367
1.09352
1.09338
1.09325
1.09313
1.09303
1.09294
1.09287
1.09282
1.09278
1.09276
1.09277
1.09279
1.09283
1.0929
1.09299
1.09311
1.09325
1.09342
1.09362
1.09386
1.09413
1.09443
1.09478
1.09516
1.09558
1.09605
1.09657
1.09714
1.09775
1.09843
1.09916
1.09996
1.10082
1.10176
1.10277
1.10387
1.10506
1.10637
1.10779
1.10935
1.11107
1.113
1.11517
1.11765
1.12053
1.12398
1.12823
1.13358
1.14062
1.15103
1.16892
1.1965
1.06426
1.06518
1.07119
1.07607
1.07928
1.08156
1.08319
1.08434
1.08518
1.08581
1.08629
1.08666
1.08694
1.08716
1.08733
1.08746
1.08756
1.08764
1.08769
1.08773
1.08776
1.08777
1.08778
1.08778
1.08778
1.08778
1.08777
1.08776
1.08775
1.08775
1.08775
1.08774
1.08775
1.08775
1.08776
1.08778
1.08779
1.08782
1.08785
1.08788
1.08792
1.08797
1.08802
1.08808
1.08814
1.08821
1.08829
1.08837
1.08846
1.08855
1.08865
1.08876
1.08887
1.08899
1.08912
1.08925
1.08939
1.08953
1.08968
1.08984
1.09
1.09017
1.09034
1.09052
1.09071
1.0909
1.0911
1.09131
1.09153
1.09175
1.09197
1.09221
1.09245
1.0927
1.09295
1.09321
1.09348
1.09375
1.09403
1.09431
1.0946
1.09489
1.09519
1.09549
1.0958
1.0961
1.09641
1.09672
1.09703
1.09734
1.09765
1.09796
1.09826
1.09855
1.09885
1.09913
1.09941
1.09967
1.09993
1.10018
1.10041
1.10063
1.10083
1.10102
1.1012
1.10135
1.10149
1.10161
1.10171
1.10179
1.10185
1.10189
1.1019
1.1019
1.10187
1.10182
1.10175
1.10166
1.10155
1.10142
1.10127
1.1011
1.10091
1.10071
1.10049
1.10025
1.1
1.09974
1.09947
1.09919
1.0989
1.0986
1.0983
1.09799
1.09767
1.09736
1.09703
1.09671
1.09638
1.09606
1.09573
1.09541
1.09509
1.09477
1.09445
1.09413
1.09382
1.09352
1.09322
1.09292
1.09263
1.09235
1.09207
1.0918
1.09154
1.09129
1.09104
1.0908
1.09057
1.09034
1.09013
1.08992
1.08972
1.08953
1.08935
1.08917
1.08901
1.08885
1.0887
1.08856
1.08843
1.0883
1.08819
1.08808
1.08798
1.08788
1.0878
1.08772
1.08765
1.08758
1.08752
1.08746
1.08742
1.08737
1.08734
1.0873
1.08727
1.08725
1.08723
1.08721
1.08719
1.08718
1.08717
1.08716
1.08715
1.08714
1.08713
1.08713
1.08712
1.08711
1.0871
1.08708
1.08707
1.08705
1.08703
1.08701
1.08698
1.08695
1.08691
1.08687
1.08683
1.08678
1.08673
1.08667
1.08661
1.08654
1.08647
1.0864
1.08633
1.08625
1.08617
1.08609
1.086
1.08592
1.08583
1.08575
1.08566
1.08558
1.0855
1.08542
1.08535
1.08528
1.08521
1.08515
1.0851
1.08505
1.08501
1.08498
1.08496
1.08494
1.08493
1.08494
1.08495
1.08497
1.085
1.08505
1.0851
1.08517
1.08525
1.08533
1.08543
1.08554
1.08567
1.0858
1.08595
1.0861
1.08627
1.08645
1.08664
1.08684
1.08705
1.08727
1.08751
1.08775
1.088
1.08826
1.08852
1.0888
1.08908
1.08937
1.08967
1.08997
1.09028
1.09059
1.0909
1.09122
1.09154
1.09186
1.09218
1.0925
1.09283
1.09314
1.09346
1.09378
1.09408
1.09439
1.09469
1.09498
1.09527
1.09555
1.09583
1.09609
1.09635
1.0966
1.09684
1.09707
1.09729
1.0975
1.0977
1.09789
1.09807
1.09823
1.09839
1.09853
1.09866
1.09878
1.09889
1.09898
1.09906
1.09912
1.09917
1.09921
1.09923
1.09923
1.09922
1.0992
1.09915
1.0991
1.09903
1.09894
1.09884
1.09873
1.0986
1.09846
1.09831
1.09814
1.09797
1.09778
1.09759
1.09739
1.09718
1.09697
1.09675
1.09653
1.09631
1.09608
1.09586
1.09563
1.09541
1.09519
1.09497
1.09476
1.09456
1.09436
1.09417
1.09399
1.09382
1.09365
1.0935
1.09336
1.09323
1.09312
1.09302
1.09293
1.09286
1.09281
1.09278
1.09276
1.09276
1.09279
1.09283
1.0929
1.09299
1.09311
1.09326
1.09343
1.09364
1.09388
1.09415
1.09446
1.09481
1.09519
1.09562
1.0961
1.09662
1.09719
1.09782
1.0985
1.09924
1.10004
1.10091
1.10186
1.10288
1.10399
1.10519
1.1065
1.10794
1.10951
1.11125
1.11319
1.11537
1.11786
1.12075
1.12415
1.12826
1.13341
1.14007
1.14848
1.15762
1.16565
1.07267
1.07204
1.07414
1.07669
1.07919
1.08118
1.08265
1.08377
1.08464
1.08531
1.08583
1.08624
1.08656
1.08682
1.08702
1.08718
1.0873
1.0874
1.08747
1.08753
1.08757
1.0876
1.08762
1.08763
1.08764
1.08764
1.08765
1.08765
1.08765
1.08765
1.08765
1.08765
1.08766
1.08767
1.08769
1.0877
1.08773
1.08775
1.08778
1.08782
1.08786
1.08791
1.08797
1.08803
1.08809
1.08816
1.08824
1.08832
1.08841
1.08851
1.08861
1.08872
1.08883
1.08895
1.08908
1.08921
1.08935
1.08949
1.08964
1.0898
1.08996
1.09013
1.09031
1.09049
1.09068
1.09087
1.09107
1.09128
1.0915
1.09172
1.09195
1.09218
1.09243
1.09267
1.09293
1.09319
1.09346
1.09373
1.09401
1.0943
1.09459
1.09488
1.09518
1.09548
1.09579
1.0961
1.09641
1.09672
1.09703
1.09734
1.09765
1.09796
1.09826
1.09856
1.09885
1.09913
1.09941
1.09967
1.09993
1.10018
1.10041
1.10063
1.10083
1.10102
1.10119
1.10134
1.10148
1.1016
1.10169
1.10177
1.10183
1.10186
1.10188
1.10187
1.10184
1.10179
1.10171
1.10162
1.10151
1.10137
1.10122
1.10105
1.10086
1.10065
1.10043
1.1002
1.09995
1.09969
1.09942
1.09914
1.09885
1.09855
1.09825
1.09794
1.09762
1.0973
1.09698
1.09666
1.09634
1.09601
1.09569
1.09537
1.09505
1.09473
1.09441
1.0941
1.09379
1.09349
1.09319
1.0929
1.09261
1.09233
1.09205
1.09179
1.09152
1.09127
1.09102
1.09079
1.09055
1.09033
1.09012
1.08991
1.08971
1.08952
1.08934
1.08917
1.089
1.08885
1.0887
1.08856
1.08842
1.0883
1.08818
1.08808
1.08798
1.08788
1.0878
1.08772
1.08764
1.08758
1.08752
1.08746
1.08742
1.08737
1.08733
1.0873
1.08727
1.08725
1.08722
1.08721
1.08719
1.08718
1.08716
1.08715
1.08715
1.08714
1.08713
1.08712
1.08711
1.0871
1.08709
1.08708
1.08706
1.08704
1.08702
1.08699
1.08696
1.08693
1.0869
1.08686
1.08681
1.08676
1.08671
1.08665
1.08659
1.08652
1.08646
1.08638
1.08631
1.08623
1.08615
1.08607
1.08598
1.0859
1.08581
1.08573
1.08565
1.08556
1.08548
1.08541
1.08533
1.08526
1.0852
1.08514
1.08509
1.08504
1.085
1.08497
1.08494
1.08493
1.08492
1.08492
1.08494
1.08496
1.08499
1.08504
1.08509
1.08516
1.08524
1.08533
1.08543
1.08554
1.08566
1.0858
1.08594
1.0861
1.08627
1.08645
1.08664
1.08684
1.08705
1.08727
1.08751
1.08775
1.088
1.08826
1.08853
1.0888
1.08908
1.08938
1.08967
1.08997
1.09028
1.09059
1.09091
1.09123
1.09155
1.09187
1.09219
1.09251
1.09283
1.09315
1.09347
1.09378
1.09409
1.09439
1.09469
1.09498
1.09527
1.09555
1.09582
1.09608
1.09634
1.09659
1.09682
1.09705
1.09727
1.09748
1.09768
1.09787
1.09805
1.09821
1.09837
1.09851
1.09864
1.09876
1.09886
1.09895
1.09903
1.09909
1.09914
1.09917
1.09919
1.0992
1.09919
1.09916
1.09912
1.09906
1.09899
1.0989
1.0988
1.09869
1.09856
1.09842
1.09827
1.0981
1.09793
1.09774
1.09755
1.09735
1.09714
1.09693
1.09671
1.09649
1.09627
1.09604
1.09582
1.09559
1.09537
1.09515
1.09494
1.09473
1.09452
1.09433
1.09414
1.09396
1.09378
1.09362
1.09347
1.09333
1.0932
1.09309
1.09299
1.09291
1.09284
1.09279
1.09275
1.09273
1.09274
1.09276
1.09281
1.09288
1.09297
1.09309
1.09324
1.09342
1.09362
1.09386
1.09414
1.09445
1.0948
1.09519
1.09562
1.0961
1.09662
1.0972
1.09783
1.09851
1.09925
1.10006
1.10093
1.10188
1.1029
1.10401
1.10521
1.10652
1.10795
1.10951
1.11123
1.11314
1.11528
1.11769
1.12046
1.12366
1.12742
1.13182
1.13692
1.14254
1.1471
1.14712
1.07669
1.07619
1.07687
1.07824
1.07984
1.08128
1.08251
1.08351
1.08433
1.08498
1.0855
1.08592
1.08626
1.08653
1.08675
1.08693
1.08707
1.08718
1.08727
1.08734
1.08739
1.08743
1.08747
1.08749
1.08751
1.08752
1.08753
1.08754
1.08754
1.08755
1.08756
1.08757
1.08758
1.08759
1.08761
1.08763
1.08766
1.08769
1.08772
1.08776
1.0878
1.08785
1.08791
1.08797
1.08804
1.08811
1.08819
1.08827
1.08836
1.08846
1.08856
1.08867
1.08878
1.0889
1.08903
1.08916
1.0893
1.08944
1.08959
1.08975
1.08991
1.09008
1.09026
1.09044
1.09063
1.09083
1.09103
1.09124
1.09146
1.09168
1.09191
1.09215
1.09239
1.09264
1.0929
1.09316
1.09343
1.0937
1.09398
1.09427
1.09456
1.09486
1.09516
1.09547
1.09577
1.09608
1.0964
1.09671
1.09702
1.09733
1.09764
1.09795
1.09825
1.09855
1.09884
1.09913
1.09941
1.09967
1.09993
1.10017
1.1004
1.10062
1.10082
1.10101
1.10118
1.10133
1.10147
1.10158
1.10168
1.10175
1.10181
1.10184
1.10185
1.10184
1.10181
1.10175
1.10168
1.10158
1.10146
1.10133
1.10117
1.101
1.10081
1.1006
1.10038
1.10014
1.09989
1.09963
1.09936
1.09908
1.09879
1.09849
1.09819
1.09788
1.09756
1.09725
1.09693
1.09661
1.09629
1.09596
1.09564
1.09532
1.095
1.09469
1.09437
1.09406
1.09376
1.09345
1.09316
1.09287
1.09258
1.0923
1.09203
1.09176
1.0915
1.09125
1.091
1.09077
1.09054
1.09031
1.0901
1.08989
1.0897
1.08951
1.08933
1.08916
1.08899
1.08884
1.08869
1.08855
1.08842
1.08829
1.08818
1.08807
1.08797
1.08788
1.08779
1.08771
1.08764
1.08757
1.08751
1.08746
1.08741
1.08737
1.08733
1.08729
1.08727
1.08724
1.08722
1.0872
1.08718
1.08717
1.08716
1.08715
1.08714
1.08713
1.08712
1.08711
1.0871
1.08709
1.08708
1.08706
1.08704
1.08702
1.087
1.08698
1.08695
1.08691
1.08688
1.08684
1.08679
1.08674
1.08669
1.08663
1.08657
1.0865
1.08643
1.08636
1.08628
1.0862
1.08612
1.08604
1.08596
1.08587
1.08579
1.0857
1.08562
1.08554
1.08546
1.08538
1.08531
1.08524
1.08518
1.08512
1.08506
1.08502
1.08498
1.08495
1.08492
1.08491
1.0849
1.08491
1.08492
1.08494
1.08498
1.08502
1.08508
1.08514
1.08522
1.08531
1.08541
1.08552
1.08564
1.08578
1.08592
1.08608
1.08625
1.08643
1.08662
1.08682
1.08704
1.08726
1.08749
1.08773
1.08798
1.08825
1.08851
1.08879
1.08908
1.08937
1.08966
1.08997
1.09028
1.09059
1.09091
1.09122
1.09155
1.09187
1.09219
1.09251
1.09283
1.09315
1.09347
1.09378
1.09409
1.09439
1.09469
1.09498
1.09526
1.09554
1.09581
1.09607
1.09633
1.09657
1.09681
1.09704
1.09725
1.09746
1.09766
1.09785
1.09802
1.09819
1.09834
1.09848
1.09861
1.09873
1.09883
1.09892
1.099
1.09906
1.09911
1.09914
1.09916
1.09916
1.09915
1.09912
1.09908
1.09902
1.09895
1.09886
1.09876
1.09865
1.09852
1.09838
1.09822
1.09806
1.09788
1.0977
1.0975
1.0973
1.09709
1.09688
1.09666
1.09644
1.09622
1.09599
1.09577
1.09555
1.09533
1.09511
1.09489
1.09468
1.09448
1.09428
1.09409
1.09391
1.09374
1.09358
1.09343
1.09329
1.09316
1.09305
1.09295
1.09286
1.09279
1.09274
1.0927
1.09269
1.09269
1.09271
1.09276
1.09283
1.09292
1.09304
1.09319
1.09336
1.09357
1.09381
1.09409
1.0944
1.09475
1.09514
1.09557
1.09605
1.09658
1.09715
1.09778
1.09846
1.0992
1.10001
1.10088
1.10182
1.10284
1.10394
1.10513
1.10642
1.10782
1.10935
1.11102
1.11286
1.1149
1.11718
1.11973
1.1226
1.12582
1.12936
1.13299
1.13623
1.13842
1.13782
1.07927
1.07883
1.07902
1.07974
1.0807
1.08171
1.08266
1.08349
1.0842
1.08479
1.08528
1.08569
1.08603
1.0863
1.08653
1.08672
1.08687
1.08699
1.08709
1.08717
1.08723
1.08728
1.08732
1.08735
1.08738
1.0874
1.08741
1.08743
1.08744
1.08745
1.08746
1.08748
1.08749
1.08751
1.08753
1.08756
1.08758
1.08762
1.08765
1.0877
1.08774
1.08779
1.08785
1.08791
1.08798
1.08805
1.08813
1.08822
1.08831
1.08841
1.08851
1.08862
1.08873
1.08885
1.08898
1.08911
1.08925
1.08939
1.08954
1.0897
1.08986
1.09003
1.09021
1.09039
1.09058
1.09078
1.09098
1.09119
1.09141
1.09163
1.09186
1.0921
1.09235
1.0926
1.09285
1.09312
1.09339
1.09367
1.09395
1.09424
1.09453
1.09483
1.09513
1.09544
1.09575
1.09606
1.09638
1.09669
1.09701
1.09732
1.09763
1.09794
1.09825
1.09854
1.09884
1.09912
1.0994
1.09967
1.09992
1.10017
1.1004
1.10061
1.10082
1.101
1.10117
1.10132
1.10146
1.10157
1.10166
1.10174
1.10179
1.10182
1.10183
1.10181
1.10178
1.10172
1.10164
1.10154
1.10142
1.10128
1.10112
1.10095
1.10075
1.10054
1.10032
1.10008
1.09983
1.09957
1.09929
1.09901
1.09872
1.09842
1.09812
1.09781
1.0975
1.09718
1.09687
1.09655
1.09623
1.09591
1.09559
1.09527
1.09495
1.09464
1.09432
1.09402
1.09371
1.09341
1.09312
1.09283
1.09254
1.09227
1.092
1.09173
1.09147
1.09122
1.09098
1.09074
1.09051
1.09029
1.09008
1.08988
1.08968
1.08949
1.08931
1.08914
1.08898
1.08882
1.08867
1.08854
1.0884
1.08828
1.08817
1.08806
1.08796
1.08787
1.08778
1.0877
1.08763
1.08756
1.0875
1.08745
1.0874
1.08736
1.08732
1.08729
1.08726
1.08723
1.08721
1.08719
1.08717
1.08716
1.08715
1.08713
1.08712
1.08712
1.08711
1.0871
1.08708
1.08707
1.08706
1.08704
1.08703
1.08701
1.08698
1.08696
1.08693
1.08689
1.08685
1.08681
1.08677
1.08671
1.08666
1.0866
1.08654
1.08647
1.0864
1.08633
1.08625
1.08618
1.08609
1.08601
1.08593
1.08584
1.08576
1.08567
1.08559
1.08551
1.08543
1.08535
1.08528
1.08521
1.08515
1.08509
1.08504
1.08499
1.08495
1.08492
1.0849
1.08488
1.08487
1.08488
1.08489
1.08491
1.08495
1.08499
1.08505
1.08511
1.08519
1.08528
1.08538
1.08549
1.08562
1.08575
1.0859
1.08605
1.08622
1.0864
1.08659
1.0868
1.08701
1.08723
1.08746
1.08771
1.08796
1.08822
1.08849
1.08877
1.08906
1.08935
1.08965
1.08995
1.09026
1.09058
1.09089
1.09121
1.09154
1.09186
1.09218
1.09251
1.09283
1.09315
1.09346
1.09377
1.09408
1.09438
1.09468
1.09497
1.09525
1.09553
1.0958
1.09606
1.09631
1.09656
1.09679
1.09702
1.09723
1.09744
1.09763
1.09782
1.09799
1.09816
1.09831
1.09845
1.09858
1.09869
1.0988
1.09888
1.09896
1.09902
1.09907
1.0991
1.09912
1.09912
1.09911
1.09908
1.09904
1.09898
1.09891
1.09882
1.09872
1.0986
1.09847
1.09833
1.09817
1.09801
1.09783
1.09765
1.09745
1.09725
1.09704
1.09683
1.09661
1.09639
1.09616
1.09594
1.09572
1.09549
1.09527
1.09505
1.09484
1.09463
1.09443
1.09423
1.09404
1.09386
1.09369
1.09353
1.09337
1.09323
1.09311
1.09299
1.09289
1.0928
1.09273
1.09268
1.09264
1.09262
1.09262
1.09265
1.09269
1.09276
1.09285
1.09297
1.09311
1.09329
1.09349
1.09373
1.094
1.09431
1.09466
1.09505
1.09548
1.09596
1.09648
1.09706
1.09768
1.09836
1.0991
1.0999
1.10076
1.10169
1.10269
1.10377
1.10494
1.1062
1.10756
1.10904
1.11064
1.11238
1.11429
1.11638
1.11867
1.12115
1.12379
1.12648
1.12902
1.13097
1.13194
1.1317
1.08106
1.08062
1.08063
1.081
1.08158
1.08227
1.08297
1.08363
1.08422
1.08473
1.08517
1.08555
1.08587
1.08614
1.08636
1.08655
1.0867
1.08683
1.08693
1.08702
1.08709
1.08714
1.08719
1.08723
1.08726
1.08728
1.0873
1.08732
1.08734
1.08736
1.08737
1.08739
1.08741
1.08743
1.08746
1.08748
1.08751
1.08755
1.08759
1.08763
1.08768
1.08773
1.08779
1.08785
1.08792
1.088
1.08808
1.08816
1.08825
1.08835
1.08845
1.08856
1.08867
1.08879
1.08892
1.08905
1.08919
1.08933
1.08948
1.08964
1.0898
1.08997
1.09015
1.09033
1.09052
1.09072
1.09092
1.09113
1.09135
1.09157
1.0918
1.09204
1.09229
1.09254
1.0928
1.09307
1.09334
1.09362
1.0939
1.09419
1.09449
1.09479
1.09509
1.0954
1.09572
1.09603
1.09635
1.09666
1.09698
1.0973
1.09761
1.09792
1.09823
1.09853
1.09882
1.09911
1.09939
1.09966
1.09991
1.10016
1.10039
1.1006
1.10081
1.10099
1.10116
1.10131
1.10144
1.10155
1.10165
1.10172
1.10177
1.1018
1.1018
1.10179
1.10175
1.10169
1.10161
1.1015
1.10138
1.10124
1.10107
1.10089
1.1007
1.10049
1.10026
1.10002
1.09976
1.0995
1.09923
1.09894
1.09865
1.09835
1.09805
1.09774
1.09743
1.09712
1.0968
1.09648
1.09616
1.09584
1.09552
1.09521
1.09489
1.09458
1.09427
1.09396
1.09366
1.09336
1.09307
1.09278
1.0925
1.09223
1.09196
1.09169
1.09144
1.09119
1.09095
1.09071
1.09048
1.09027
1.09005
1.08985
1.08966
1.08947
1.08929
1.08912
1.08896
1.0888
1.08866
1.08852
1.08839
1.08827
1.08815
1.08804
1.08794
1.08785
1.08777
1.08769
1.08762
1.08755
1.08749
1.08744
1.08739
1.08735
1.08731
1.08727
1.08724
1.08722
1.0872
1.08718
1.08716
1.08714
1.08713
1.08712
1.08711
1.0871
1.08709
1.08708
1.08707
1.08705
1.08704
1.08702
1.087
1.08698
1.08696
1.08693
1.0869
1.08686
1.08683
1.08678
1.08674
1.08668
1.08663
1.08657
1.08651
1.08644
1.08637
1.0863
1.08622
1.08614
1.08606
1.08598
1.08589
1.08581
1.08572
1.08564
1.08556
1.08547
1.08539
1.08532
1.08525
1.08518
1.08511
1.08505
1.085
1.08496
1.08492
1.08488
1.08486
1.08485
1.08484
1.08484
1.08486
1.08488
1.08491
1.08496
1.08501
1.08508
1.08515
1.08524
1.08534
1.08545
1.08558
1.08571
1.08586
1.08601
1.08618
1.08636
1.08655
1.08675
1.08697
1.08719
1.08742
1.08767
1.08792
1.08818
1.08846
1.08874
1.08902
1.08932
1.08962
1.08992
1.09024
1.09055
1.09087
1.09119
1.09152
1.09184
1.09217
1.09249
1.09281
1.09313
1.09345
1.09376
1.09407
1.09437
1.09467
1.09496
1.09524
1.09552
1.09579
1.09605
1.0963
1.09654
1.09677
1.097
1.09721
1.09741
1.09761
1.09779
1.09796
1.09813
1.09828
1.09842
1.09854
1.09866
1.09876
1.09885
1.09892
1.09898
1.09903
1.09906
1.09908
1.09908
1.09907
1.09904
1.099
1.09894
1.09887
1.09878
1.09867
1.09856
1.09842
1.09828
1.09812
1.09796
1.09778
1.09759
1.0974
1.09719
1.09698
1.09677
1.09655
1.09633
1.09611
1.09588
1.09566
1.09543
1.09521
1.09499
1.09478
1.09457
1.09437
1.09417
1.09398
1.0938
1.09363
1.09346
1.09331
1.09317
1.09304
1.09292
1.09282
1.09273
1.09266
1.0926
1.09256
1.09254
1.09254
1.09256
1.0926
1.09266
1.09275
1.09286
1.09301
1.09318
1.09338
1.09362
1.09389
1.09419
1.09454
1.09492
1.09535
1.09582
1.09634
1.09691
1.09753
1.0982
1.09893
1.09972
1.10056
1.10148
1.10246
1.10352
1.10465
1.10587
1.10718
1.10859
1.1101
1.11173
1.11348
1.11536
1.11736
1.11946
1.12158
1.1236
1.12535
1.12659
1.12706
1.12684
1.08232
1.08193
1.08185
1.08203
1.08238
1.08284
1.08335
1.08385
1.08433
1.08476
1.08514
1.08548
1.08577
1.08602
1.08623
1.08641
1.08656
1.08669
1.0868
1.08689
1.08696
1.08702
1.08707
1.08711
1.08715
1.08718
1.0872
1.08722
1.08725
1.08727
1.08729
1.08731
1.08733
1.08735
1.08738
1.08741
1.08744
1.08748
1.08752
1.08757
1.08762
1.08767
1.08773
1.08779
1.08786
1.08794
1.08802
1.0881
1.08819
1.08829
1.08839
1.0885
1.08861
1.08873
1.08886
1.08899
1.08912
1.08927
1.08942
1.08957
1.08974
1.08991
1.09008
1.09027
1.09045
1.09065
1.09086
1.09107
1.09128
1.09151
1.09174
1.09198
1.09223
1.09248
1.09274
1.09301
1.09328
1.09356
1.09385
1.09414
1.09444
1.09474
1.09505
1.09536
1.09568
1.09599
1.09631
1.09663
1.09695
1.09727
1.09758
1.0979
1.09821
1.09851
1.0988
1.09909
1.09937
1.09964
1.0999
1.10014
1.10037
1.10059
1.10079
1.10098
1.10115
1.1013
1.10143
1.10154
1.10163
1.1017
1.10175
1.10177
1.10177
1.10176
1.10171
1.10165
1.10157
1.10146
1.10133
1.10119
1.10102
1.10084
1.10064
1.10042
1.10019
1.09995
1.09969
1.09943
1.09915
1.09887
1.09857
1.09828
1.09797
1.09767
1.09735
1.09704
1.09672
1.09641
1.09609
1.09577
1.09546
1.09514
1.09483
1.09452
1.09421
1.09391
1.09361
1.09331
1.09302
1.09274
1.09246
1.09218
1.09191
1.09165
1.0914
1.09115
1.09091
1.09068
1.09045
1.09023
1.09002
1.08982
1.08963
1.08944
1.08927
1.0891
1.08893
1.08878
1.08864
1.0885
1.08837
1.08825
1.08813
1.08803
1.08793
1.08784
1.08775
1.08767
1.0876
1.08754
1.08748
1.08742
1.08737
1.08733
1.08729
1.08726
1.08723
1.0872
1.08718
1.08716
1.08714
1.08713
1.08711
1.0871
1.08709
1.08708
1.08707
1.08706
1.08704
1.08703
1.08702
1.087
1.08698
1.08696
1.08693
1.0869
1.08687
1.08683
1.08679
1.08675
1.0867
1.08665
1.0866
1.08654
1.08647
1.0864
1.08633
1.08626
1.08618
1.0861
1.08602
1.08594
1.08585
1.08577
1.08568
1.0856
1.08552
1.08544
1.08536
1.08528
1.08521
1.08514
1.08507
1.08502
1.08496
1.08492
1.08488
1.08485
1.08482
1.08481
1.0848
1.0848
1.08481
1.08484
1.08487
1.08491
1.08497
1.08503
1.08511
1.0852
1.08529
1.08541
1.08553
1.08566
1.08581
1.08596
1.08613
1.08631
1.0865
1.0867
1.08692
1.08714
1.08737
1.08762
1.08787
1.08814
1.08841
1.08869
1.08898
1.08928
1.08958
1.08989
1.0902
1.09052
1.09084
1.09117
1.09149
1.09182
1.09215
1.09247
1.0928
1.09312
1.09344
1.09375
1.09406
1.09436
1.09466
1.09495
1.09523
1.0955
1.09577
1.09603
1.09628
1.09652
1.09675
1.09697
1.09718
1.09738
1.09758
1.09776
1.09793
1.09809
1.09824
1.09838
1.0985
1.09862
1.09872
1.09881
1.09888
1.09894
1.09899
1.09902
1.09904
1.09904
1.09903
1.099
1.09895
1.09889
1.09882
1.09873
1.09862
1.0985
1.09837
1.09823
1.09807
1.0979
1.09772
1.09753
1.09734
1.09713
1.09692
1.09671
1.09649
1.09626
1.09604
1.09582
1.09559
1.09537
1.09515
1.09493
1.09471
1.0945
1.0943
1.0941
1.09391
1.09373
1.09355
1.09339
1.09324
1.09309
1.09296
1.09284
1.09274
1.09265
1.09257
1.09251
1.09247
1.09244
1.09244
1.09245
1.09249
1.09255
1.09263
1.09275
1.09288
1.09305
1.09325
1.09348
1.09374
1.09404
1.09438
1.09476
1.09519
1.09565
1.09616
1.09672
1.09733
1.09799
1.09871
1.09948
1.10031
1.1012
1.10216
1.10318
1.10428
1.10545
1.10669
1.10802
1.10944
1.11094
1.11253
1.1142
1.11592
1.11766
1.11935
1.12087
1.1221
1.1229
1.12317
1.12287
1.08324
1.08291
1.08279
1.08286
1.08307
1.08338
1.08374
1.08412
1.0845
1.08485
1.08518
1.08547
1.08573
1.08595
1.08615
1.08632
1.08646
1.08659
1.08669
1.08678
1.08685
1.08691
1.08697
1.08701
1.08705
1.08708
1.08711
1.08714
1.08716
1.08718
1.08721
1.08723
1.08725
1.08728
1.08731
1.08734
1.08738
1.08742
1.08746
1.0875
1.08755
1.08761
1.08767
1.08773
1.0878
1.08788
1.08796
1.08804
1.08813
1.08823
1.08833
1.08844
1.08855
1.08867
1.08879
1.08892
1.08906
1.0892
1.08935
1.0895
1.08967
1.08983
1.09001
1.09019
1.09038
1.09058
1.09078
1.09099
1.09121
1.09144
1.09167
1.09191
1.09216
1.09241
1.09267
1.09294
1.09321
1.0935
1.09378
1.09408
1.09438
1.09468
1.09499
1.09531
1.09562
1.09594
1.09626
1.09659
1.09691
1.09723
1.09755
1.09786
1.09817
1.09848
1.09878
1.09907
1.09935
1.09962
1.09988
1.10012
1.10036
1.10057
1.10077
1.10096
1.10113
1.10128
1.10141
1.10152
1.10161
1.10167
1.10172
1.10174
1.10174
1.10172
1.10168
1.10161
1.10152
1.10141
1.10128
1.10113
1.10096
1.10078
1.10057
1.10035
1.10012
1.09987
1.09962
1.09935
1.09907
1.09879
1.09849
1.09819
1.09789
1.09758
1.09727
1.09696
1.09664
1.09633
1.09601
1.0957
1.09538
1.09507
1.09476
1.09445
1.09415
1.09384
1.09355
1.09325
1.09296
1.09268
1.0924
1.09213
1.09187
1.09161
1.09135
1.09111
1.09087
1.09064
1.09042
1.0902
1.08999
1.08979
1.0896
1.08941
1.08924
1.08907
1.08891
1.08875
1.08861
1.08847
1.08835
1.08822
1.08811
1.08801
1.08791
1.08782
1.08773
1.08765
1.08758
1.08752
1.08746
1.0874
1.08736
1.08731
1.08727
1.08724
1.08721
1.08718
1.08716
1.08714
1.08712
1.08711
1.08709
1.08708
1.08707
1.08706
1.08704
1.08703
1.08702
1.087
1.08699
1.08697
1.08695
1.08693
1.0869
1.08687
1.08684
1.0868
1.08676
1.08672
1.08667
1.08661
1.08656
1.0865
1.08643
1.08636
1.08629
1.08622
1.08614
1.08606
1.08598
1.0859
1.08581
1.08573
1.08564
1.08556
1.08547
1.08539
1.08531
1.08524
1.08516
1.08509
1.08503
1.08497
1.08492
1.08487
1.08483
1.0848
1.08478
1.08476
1.08475
1.08475
1.08477
1.08479
1.08482
1.08486
1.08491
1.08498
1.08505
1.08514
1.08524
1.08535
1.08547
1.0856
1.08574
1.0859
1.08607
1.08625
1.08644
1.08664
1.08685
1.08708
1.08731
1.08755
1.08781
1.08807
1.08835
1.08863
1.08892
1.08922
1.08953
1.08984
1.09015
1.09047
1.0908
1.09113
1.09146
1.09179
1.09211
1.09244
1.09277
1.09309
1.09341
1.09373
1.09404
1.09434
1.09464
1.09493
1.09521
1.09548
1.09575
1.096
1.09625
1.09649
1.09672
1.09694
1.09715
1.09735
1.09754
1.09772
1.09789
1.09805
1.0982
1.09834
1.09846
1.09858
1.09868
1.09876
1.09884
1.0989
1.09894
1.09898
1.09899
1.09899
1.09898
1.09895
1.09891
1.09884
1.09877
1.09868
1.09857
1.09845
1.09832
1.09817
1.09801
1.09784
1.09766
1.09747
1.09727
1.09707
1.09685
1.09664
1.09642
1.09619
1.09597
1.09574
1.09552
1.09529
1.09507
1.09485
1.09464
1.09443
1.09422
1.09402
1.09383
1.09365
1.09347
1.09331
1.09315
1.09301
1.09287
1.09275
1.09264
1.09255
1.09247
1.09241
1.09236
1.09233
1.09232
1.09233
1.09236
1.09242
1.0925
1.0926
1.09273
1.0929
1.09309
1.09331
1.09357
1.09386
1.0942
1.09457
1.09498
1.09544
1.09594
1.09649
1.09709
1.09773
1.09843
1.09919
1.1
1.10086
1.10179
1.10278
1.10382
1.10494
1.10612
1.10736
1.10867
1.11005
1.11147
1.11294
1.11442
1.11586
1.1172
1.11837
1.11925
1.11978
1.11992
1.11959
1.08394
1.08366
1.08353
1.08353
1.08365
1.08386
1.08411
1.0844
1.08469
1.08498
1.08525
1.08549
1.08572
1.08592
1.0861
1.08625
1.08639
1.0865
1.0866
1.08668
1.08676
1.08682
1.08687
1.08692
1.08696
1.08699
1.08702
1.08705
1.08708
1.0871
1.08713
1.08715
1.08718
1.08721
1.08724
1.08728
1.08731
1.08735
1.08739
1.08744
1.08749
1.08755
1.08761
1.08767
1.08774
1.08782
1.0879
1.08798
1.08807
1.08817
1.08827
1.08837
1.08848
1.0886
1.08873
1.08886
1.08899
1.08913
1.08928
1.08943
1.08959
1.08976
1.08994
1.09012
1.09031
1.0905
1.09071
1.09092
1.09113
1.09136
1.09159
1.09183
1.09208
1.09234
1.0926
1.09287
1.09315
1.09343
1.09372
1.09401
1.09431
1.09462
1.09493
1.09525
1.09557
1.09589
1.09621
1.09654
1.09686
1.09719
1.09751
1.09783
1.09814
1.09845
1.09875
1.09904
1.09932
1.09959
1.09985
1.1001
1.10033
1.10055
1.10075
1.10094
1.1011
1.10125
1.10138
1.10149
1.10158
1.10164
1.10169
1.10171
1.10171
1.10168
1.10164
1.10157
1.10148
1.10136
1.10123
1.10107
1.1009
1.10071
1.1005
1.10028
1.10004
1.09979
1.09953
1.09926
1.09899
1.0987
1.09841
1.09811
1.0978
1.0975
1.09719
1.09687
1.09656
1.09625
1.09593
1.09562
1.09531
1.09499
1.09469
1.09438
1.09408
1.09378
1.09348
1.09319
1.09291
1.09263
1.09235
1.09208
1.09182
1.09156
1.09131
1.09106
1.09083
1.0906
1.09038
1.09016
1.08996
1.08976
1.08956
1.08938
1.08921
1.08904
1.08888
1.08873
1.08858
1.08845
1.08832
1.0882
1.08809
1.08798