# vtk DataFile Version 2.0
LBE mesh
ASCII
DATASET STRUCTURED_POINTS
DIMENSIONS 400 100 1
ASPECT_RATIO 1 1 1
ORIGIN 0 0 0
POINT_DATA 40000
SCALARS rho double 1
LOOKUP_TABLE default
1.19487
1.2932
1.32101
1.32562
1.32768
1.32973
1.33128
1.33227
1.33294
1.33343
1.33381
1.33411
1.33435
1.33454
1.3347
1.33482
1.33493
1.33501
1.33508
1.33513
1.33517
1.3352
1.33522
1.33523
1.33523
1.33522
1.3352
1.33518
1.33515
1.33512
1.33508
1.33504
1.33499
1.33494
1.33489
1.33483
1.33477
1.33471
1.33465
1.33459
1.33452
1.33446
1.33439
1.33433
1.33427
1.3342
1.33415
1.33409
1.33403
1.33398
1.33393
1.33389
1.33385
1.33382
1.33379
1.33376
1.33375
1.33374
1.33373
1.33374
1.33375
1.33377
1.3338
1.33383
1.33388
1.33393
1.33399
1.33406
1.33414
1.33423
1.33433
1.33443
1.33455
1.33468
1.33481
1.33495
1.33511
1.33527
1.33543
1.33561
1.3358
1.33599
1.33619
1.3364
1.33661
1.33683
1.33706
1.3373
1.33754
1.33778
1.33804
1.33829
1.33855
1.33881
1.33908
1.33935
1.33962
1.33989
1.34016
1.34043
1.3407
1.34096
1.34123
1.34149
1.34175
1.34201
1.34226
1.34251
1.34275
1.34298
1.3432
1.34342
1.34363
1.34383
1.34402
1.3442
1.34437
1.34453
1.34468
1.34482
1.34495
1.34507
1.34517
1.34527
1.34536
1.34543
1.3455
1.34555
1.3456
1.34564
1.34567
1.34569
1.34571
1.34572
1.34572
1.34572
1.34571
1.3457
1.34568
1.34566
1.34564
1.34561
1.34558
1.34555
1.34551
1.34547
1.34544
1.34539
1.34535
1.34531
1.34527
1.34522
1.34518
1.34513
1.34509
1.34504
1.34499
1.34495
1.3449
1.34486
1.34481
1.34477
1.34472
1.34468
1.34463
1.34459
1.34455
1.3445
1.34446
1.34442
1.34438
1.34433
1.34429
1.34425
1.34421
1.34417
1.34413
1.34409
1.34405
1.34402
1.34398
1.34394
1.3439
1.34387
1.34383
1.34379
1.34376
1.34372
1.34369
1.34366
1.34362
1.34359
1.34356
1.34353
1.3435
1.34347
1.34344
1.34342
1.34339
1.34337
1.34334
1.34332
1.3433
1.34328
1.34327
1.34325
1.34324
1.34323
1.34322
1.34322
1.34322
1.34322
1.34322
1.34323
1.34324
1.34325
1.34327
1.34329
1.34332
1.34335
1.34338
1.34342
1.34347
1.34351
1.34357
1.34363
1.3437
1.34377
1.34385
1.34393
1.34403
1.34413
1.34423
1.34434
1.34447
1.34459
1.34473
1.34487
1.34503
1.34519
1.34536
1.34553
1.34572
1.34591
1.34612
1.34633
1.34655
1.34678
1.34702
1.34726
1.34752
1.34779
1.34806
1.34834
1.34863
1.34893
1.34923
1.34955
1.34987
1.35019
1.35053
1.35087
1.35121
1.35156
1.35192
1.35227
1.35264
1.353
1.35337
1.35373
1.3541
1.35447
1.35484
1.3552
1.35556
1.35592
1.35628
1.35662
1.35697
1.3573
1.35763
1.35795
1.35826
1.35857
1.35886
1.35914
1.35941
1.35967
1.35993
1.36017
1.3604
1.36062
1.36083
1.36102
1.36121
1.3614
1.36157
1.36173
1.36188
1.36203
1.36217
1.3623
1.36243
1.36255
1.36267
1.36278
1.36289
1.36299
1.36309
1.36318
1.36327
1.36336
1.36345
1.36353
1.36361
1.36369
1.36377
1.36384
1.36391
1.36399
1.36406
1.36413
1.3642
1.36426
1.36433
1.3644
1.36446
1.36453
1.36459
1.36466
1.36473
1.3648
1.36487
1.36494
1.36501
1.36509
1.36517
1.36525
1.36534
1.36543
1.36553
1.36564
1.36575
1.36587
1.366
1.36614
1.36629
1.36645
1.36662
1.36681
1.36701
1.36722
1.36745
1.36769
1.36796
1.36824
1.36854
1.36885
1.36919
1.36956
1.36994
1.37035
1.37078
1.37124
1.37173
1.37224
1.37278
1.37336
1.37396
1.3746
1.37527
1.37598
1.37673
1.37751
1.37834
1.37921
1.38013
1.38111
1.38213
1.38322
1.38437
1.38559
1.38689
1.38828
1.38977
1.39138
1.39312
1.39501
1.3971
1.39941
1.402
1.40494
1.40836
1.41239
1.4173
1.42364
1.43248
1.44491
1.4632
1.50048
1.28561
1.29332
1.30658
1.3186
1.32471
1.32766
1.32945
1.33075
1.33172
1.33244
1.33298
1.3334
1.33374
1.33401
1.33423
1.33441
1.33456
1.33468
1.33478
1.33485
1.33492
1.33497
1.335
1.33502
1.33504
1.33504
1.33504
1.33503
1.33501
1.33498
1.33495
1.33492
1.33488
1.33483
1.33478
1.33473
1.33468
1.33462
1.33456
1.3345
1.33444
1.33438
1.33432
1.33426
1.3342
1.33414
1.33409
1.33403
1.33398
1.33393
1.33389
1.33385
1.33381
1.33378
1.33375
1.33373
1.33372
1.33371
1.33371
1.33371
1.33373
1.33375
1.33378
1.33382
1.33386
1.33392
1.33398
1.33406
1.33414
1.33423
1.33433
1.33444
1.33455
1.33468
1.33482
1.33496
1.33511
1.33528
1.33545
1.33562
1.33581
1.336
1.3362
1.33641
1.33663
1.33685
1.33708
1.33732
1.33756
1.3378
1.33805
1.33831
1.33857
1.33883
1.3391
1.33936
1.33963
1.3399
1.34017
1.34044
1.34071
1.34098
1.34124
1.3415
1.34176
1.34202
1.34227
1.34251
1.34275
1.34298
1.3432
1.34342
1.34363
1.34382
1.34401
1.34419
1.34436
1.34452
1.34467
1.34481
1.34493
1.34505
1.34515
1.34525
1.34533
1.34541
1.34547
1.34553
1.34558
1.34561
1.34564
1.34567
1.34568
1.34569
1.3457
1.34569
1.34569
1.34567
1.34566
1.34564
1.34561
1.34559
1.34556
1.34552
1.34549
1.34545
1.34541
1.34537
1.34533
1.34529
1.34525
1.3452
1.34516
1.34512
1.34507
1.34503
1.34498
1.34493
1.34489
1.34484
1.3448
1.34476
1.34471
1.34467
1.34462
1.34458
1.34454
1.34449
1.34445
1.34441
1.34437
1.34433
1.34429
1.34424
1.3442
1.34416
1.34413
1.34409
1.34405
1.34401
1.34397
1.34393
1.3439
1.34386
1.34383
1.34379
1.34376
1.34372
1.34369
1.34365
1.34362
1.34359
1.34356
1.34353
1.3435
1.34347
1.34344
1.34341
1.34339
1.34337
1.34334
1.34332
1.3433
1.34328
1.34327
1.34325
1.34324
1.34323
1.34323
1.34322
1.34322
1.34322
1.34323
1.34323
1.34324
1.34326
1.34328
1.3433
1.34333
1.34336
1.34339
1.34343
1.34348
1.34353
1.34358
1.34364
1.34371
1.34379
1.34387
1.34395
1.34404
1.34414
1.34425
1.34437
1.34449
1.34462
1.34475
1.3449
1.34505
1.34521
1.34538
1.34556
1.34575
1.34594
1.34615
1.34636
1.34658
1.34681
1.34705
1.3473
1.34756
1.34782
1.34809
1.34838
1.34867
1.34896
1.34927
1.34958
1.3499
1.35023
1.35056
1.3509
1.35125
1.3516
1.35195
1.35231
1.35267
1.35304
1.3534
1.35377
1.35414
1.3545
1.35487
1.35523
1.35559
1.35595
1.3563
1.35665
1.35699
1.35732
1.35765
1.35796
1.35827
1.35857
1.35886
1.35914
1.35941
1.35967
1.35992
1.36016
1.36039
1.36061
1.36082
1.36102
1.3612
1.36138
1.36155
1.36172
1.36187
1.36202
1.36216
1.36229
1.36242
1.36254
1.36265
1.36276
1.36287
1.36297
1.36307
1.36317
1.36326
1.36335
1.36343
1.36352
1.3636
1.36368
1.36375
1.36383
1.3639
1.36398
1.36405
1.36412
1.36419
1.36425
1.36432
1.36439
1.36445
1.36452
1.36459
1.36465
1.36472
1.36479
1.36486
1.36493
1.36501
1.36509
1.36517
1.36525
1.36534
1.36544
1.36554
1.36565
1.36576
1.36588
1.36601
1.36616
1.36631
1.36647
1.36664
1.36683
1.36703
1.36725
1.36748
1.36773
1.36799
1.36828
1.36858
1.3689
1.36924
1.36961
1.37
1.37041
1.37085
1.37131
1.3718
1.37232
1.37286
1.37344
1.37405
1.37469
1.37537
1.37609
1.37684
1.37763
1.37847
1.37935
1.38028
1.38126
1.38229
1.38339
1.38455
1.38579
1.38711
1.38852
1.39004
1.39167
1.39345
1.39539
1.39754
1.39992
1.40262
1.4057
1.40929
1.41358
1.41889
1.42558
1.4343
1.44708
1.4694
1.50462
1.30736
1.303
1.31133
1.31841
1.32269
1.32578
1.32803
1.3296
1.33073
1.33158
1.33224
1.33276
1.33318
1.33352
1.33379
1.33402
1.3342
1.33436
1.33448
1.33459
1.33467
1.33474
1.33479
1.33483
1.33486
1.33487
1.33488
1.33488
1.33487
1.33485
1.33483
1.3348
1.33476
1.33472
1.33468
1.33463
1.33459
1.33453
1.33448
1.33442
1.33437
1.33431
1.33425
1.33419
1.33414
1.33408
1.33403
1.33398
1.33393
1.33388
1.33384
1.3338
1.33377
1.33374
1.33371
1.33369
1.33368
1.33368
1.33368
1.33369
1.3337
1.33373
1.33376
1.3338
1.33385
1.3339
1.33397
1.33404
1.33413
1.33422
1.33432
1.33443
1.33455
1.33468
1.33482
1.33496
1.33512
1.33528
1.33545
1.33563
1.33582
1.33601
1.33621
1.33642
1.33664
1.33686
1.33709
1.33733
1.33757
1.33782
1.33807
1.33833
1.33858
1.33885
1.33911
1.33938
1.33965
1.33992
1.34019
1.34046
1.34073
1.34099
1.34126
1.34152
1.34178
1.34203
1.34228
1.34252
1.34276
1.34299
1.34321
1.34343
1.34363
1.34383
1.34402
1.34419
1.34436
1.34452
1.34467
1.3448
1.34493
1.34504
1.34514
1.34524
1.34532
1.34539
1.34546
1.34551
1.34556
1.3456
1.34563
1.34565
1.34566
1.34567
1.34568
1.34567
1.34567
1.34565
1.34564
1.34562
1.34559
1.34557
1.34554
1.3455
1.34547
1.34543
1.3454
1.34536
1.34532
1.34527
1.34523
1.34519
1.34515
1.3451
1.34506
1.34501
1.34497
1.34492
1.34488
1.34483
1.34479
1.34474
1.3447
1.34466
1.34461
1.34457
1.34453
1.34449
1.34444
1.3444
1.34436
1.34432
1.34428
1.34424
1.3442
1.34416
1.34412
1.34408
1.34404
1.34401
1.34397
1.34393
1.34389
1.34386
1.34382
1.34379
1.34375
1.34372
1.34368
1.34365
1.34362
1.34359
1.34356
1.34352
1.3435
1.34347
1.34344
1.34341
1.34339
1.34336
1.34334
1.34332
1.3433
1.34328
1.34327
1.34326
1.34324
1.34323
1.34323
1.34322
1.34322
1.34322
1.34323
1.34324
1.34325
1.34326
1.34328
1.3433
1.34333
1.34336
1.3434
1.34344
1.34349
1.34354
1.34359
1.34365
1.34372
1.3438
1.34388
1.34396
1.34406
1.34416
1.34427
1.34438
1.3445
1.34463
1.34477
1.34492
1.34507
1.34523
1.3454
1.34558
1.34577
1.34597
1.34617
1.34638
1.34661
1.34684
1.34708
1.34733
1.34758
1.34785
1.34812
1.34841
1.3487
1.349
1.3493
1.34962
1.34994
1.35027
1.3506
1.35094
1.35128
1.35163
1.35199
1.35235
1.35271
1.35307
1.35344
1.3538
1.35417
1.35454
1.3549
1.35526
1.35562
1.35598
1.35633
1.35667
1.35701
1.35735
1.35767
1.35799
1.35829
1.35859
1.35888
1.35916
1.35943
1.35969
1.35993
1.36017
1.3604
1.36061
1.36082
1.36102
1.3612
1.36138
1.36155
1.36171
1.36186
1.36201
1.36215
1.36228
1.36241
1.36253
1.36264
1.36275
1.36286
1.36296
1.36306
1.36316
1.36325
1.36334
1.36342
1.36351
1.36359
1.36367
1.36375
1.36382
1.3639
1.36397
1.36404
1.36411
1.36418
1.36425
1.36431
1.36438
1.36445
1.36451
1.36458
1.36465
1.36472
1.36479
1.36486
1.36493
1.365
1.36508
1.36516
1.36525
1.36534
1.36544
1.36554
1.36565
1.36576
1.36588
1.36602
1.36616
1.36631
1.36648
1.36665
1.36684
1.36704
1.36726
1.36749
1.36774
1.36801
1.3683
1.3686
1.36893
1.36927
1.36964
1.37003
1.37044
1.37088
1.37135
1.37184
1.37236
1.37291
1.37349
1.37411
1.37475
1.37544
1.37615
1.37691
1.37771
1.37855
1.37943
1.38037
1.38135
1.38239
1.3835
1.38467
1.38591
1.38724
1.38866
1.39018
1.39183
1.39362
1.39558
1.39774
1.40014
1.40285
1.40595
1.40954
1.41378
1.41891
1.42534
1.43367
1.44414
1.45551
1.46619
1.3151
1.31384
1.31629
1.31916
1.32257
1.32534
1.32734
1.32884
1.33002
1.33093
1.33166
1.33223
1.3327
1.33309
1.3334
1.33366
1.33388
1.33406
1.33422
1.33434
1.33444
1.33453
1.33459
1.33465
1.33468
1.33471
1.33473
1.33473
1.33473
1.33472
1.33471
1.33468
1.33465
1.33462
1.33458
1.33454
1.33449
1.33445
1.3344
1.33434
1.33429
1.33424
1.33418
1.33413
1.33407
1.33402
1.33397
1.33392
1.33387
1.33383
1.33379
1.33375
1.33372
1.33369
1.33367
1.33365
1.33364
1.33364
1.33364
1.33365
1.33367
1.33369
1.33373
1.33377
1.33382
1.33388
1.33395
1.33402
1.33411
1.3342
1.33431
1.33442
1.33454
1.33467
1.33481
1.33495
1.33511
1.33527
1.33545
1.33563
1.33582
1.33601
1.33622
1.33643
1.33664
1.33687
1.3371
1.33734
1.33758
1.33783
1.33808
1.33834
1.3386
1.33886
1.33913
1.3394
1.33967
1.33994
1.34021
1.34048
1.34074
1.34101
1.34128
1.34154
1.34179
1.34205
1.3423
1.34254
1.34278
1.343
1.34323
1.34344
1.34365
1.34384
1.34403
1.3442
1.34437
1.34453
1.34467
1.34481
1.34493
1.34504
1.34515
1.34524
1.34532
1.34539
1.34545
1.34551
1.34555
1.34559
1.34562
1.34564
1.34565
1.34566
1.34566
1.34566
1.34565
1.34564
1.34562
1.3456
1.34558
1.34555
1.34552
1.34549
1.34546
1.34542
1.34538
1.34534
1.3453
1.34526
1.34522
1.34518
1.34513
1.34509
1.34505
1.345
1.34496
1.34491
1.34487
1.34482
1.34478
1.34474
1.34469
1.34465
1.34461
1.34456
1.34452
1.34448
1.34444
1.3444
1.34436
1.34431
1.34427
1.34423
1.3442
1.34416
1.34412
1.34408
1.34404
1.344
1.34397
1.34393
1.34389
1.34386
1.34382
1.34378
1.34375
1.34372
1.34368
1.34365
1.34362
1.34358
1.34355
1.34352
1.34349
1.34347
1.34344
1.34341
1.34339
1.34336
1.34334
1.34332
1.3433
1.34328
1.34327
1.34326
1.34324
1.34324
1.34323
1.34323
1.34322
1.34323
1.34323
1.34324
1.34325
1.34327
1.34328
1.34331
1.34333
1.34337
1.3434
1.34344
1.34349
1.34354
1.3436
1.34366
1.34373
1.3438
1.34389
1.34397
1.34407
1.34417
1.34428
1.34439
1.34451
1.34465
1.34478
1.34493
1.34508
1.34525
1.34542
1.3456
1.34579
1.34598
1.34619
1.3464
1.34663
1.34686
1.3471
1.34735
1.34761
1.34787
1.34815
1.34843
1.34872
1.34902
1.34933
1.34964
1.34997
1.35029
1.35063
1.35097
1.35132
1.35167
1.35202
1.35238
1.35274
1.35311
1.35347
1.35384
1.35421
1.35457
1.35494
1.3553
1.35566
1.35601
1.35636
1.35671
1.35705
1.35738
1.3577
1.35802
1.35832
1.35862
1.35891
1.35918
1.35945
1.35971
1.35995
1.36019
1.36041
1.36063
1.36083
1.36103
1.36121
1.36139
1.36155
1.36171
1.36187
1.36201
1.36215
1.36228
1.3624
1.36252
1.36264
1.36275
1.36285
1.36296
1.36305
1.36315
1.36324
1.36333
1.36342
1.3635
1.36358
1.36366
1.36374
1.36381
1.36389
1.36396
1.36403
1.3641
1.36417
1.36424
1.36431
1.36437
1.36444
1.36451
1.36457
1.36464
1.36471
1.36478
1.36485
1.36492
1.365
1.36508
1.36516
1.36524
1.36533
1.36543
1.36553
1.36564
1.36576
1.36588
1.36601
1.36615
1.36631
1.36647
1.36665
1.36684
1.36704
1.36726
1.36749
1.36774
1.36801
1.3683
1.3686
1.36893
1.36928
1.36965
1.37004
1.37046
1.3709
1.37136
1.37186
1.37238
1.37293
1.37352
1.37413
1.37478
1.37546
1.37618
1.37694
1.37774
1.37858
1.37947
1.3804
1.38139
1.38243
1.38354
1.38471
1.38595
1.38727
1.38869
1.39021
1.39185
1.39363
1.39557
1.39771
1.40007
1.40272
1.40572
1.40917
1.41316
1.41785
1.42335
1.42973
1.43681
1.44256
1.44269
1.31979
1.31936
1.31987
1.3215
1.32363
1.32552
1.32716
1.32852
1.32962
1.33051
1.33124
1.33183
1.33232
1.33273
1.33307
1.33336
1.3336
1.3338
1.33397
1.33411
1.33423
1.33433
1.33441
1.33447
1.33452
1.33456
1.33458
1.3346
1.3346
1.3346
1.33459
1.33457
1.33455
1.33452
1.33449
1.33445
1.33441
1.33436
1.33431
1.33426
1.33421
1.33416
1.33411
1.33406
1.334
1.33395
1.3339
1.33386
1.33381
1.33377
1.33373
1.3337
1.33367
1.33364
1.33362
1.3336
1.3336
1.33359
1.3336
1.33361
1.33363
1.33366
1.33369
1.33373
1.33379
1.33385
1.33392
1.33399
1.33408
1.33418
1.33428
1.3344
1.33452
1.33465
1.33479
1.33494
1.3351
1.33526
1.33544
1.33562
1.33581
1.33601
1.33621
1.33642
1.33664
1.33687
1.3371
1.33734
1.33759
1.33783
1.33809
1.33835
1.33861
1.33887
1.33914
1.33941
1.33968
1.33995
1.34022
1.34049
1.34076
1.34103
1.3413
1.34156
1.34182
1.34207
1.34232
1.34256
1.3428
1.34303
1.34325
1.34346
1.34367
1.34386
1.34405
1.34423
1.34439
1.34455
1.34469
1.34482
1.34494
1.34506
1.34516
1.34525
1.34533
1.3454
1.34546
1.34551
1.34555
1.34559
1.34561
1.34563
1.34565
1.34565
1.34566
1.34565
1.34564
1.34563
1.34561
1.34559
1.34557
1.34554
1.34551
1.34548
1.34544
1.34541
1.34537
1.34533
1.34529
1.34525
1.34521
1.34517
1.34512
1.34508
1.34504
1.34499
1.34495
1.3449
1.34486
1.34482
1.34477
1.34473
1.34469
1.34464
1.3446
1.34456
1.34452
1.34448
1.34443
1.34439
1.34435
1.34431
1.34427
1.34423
1.34419
1.34415
1.34411
1.34408
1.34404
1.344
1.34396
1.34393
1.34389
1.34385
1.34382
1.34378
1.34375
1.34371
1.34368
1.34365
1.34362
1.34358
1.34355
1.34352
1.34349
1.34347
1.34344
1.34341
1.34339
1.34336
1.34334
1.34332
1.3433
1.34328
1.34327
1.34326
1.34325
1.34324
1.34323
1.34323
1.34322
1.34323
1.34323
1.34324
1.34325
1.34327
1.34329
1.34331
1.34334
1.34337
1.3434
1.34345
1.34349
1.34354
1.3436
1.34366
1.34373
1.34381
1.34389
1.34398
1.34407
1.34417
1.34428
1.3444
1.34452
1.34465
1.34479
1.34494
1.34509
1.34526
1.34543
1.34561
1.3458
1.34599
1.3462
1.34642
1.34664
1.34687
1.34711
1.34736
1.34762
1.34789
1.34817
1.34845
1.34874
1.34904
1.34935
1.34967
1.34999
1.35032
1.35066
1.351
1.35134
1.3517
1.35205
1.35241
1.35278
1.35314
1.35351
1.35387
1.35424
1.35461
1.35498
1.35534
1.3557
1.35605
1.3564
1.35675
1.35709
1.35742
1.35774
1.35806
1.35836
1.35866
1.35894
1.35922
1.35948
1.35974
1.35998
1.36021
1.36044
1.36065
1.36085
1.36104
1.36123
1.3614
1.36157
1.36172
1.36188
1.36202
1.36215
1.36228
1.36241
1.36253
1.36264
1.36275
1.36285
1.36295
1.36305
1.36315
1.36324
1.36333
1.36341
1.3635
1.36358
1.36366
1.36373
1.36381
1.36388
1.36396
1.36403
1.3641
1.36417
1.36424
1.3643
1.36437
1.36444
1.3645
1.36457
1.36464
1.3647
1.36477
1.36484
1.36491
1.36499
1.36507
1.36515
1.36523
1.36532
1.36542
1.36552
1.36563
1.36574
1.36587
1.366
1.36614
1.36629
1.36646
1.36663
1.36682
1.36703
1.36725
1.36748
1.36773
1.368
1.36828
1.36859
1.36892
1.36926
1.36963
1.37003
1.37044
1.37089
1.37135
1.37185
1.37237
1.37293
1.37351
1.37413
1.37477
1.37546
1.37618
1.37694
1.37773
1.37857
1.37946
1.38039
1.38138
1.38241
1.38351
1.38467
1.38591
1.38722
1.38862
1.39012
1.39174
1.39348
1.39538
1.39745
1.39973
1.40226
1.40508
1.40826
1.41183
1.41586
1.42029
1.42485
1.42893
1.43172
1.43096
1.32326
1.32265
1.32274
1.32365
1.32484
1.32615
1.32742
1.32853
1.32948
1.33029
1.33098
1.33156
1.33205
1.33246
1.33281
1.33311
1.33336
1.33358
1.33376
1.33391
1.33404
1.33415
1.33424
1.33431
1.33437
1.33442
1.33445
1.33447
1.33448
1.33448
1.33448
1.33447
1.33445
1.33442
1.33439
1.33436
1.33432
1.33428
1.33423
1.33419
1.33414
1.33409
1.33404
1.33399
1.33394
1.33389
1.33384
1.3338
1.33375
1.33371
1.33367
1.33364
1.33361
1.33359
1.33357
1.33355
1.33355
1.33355
1.33355
1.33356
1.33359
1.33361
1.33365
1.3337
1.33375
1.33381
1.33388
1.33396
1.33405
1.33415
1.33425
1.33437
1.33449
1.33463
1.33477
1.33492
1.33508
1.33525
1.33542
1.3356
1.3358
1.33599
1.3362
1.33642
1.33664
1.33686
1.3371
1.33734
1.33758
1.33784
1.33809
1.33835
1.33862
1.33888
1.33915
1.33942
1.33969
1.33997
1.34024
1.34051
1.34078
1.34105
1.34132
1.34158
1.34184
1.3421
1.34235
1.34259
1.34283
1.34306
1.34328
1.34349
1.3437
1.34389
1.34408
1.34426
1.34442
1.34457
1.34472
1.34485
1.34497
1.34508
1.34518
1.34526
1.34534
1.34541
1.34547
1.34552
1.34556
1.34559
1.34562
1.34564
1.34565
1.34565
1.34565
1.34565
1.34564
1.34563
1.34561
1.34559
1.34556
1.34553
1.3455
1.34547
1.34544
1.3454
1.34536
1.34532
1.34528
1.34524
1.3452
1.34516
1.34512
1.34507
1.34503
1.34499
1.34494
1.3449
1.34486
1.34481
1.34477
1.34473
1.34468
1.34464
1.3446
1.34456
1.34451
1.34447
1.34443
1.34439
1.34435
1.34431
1.34427
1.34423
1.34419
1.34415
1.34411
1.34408
1.34404
1.344
1.34396
1.34393
1.34389
1.34385
1.34382
1.34378
1.34375
1.34372
1.34368
1.34365
1.34362
1.34358
1.34355
1.34352
1.34349
1.34347
1.34344
1.34341
1.34339
1.34336
1.34334
1.34332
1.3433
1.34328
1.34327
1.34326
1.34324
1.34324
1.34323
1.34322
1.34322
1.34323
1.34323
1.34324
1.34325
1.34327
1.34328
1.34331
1.34334
1.34337
1.3434
1.34345
1.34349
1.34354
1.3436
1.34366
1.34373
1.34381
1.34389
1.34398
1.34407
1.34417
1.34428
1.3444
1.34452
1.34465
1.34479
1.34494
1.34509
1.34526
1.34543
1.34561
1.3458
1.346
1.3462
1.34642
1.34665
1.34688
1.34712
1.34737
1.34763
1.3479
1.34818
1.34846
1.34876
1.34906
1.34937
1.34968
1.35001
1.35034
1.35068
1.35102
1.35137
1.35172
1.35208
1.35244
1.35281
1.35317
1.35354
1.35391
1.35428
1.35465
1.35502
1.35538
1.35574
1.3561
1.35645
1.3568
1.35713
1.35747
1.35779
1.3581
1.35841
1.3587
1.35899
1.35926
1.35953
1.35978
1.36002
1.36025
1.36047
1.36068
1.36088
1.36107
1.36125
1.36142
1.36159
1.36174
1.36189
1.36203
1.36217
1.36229
1.36242
1.36253
1.36265
1.36275
1.36286
1.36296
1.36305
1.36315
1.36324
1.36333
1.36341
1.36349
1.36358
1.36365
1.36373
1.36381
1.36388
1.36395
1.36403
1.3641
1.36416
1.36423
1.3643
1.36437
1.36443
1.3645
1.36456
1.36463
1.3647
1.36476
1.36483
1.3649
1.36498
1.36505
1.36513
1.36522
1.36531
1.3654
1.3655
1.36561
1.36572
1.36584
1.36598
1.36612
1.36627
1.36643
1.36661
1.3668
1.367
1.36722
1.36745
1.3677
1.36797
1.36825
1.36856
1.36888
1.36923
1.3696
1.36999
1.37041
1.37085
1.37132
1.37181
1.37234
1.37289
1.37347
1.37409
1.37473
1.37542
1.37613
1.37689
1.37768
1.37852
1.3794
1.38033
1.3813
1.38233
1.38342
1.38457
1.38579
1.38708
1.38845
1.38992
1.39149
1.39318
1.39501
1.39699
1.39915
1.40151
1.4041
1.40694
1.41003
1.41333
1.41671
1.4199
1.42235
1.4236
1.4233
1.32561
1.32494
1.3249
1.32534
1.32606
1.32695
1.32787
1.32875
1.32954
1.33025
1.33087
1.3314
1.33187
1.33227
1.33261
1.33291
1.33317
1.33339
1.33358
1.33374
1.33388
1.33399
1.33409
1.33417
1.33423
1.33428
1.33432
1.33435
1.33437
1.33437
1.33437
1.33436
1.33435
1.33433
1.3343
1.33427
1.33424
1.3342
1.33416
1.33411
1.33406
1.33402
1.33397
1.33392
1.33387
1.33382
1.33378
1.33373
1.33369
1.33365
1.33361
1.33358
1.33355
1.33353
1.33351
1.3335
1.33349
1.33349
1.3335
1.33351
1.33354
1.33357
1.3336
1.33365
1.33371
1.33377
1.33384
1.33392
1.33401
1.33411
1.33422
1.33434
1.33446
1.3346
1.33474
1.33489
1.33505
1.33522
1.3354
1.33558
1.33578
1.33598
1.33619
1.3364
1.33663
1.33685
1.33709
1.33733
1.33758
1.33783
1.33809
1.33835
1.33862
1.33889
1.33916
1.33943
1.33971
1.33998
1.34026
1.34053
1.34081
1.34108
1.34134
1.34161
1.34187
1.34213
1.34238
1.34262
1.34286
1.34309
1.34332
1.34353
1.34374
1.34393
1.34412
1.34429
1.34446
1.34461
1.34475
1.34488
1.345
1.34511
1.34521
1.34529
1.34537
1.34543
1.34549
1.34554
1.34558
1.34561
1.34563
1.34565
1.34566
1.34566
1.34566
1.34565
1.34564
1.34563
1.34561
1.34558
1.34556
1.34553
1.3455
1.34547
1.34543
1.3454
1.34536
1.34532
1.34528
1.34524
1.3452
1.34515
1.34511
1.34507
1.34503
1.34498
1.34494
1.34489
1.34485
1.34481
1.34477
1.34472
1.34468
1.34464
1.3446
1.34455
1.34451
1.34447
1.34443
1.34439
1.34435
1.34431
1.34427
1.34423
1.34419
1.34415
1.34412
1.34408
1.34404
1.344
1.34397
1.34393
1.34389
1.34386
1.34382
1.34379
1.34375
1.34372
1.34368
1.34365
1.34362
1.34359
1.34356
1.34352
1.3435
1.34347
1.34344
1.34341
1.34339
1.34336
1.34334
1.34332
1.3433
1.34328
1.34327
1.34326
1.34324
1.34323
1.34323
1.34322
1.34322
1.34322
1.34323
1.34324
1.34325
1.34326
1.34328
1.34331
1.34333
1.34336
1.3434
1.34344
1.34349
1.34354
1.3436
1.34366
1.34373
1.3438
1.34388
1.34397
1.34407
1.34417
1.34428
1.34439
1.34452
1.34465
1.34479
1.34494
1.34509
1.34525
1.34543
1.34561
1.3458
1.346
1.3462
1.34642
1.34664
1.34688
1.34712
1.34737
1.34763
1.3479
1.34818
1.34847
1.34876
1.34907
1.34938
1.34969
1.35002
1.35035
1.35069
1.35104
1.35139
1.35174
1.3521
1.35247
1.35283
1.3532
1.35357
1.35395
1.35432
1.35469
1.35506
1.35542
1.35579
1.35615
1.3565
1.35685
1.35719
1.35752
1.35784
1.35816
1.35846
1.35876
1.35904
1.35931
1.35958
1.35983
1.36007
1.3603
1.36052
1.36072
1.36092
1.36111
1.36129
1.36146
1.36162
1.36177
1.36191
1.36205
1.36218
1.36231
1.36243
1.36255
1.36266
1.36276
1.36286
1.36296
1.36306
1.36315
1.36324
1.36333
1.36341
1.3635
1.36358
1.36365
1.36373
1.36381
1.36388
1.36395
1.36402
1.36409
1.36416
1.36423
1.3643
1.36436
1.36443
1.36449
1.36456
1.36462
1.36469
1.36476
1.36482
1.36489
1.36497
1.36504
1.36512
1.3652
1.36529
1.36538
1.36548
1.36558
1.3657
1.36582
1.36595
1.36609
1.36624
1.3664
1.36657
1.36676
1.36696
1.36718
1.36741
1.36766
1.36792
1.36821
1.36851
1.36884
1.36918
1.36955
1.36994
1.37035
1.37079
1.37126
1.37175
1.37227
1.37282
1.3734
1.37402
1.37466
1.37534
1.37605
1.3768
1.37759
1.37842
1.37929
1.38021
1.38118
1.38219
1.38326
1.38439
1.38559
1.38685
1.38819
1.38961
1.39113
1.39275
1.39449
1.39635
1.39836
1.40053
1.40286
1.40534
1.40794
1.41059
1.41312
1.41531
1.41688
1.41749
1.41722
1.32722
1.32665
1.32652
1.32671
1.32716
1.32775
1.32841
1.32909
1.32973
1.33032
1.33086
1.33135
1.33177
1.33215
1.33248
1.33277
1.33302
1.33324
1.33343
1.33359
1.33374
1.33385
1.33396
1.33404
1.33411
1.33416
1.33421
1.33424
1.33426
1.33427
1.33427
1.33427
1.33426
1.33424
1.33422
1.33419
1.33416
1.33412
1.33408
1.33404
1.33399
1.33395
1.3339
1.33385
1.33381
1.33376
1.33372
1.33367
1.33363
1.33359
1.33356
1.33352
1.3335
1.33347
1.33346
1.33345
1.33344
1.33344
1.33345
1.33346
1.33349
1.33352
1.33356
1.3336
1.33366
1.33372
1.3338
1.33388
1.33397
1.33407
1.33418
1.3343
1.33443
1.33456
1.33471
1.33486
1.33502
1.33519
1.33537
1.33556
1.33575
1.33596
1.33617
1.33638
1.33661
1.33684
1.33708
1.33732
1.33757
1.33783
1.33809
1.33835
1.33862
1.33889
1.33917
1.33944
1.33972
1.34
1.34027
1.34055
1.34083
1.3411
1.34137
1.34164
1.3419
1.34216
1.34241
1.34266
1.3429
1.34313
1.34336
1.34357
1.34378
1.34398
1.34416
1.34434
1.3445
1.34465
1.34479
1.34492
1.34504
1.34515
1.34524
1.34533
1.3454
1.34546
1.34552
1.34556
1.3456
1.34563
1.34565
1.34566
1.34567
1.34567
1.34567
1.34566
1.34565
1.34563
1.34561
1.34559
1.34556
1.34553
1.3455
1.34547
1.34543
1.34539
1.34536
1.34532
1.34528
1.34523
1.34519
1.34515
1.34511
1.34507
1.34502
1.34498
1.34494
1.34489
1.34485
1.34481
1.34476
1.34472
1.34468
1.34464
1.3446
1.34455
1.34451
1.34447
1.34443
1.34439
1.34435
1.34431
1.34427
1.34423
1.3442
1.34416
1.34412
1.34408
1.34404
1.34401
1.34397
1.34393
1.3439
1.34386
1.34382
1.34379
1.34375
1.34372
1.34369
1.34365
1.34362
1.34359
1.34356
1.34353
1.3435
1.34347
1.34344
1.34342
1.34339
1.34337
1.34334
1.34332
1.3433
1.34328
1.34327
1.34325
1.34324
1.34323
1.34323
1.34322
1.34322
1.34322
1.34323
1.34323
1.34324
1.34326
1.34328
1.3433
1.34333
1.34336
1.3434
1.34344
1.34348
1.34353
1.34359
1.34365
1.34372
1.3438
1.34388
1.34396
1.34406
1.34416
1.34427
1.34438
1.34451
1.34464
1.34478
1.34493
1.34508
1.34525
1.34542
1.3456
1.34579
1.34599
1.3462
1.34641
1.34664
1.34687
1.34712
1.34737
1.34763
1.3479
1.34818
1.34847
1.34876
1.34907
1.34938
1.3497
1.35003
1.35036
1.3507
1.35105
1.3514
1.35176
1.35212
1.35249
1.35286
1.35323
1.3536
1.35398
1.35435
1.35473
1.3551
1.35547
1.35584
1.3562
1.35655
1.3569
1.35724
1.35758
1.3579
1.35822
1.35852
1.35882
1.3591
1.35938
1.35964
1.35989
1.36012
1.36035
1.36057
1.36077
1.36097
1.36115
1.36133
1.36149
1.36165
1.3618
1.36194
1.36208
1.36221
1.36233
1.36245
1.36256
1.36267
1.36277
1.36288
1.36297
1.36307
1.36316
1.36325
1.36333
1.36342
1.3635
1.36358
1.36366
1.36373
1.36381
1.36388
1.36395
1.36403
1.36409
1.36416
1.36423
1.3643
1.36436
1.36442
1.36449
1.36455
1.36462
1.36468
1.36475
1.36481
1.36488
1.36495
1.36503
1.3651
1.36518
1.36527
1.36536
1.36545
1.36556
1.36567
1.36578
1.36591
1.36605
1.3662
1.36636
1.36653
1.36671
1.36691
1.36712
1.36735
1.3676
1.36786
1.36815
1.36845
1.36877
1.36911
1.36948
1.36986
1.37028
1.37071
1.37118
1.37167
1.37218
1.37273
1.37331
1.37391
1.37455
1.37523
1.37593
1.37668
1.37746
1.37828
1.37914
1.38005
1.381
1.382
1.38305
1.38415
1.38531
1.38654
1.38784
1.38921
1.39066
1.3922
1.39383
1.39557
1.39742
1.39938
1.40144
1.40357
1.40573
1.40783
1.40973
1.41126
1.41227
1.41261
1.41224
1.32839
1.32794
1.32776
1.32782
1.32809
1.32849
1.32896
1.32947
1.32999
1.33048
1.33094
1.33136
1.33175
1.33209
1.3324
1.33267
1.33291
1.33313
1.33331
1.33348
1.33362
1.33374
1.33384
1.33393
1.334
1.33406
1.3341
1.33414
1.33416
1.33418
1.33418
1.33418
1.33417
1.33416
1.33413
1.33411
1.33408
1.33404
1.33401
1.33397
1.33392
1.33388
1.33383
1.33379
1.33374
1.3337
1.33365
1.33361
1.33357
1.33353
1.3335
1.33346
1.33344
1.33342
1.3334
1.33339
1.33338
1.33338
1.33339
1.33341
1.33343
1.33346
1.3335
1.33355
1.33361
1.33367
1.33375
1.33383
1.33392
1.33403
1.33414
1.33426
1.33439
1.33452
1.33467
1.33483
1.33499
1.33516
1.33534
1.33553
1.33573
1.33593
1.33614
1.33636
1.33659
1.33682
1.33706
1.33731
1.33756
1.33782
1.33808
1.33835
1.33862
1.3389
1.33917
1.33945
1.33973
1.34001
1.34029
1.34057
1.34085
1.34112
1.3414
1.34167
1.34193
1.34219
1.34245
1.3427
1.34294
1.34318
1.3434
1.34362
1.34383
1.34403
1.34421
1.34439
1.34455
1.3447
1.34485
1.34497
1.34509
1.34519
1.34529
1.34537
1.34544
1.3455
1.34555
1.34559
1.34563
1.34565
1.34567
1.34568
1.34569
1.34569
1.34568
1.34567
1.34566
1.34564
1.34562
1.34559
1.34556
1.34553
1.3455
1.34547
1.34543
1.34539
1.34535
1.34531
1.34527
1.34523
1.34519
1.34515
1.34511
1.34506
1.34502
1.34498
1.34494
1.34489
1.34485
1.34481
1.34477
1.34472
1.34468
1.34464
1.3446
1.34456
1.34452
1.34448
1.34444
1.34439
1.34436
1.34432
1.34428
1.34424
1.3442
1.34416
1.34412
1.34408
1.34405
1.34401
1.34397
1.34394
1.3439
1.34386
1.34383
1.34379
1.34376
1.34372
1.34369
1.34366
1.34362
1.34359
1.34356
1.34353
1.3435
1.34347
1.34344
1.34342
1.34339
1.34337
1.34334
1.34332
1.3433
1.34328
1.34327
1.34325
1.34324
1.34323
1.34322
1.34322
1.34322
1.34322
1.34322
1.34323
1.34324
1.34325
1.34327
1.34329
1.34332
1.34335
1.34339
1.34343
1.34347
1.34352
1.34358
1.34364
1.34371
1.34378
1.34387
1.34395
1.34405
1.34415
1.34426
1.34437
1.3445
1.34463
1.34477
1.34491
1.34507
1.34523
1.3454
1.34558
1.34578
1.34597
1.34618
1.3464
1.34662
1.34686
1.3471
1.34736
1.34762
1.34789
1.34817
1.34846
1.34876
1.34906
1.34938
1.3497
1.35003
1.35036
1.35071
1.35106
1.35141
1.35177
1.35214
1.35251
1.35288
1.35326
1.35363
1.35401
1.35439
1.35477
1.35514
1.35552
1.35589
1.35625
1.35661
1.35696
1.35731
1.35764
1.35797
1.35829
1.35859
1.35889
1.35917
1.35944
1.3597
1.35995
1.36019
1.36041
1.36063
1.36083
1.36102
1.3612
1.36137
1.36154
1.36169
1.36184
1.36198
1.36211
1.36224
1.36236
1.36247
1.36258
1.36269
1.36279
1.36289
1.36299
1.36308
1.36317
1.36326
1.36334
1.36342
1.36351
1.36358
1.36366
1.36374
1.36381
1.36389
1.36396
1.36403
1.3641
1.36416
1.36423
1.3643
1.36436
1.36442
1.36449
1.36455
1.36461
1.36467
1.36474
1.3648
1.36487
1.36494
1.36501
1.36508
1.36516
1.36524
1.36533
1.36542
1.36552
1.36563
1.36575
1.36587
1.36601
1.36615
1.36631
1.36647
1.36666
1.36685
1.36706
1.36729
1.36753
1.36779
1.36807
1.36837
1.36869
1.36903
1.36939
1.36977
1.37018
1.37061
1.37107
1.37156
1.37207
1.37261
1.37318
1.37379
1.37442
1.37508
1.37578
1.37652
1.37729
1.3781
1.37895
1.37984
1.38077
1.38174
1.38277
1.38385
1.38497
1.38616
1.3874
1.38872
1.39009
1.39155
1.39307
1.39468
1.39636
1.39811
1.39991
1.40173
1.40351
1.40517
1.4066
1.4077
1.40837
1.40854
1.40814
1.3293
1.32891
1.32873
1.32873
1.32888
1.32914
1.32949
1.32987
1.33028
1.33068
1.33107
1.33143
1.33177
1.33208
1.33236
1.33262
1.33284
1.33305
1.33322
1.33338
1.33352
1.33364
1.33374
1.33383
1.3339
1.33396
1.33401
1.33405
1.33407
1.33409
1.3341
1.3341
1.33409
1.33408
1.33406
1.33403
1.33401
1.33397
1.33394
1.3339
1.33386
1.33381
1.33377
1.33372
1.33368
1.33364
1.33359
1.33355
1.33351
1.33347
1.33344
1.33341
1.33338
1.33336
1.33334
1.33333
1.33333
1.33333
1.33334
1.33335
1.33338
1.33341
1.33345
1.3335
1.33356
1.33362
1.3337
1.33378
1.33388
1.33398
1.33409
1.33421
1.33434
1.33448
1.33463
1.33479
1.33495
1.33513
1.33531
1.3355
1.3357
1.3359
1.33611
1.33634
1.33656
1.3368
1.33704
1.33729
1.33755
1.33781
1.33807
1.33834
1.33862
1.33889
1.33917
1.33946
1.33974
1.34002
1.34031
1.34059
1.34087
1.34115
1.34142
1.3417
1.34196
1.34223
1.34249
1.34274
1.34298
1.34322
1.34345
1.34367
1.34388
1.34408
1.34427
1.34445
1.34461
1.34476
1.3449
1.34503
1.34514
1.34524
1.34533
1.34541
1.34548
1.34554
1.34559
1.34563
1.34566
1.34568
1.3457
1.34571
1.34571
1.34571
1.3457
1.34569
1.34567
1.34565
1.34563
1.3456
1.34557
1.34554
1.34551
1.34547
1.34543
1.3454
1.34536
1.34532
1.34528
1.34524
1.34519
1.34515
1.34511
1.34507
1.34502
1.34498
1.34494
1.34489
1.34485
1.34481
1.34477
1.34473
1.34468
1.34464
1.3446
1.34456
1.34452
1.34448
1.34444
1.3444
1.34436
1.34432
1.34428
1.34424
1.34421