# vtk DataFile Version 2.0
LBE mesh
ASCII
DATASET STRUCTURED_POINTS
DIMENSIONS 400 100 1
ASPECT_RATIO 1 1 1
ORIGIN 0 0 0
POINT_DATA 40000
SCALARS rho double 1
LOOKUP_TABLE default
1.20552
1.30682
1.33538
1.34002
1.34206
1.34414
1.3457
1.34671
1.34739
1.34789
1.34828
1.34859
1.34884
1.34904
1.34921
1.34935
1.34946
1.34956
1.34964
1.3497
1.34976
1.3498
1.34983
1.34985
1.34987
1.34987
1.34987
1.34987
1.34986
1.34984
1.34982
1.3498
1.34977
1.34973
1.3497
1.34966
1.34962
1.34958
1.34954
1.3495
1.34945
1.34941
1.34937
1.34933
1.34929
1.34925
1.34921
1.34918
1.34915
1.34912
1.3491
1.34908
1.34907
1.34906
1.34906
1.34907
1.34908
1.3491
1.34912
1.34916
1.3492
1.34925
1.34931
1.34938
1.34946
1.34954
1.34964
1.34974
1.34986
1.34998
1.35012
1.35026
1.35041
1.35058
1.35075
1.35093
1.35112
1.35132
1.35153
1.35175
1.35197
1.3522
1.35245
1.35269
1.35295
1.35321
1.35348
1.35376
1.35404
1.35433
1.35462
1.35492
1.35522
1.35552
1.35582
1.35613
1.35644
1.35675
1.35706
1.35737
1.35767
1.35798
1.35828
1.35857
1.35887
1.35916
1.35944
1.35972
1.35999
1.36025
1.3605
1.36075
1.36099
1.36122
1.36143
1.36164
1.36184
1.36202
1.3622
1.36236
1.36251
1.36265
1.36278
1.3629
1.36301
1.36311
1.3632
1.36328
1.36335
1.36341
1.36347
1.36351
1.36355
1.36359
1.36361
1.36363
1.36365
1.36366
1.36367
1.36367
1.36367
1.36367
1.36366
1.36365
1.36364
1.36362
1.36361
1.36359
1.36357
1.36355
1.36353
1.36351
1.36349
1.36346
1.36344
1.36341
1.36339
1.36336
1.36334
1.36331
1.36329
1.36326
1.36323
1.36321
1.36318
1.36316
1.36313
1.3631
1.36308
1.36305
1.36303
1.363
1.36298
1.36295
1.36293
1.3629
1.36288
1.36285
1.36283
1.36281
1.36278
1.36276
1.36274
1.36272
1.3627
1.36268
1.36266
1.36264
1.36262
1.3626
1.36258
1.36257
1.36255
1.36254
1.36253
1.36252
1.36251
1.3625
1.36249
1.36249
1.36248
1.36248
1.36248
1.36249
1.36249
1.3625
1.36251
1.36253
1.36254
1.36256
1.36259
1.36261
1.36264
1.36268
1.36272
1.36276
1.3628
1.36286
1.36291
1.36297
1.36304
1.36311
1.36319
1.36327
1.36336
1.36345
1.36355
1.36365
1.36377
1.36389
1.36401
1.36415
1.36429
1.36443
1.36459
1.36475
1.36492
1.3651
1.36529
1.36548
1.36568
1.3659
1.36612
1.36634
1.36658
1.36682
1.36708
1.36734
1.36761
1.36789
1.36818
1.36847
1.36878
1.36909
1.36941
1.36974
1.37007
1.37042
1.37076
1.37112
1.37148
1.37185
1.37222
1.3726
1.37298
1.37337
1.37376
1.37415
1.37455
1.37494
1.37534
1.37573
1.37612
1.37651
1.3769
1.37729
1.37767
1.37804
1.37841
1.37877
1.37913
1.37948
1.37981
1.38014
1.38046
1.38077
1.38107
1.38135
1.38163
1.3819
1.38215
1.3824
1.38263
1.38285
1.38307
1.38327
1.38347
1.38365
1.38383
1.384
1.38416
1.38432
1.38446
1.38461
1.38474
1.38487
1.385
1.38512
1.38524
1.38535
1.38546
1.38557
1.38567
1.38577
1.38587
1.38596
1.38605
1.38614
1.38623
1.38632
1.3864
1.38649
1.38657
1.38665
1.38673
1.3868
1.38688
1.38696
1.38704
1.38712
1.38719
1.38727
1.38735
1.38744
1.38752
1.38761
1.3877
1.38779
1.38789
1.388
1.38811
1.38822
1.38835
1.38848
1.38862
1.38877
1.38893
1.3891
1.38928
1.38948
1.38969
1.38991
1.39015
1.3904
1.39067
1.39096
1.39127
1.3916
1.39195
1.39232
1.39272
1.39314
1.39358
1.39405
1.39454
1.39507
1.39562
1.3962
1.39682
1.39747
1.39815
1.39887
1.39963
1.40043
1.40127
1.40216
1.40309
1.40408
1.40512
1.40622
1.40739
1.40863
1.40995
1.41136
1.41287
1.4145
1.41627
1.41819
1.42031
1.42265
1.42528
1.42827
1.43174
1.43583
1.44081
1.44725
1.45624
1.4689
1.48714
1.52355
1.29962
1.30709
1.32051
1.33281
1.33904
1.34203
1.34384
1.34517
1.34616
1.34689
1.34744
1.34788
1.34822
1.3485
1.34874
1.34893
1.34909
1.34922
1.34933
1.34942
1.3495
1.34956
1.34961
1.34965
1.34968
1.3497
1.34971
1.34971
1.34971
1.3497
1.34969
1.34967
1.34965
1.34962
1.34959
1.34956
1.34953
1.34949
1.34945
1.34941
1.34937
1.34933
1.3493
1.34926
1.34922
1.34919
1.34915
1.34912
1.3491
1.34907
1.34905
1.34904
1.34903
1.34902
1.34903
1.34903
1.34905
1.34907
1.3491
1.34913
1.34918
1.34923
1.34929
1.34936
1.34944
1.34953
1.34963
1.34974
1.34986
1.34998
1.35012
1.35026
1.35042
1.35058
1.35076
1.35094
1.35113
1.35133
1.35154
1.35176
1.35199
1.35222
1.35246
1.35271
1.35297
1.35323
1.3535
1.35378
1.35406
1.35435
1.35464
1.35494
1.35524
1.35554
1.35584
1.35615
1.35646
1.35676
1.35707
1.35738
1.35768
1.35799
1.35829
1.35858
1.35888
1.35916
1.35945
1.35972
1.35999
1.36025
1.3605
1.36075
1.36098
1.36121
1.36142
1.36163
1.36182
1.36201
1.36218
1.36234
1.36249
1.36263
1.36276
1.36288
1.36299
1.36308
1.36317
1.36325
1.36332
1.36338
1.36344
1.36348
1.36352
1.36356
1.36358
1.3636
1.36362
1.36363
1.36364
1.36364
1.36364
1.36364
1.36363
1.36362
1.36361
1.3636
1.36358
1.36357
1.36355
1.36353
1.36351
1.36349
1.36347
1.36344
1.36342
1.36339
1.36337
1.36334
1.36332
1.36329
1.36327
1.36324
1.36322
1.36319
1.36317
1.36314
1.36312
1.36309
1.36306
1.36304
1.36301
1.36299
1.36296
1.36294
1.36292
1.36289
1.36287
1.36284
1.36282
1.3628
1.36277
1.36275
1.36273
1.36271
1.36269
1.36267
1.36265
1.36263
1.36261
1.36259
1.36258
1.36256
1.36255
1.36253
1.36252
1.36251
1.3625
1.36249
1.36249
1.36248
1.36248
1.36248
1.36248
1.36248
1.36249
1.3625
1.36251
1.36253
1.36254
1.36256
1.36259
1.36262
1.36265
1.36268
1.36272
1.36276
1.36281
1.36286
1.36292
1.36298
1.36305
1.36312
1.3632
1.36328
1.36337
1.36346
1.36356
1.36367
1.36378
1.3639
1.36403
1.36416
1.3643
1.36445
1.36461
1.36477
1.36494
1.36512
1.36531
1.36551
1.36571
1.36592
1.36614
1.36637
1.36661
1.36685
1.36711
1.36737
1.36764
1.36792
1.36821
1.36851
1.36881
1.36912
1.36945
1.36977
1.37011
1.37045
1.3708
1.37116
1.37152
1.37189
1.37226
1.37264
1.37302
1.37341
1.3738
1.37419
1.37458
1.37497
1.37537
1.37576
1.37615
1.37654
1.37693
1.37731
1.37769
1.37806
1.37843
1.37879
1.37914
1.37949
1.37982
1.38015
1.38046
1.38077
1.38107
1.38135
1.38163
1.38189
1.38214
1.38239
1.38262
1.38284
1.38306
1.38326
1.38345
1.38364
1.38381
1.38398
1.38414
1.3843
1.38445
1.38459
1.38473
1.38486
1.38498
1.3851
1.38522
1.38534
1.38544
1.38555
1.38565
1.38575
1.38585
1.38595
1.38604
1.38613
1.38622
1.3863
1.38639
1.38647
1.38655
1.38664
1.38672
1.38679
1.38687
1.38695
1.38703
1.38711
1.38719
1.38727
1.38735
1.38743
1.38752
1.3876
1.3877
1.38779
1.38789
1.388
1.38811
1.38823
1.38835
1.38849
1.38863
1.38878
1.38894
1.38911
1.3893
1.3895
1.38971
1.38993
1.39018
1.39043
1.39071
1.391
1.39131
1.39164
1.392
1.39237
1.39277
1.39319
1.39364
1.39411
1.39461
1.39514
1.3957
1.39629
1.39691
1.39756
1.39825
1.39898
1.39974
1.40055
1.4014
1.40229
1.40323
1.40423
1.40528
1.40639
1.40757
1.40883
1.41017
1.4116
1.41314
1.4148
1.4166
1.41858
1.42075
1.42317
1.42591
1.42903
1.43268
1.43704
1.44243
1.44922
1.45805
1.47094
1.49357
1.52952
1.32164
1.31697
1.32543
1.33264
1.33699
1.34012
1.3424
1.344
1.34515
1.34602
1.34669
1.34723
1.34766
1.348
1.34829
1.34853
1.34873
1.3489
1.34904
1.34915
1.34925
1.34933
1.3494
1.34945
1.34949
1.34952
1.34954
1.34956
1.34957
1.34957
1.34956
1.34955
1.34953
1.34951
1.34949
1.34946
1.34943
1.3494
1.34936
1.34933
1.34929
1.34926
1.34922
1.34919
1.34915
1.34912
1.34909
1.34906
1.34904
1.34902
1.349
1.34899
1.34898
1.34898
1.34898
1.34899
1.34901
1.34903
1.34907
1.3491
1.34915
1.34921
1.34927
1.34934
1.34942
1.34952
1.34962
1.34972
1.34984
1.34997
1.35011
1.35026
1.35041
1.35058
1.35075
1.35094
1.35113
1.35133
1.35154
1.35176
1.35199
1.35223
1.35247
1.35272
1.35298
1.35324
1.35351
1.35379
1.35407
1.35436
1.35465
1.35495
1.35525
1.35555
1.35586
1.35616
1.35647
1.35678
1.35709
1.35739
1.3577
1.358
1.3583
1.3586
1.35889
1.35917
1.35946
1.35973
1.36
1.36026
1.36051
1.36075
1.36098
1.36121
1.36142
1.36163
1.36182
1.362
1.36217
1.36233
1.36248
1.36262
1.36275
1.36286
1.36297
1.36307
1.36315
1.36323
1.3633
1.36336
1.36342
1.36346
1.3635
1.36353
1.36356
1.36358
1.3636
1.36361
1.36362
1.36362
1.36362
1.36362
1.36361
1.3636
1.36359
1.36358
1.36356
1.36355
1.36353
1.36351
1.36349
1.36347
1.36344
1.36342
1.3634
1.36338
1.36335
1.36333
1.3633
1.36328
1.36325
1.36323
1.3632
1.36318
1.36315
1.36313
1.3631
1.36308
1.36305
1.36303
1.363
1.36298
1.36295
1.36293
1.3629
1.36288
1.36285
1.36283
1.36281
1.36279
1.36276
1.36274
1.36272
1.3627
1.36268
1.36266
1.36264
1.36262
1.3626
1.36258
1.36257
1.36255
1.36254
1.36252
1.36251
1.3625
1.36249
1.36249
1.36248
1.36248
1.36247
1.36247
1.36248
1.36248
1.36249
1.3625
1.36251
1.36252
1.36254
1.36256
1.36259
1.36261
1.36264
1.36268
1.36272
1.36276
1.36281
1.36286
1.36292
1.36298
1.36305
1.36312
1.3632
1.36328
1.36337
1.36347
1.36357
1.36368
1.36379
1.36391
1.36404
1.36417
1.36431
1.36446
1.36462
1.36479
1.36496
1.36514
1.36533
1.36552
1.36573
1.36594
1.36616
1.36639
1.36663
1.36687
1.36713
1.36739
1.36767
1.36795
1.36824
1.36853
1.36884
1.36915
1.36947
1.3698
1.37014
1.37048
1.37083
1.37119
1.37155
1.37192
1.37229
1.37267
1.37305
1.37344
1.37383
1.37422
1.37461
1.375
1.3754
1.37579
1.37618
1.37657
1.37696
1.37734
1.37772
1.37809
1.37845
1.37881
1.37916
1.37951
1.37984
1.38016
1.38048
1.38078
1.38108
1.38136
1.38163
1.3819
1.38215
1.38239
1.38262
1.38284
1.38305
1.38325
1.38345
1.38363
1.38381
1.38397
1.38414
1.38429
1.38444
1.38458
1.38471
1.38484
1.38497
1.38509
1.38521
1.38532
1.38543
1.38554
1.38564
1.38574
1.38584
1.38593
1.38603
1.38612
1.38621
1.38629
1.38638
1.38646
1.38654
1.38662
1.3867
1.38678
1.38686
1.38694
1.38702
1.3871
1.38718
1.38726
1.38734
1.38742
1.38751
1.3876
1.38769
1.38778
1.38789
1.38799
1.3881
1.38822
1.38835
1.38848
1.38863
1.38878
1.38894
1.38912
1.3893
1.3895
1.38972
1.38994
1.39019
1.39045
1.39072
1.39102
1.39133
1.39167
1.39202
1.3924
1.3928
1.39323
1.39368
1.39415
1.39465
1.39519
1.39575
1.39634
1.39696
1.39762
1.39831
1.39904
1.39981
1.40062
1.40147
1.40237
1.40332
1.40432
1.40538
1.4065
1.40769
1.40895
1.41029
1.41174
1.41328
1.41496
1.41677
1.41876
1.42095
1.42339
1.42614
1.42928
1.43293
1.43724
1.44245
1.44897
1.45743
1.46803
1.47955
1.49058
1.32935
1.32804
1.33051
1.3334
1.33686
1.33967
1.34171
1.34323
1.34442
1.34536
1.3461
1.34669
1.34717
1.34757
1.3479
1.34817
1.3484
1.3486
1.34876
1.3489
1.34902
1.34911
1.34919
1.34926
1.34932
1.34936
1.34939
1.34941
1.34943
1.34943
1.34943
1.34943
1.34942
1.3494
1.34938
1.34936
1.34934
1.34931
1.34928
1.34925
1.34921
1.34918
1.34915
1.34912
1.34908
1.34905
1.34903
1.349
1.34898
1.34896
1.34895
1.34894
1.34893
1.34893
1.34894
1.34895
1.34897
1.34899
1.34903
1.34907
1.34912
1.34917
1.34924
1.34931
1.3494
1.34949
1.34959
1.3497
1.34982
1.34995
1.35009
1.35024
1.3504
1.35057
1.35074
1.35093
1.35112
1.35133
1.35154
1.35176
1.35199
1.35223
1.35247
1.35272
1.35298
1.35325
1.35352
1.3538
1.35408
1.35437
1.35466
1.35496
1.35526
1.35557
1.35587
1.35618
1.35649
1.3568
1.3571
1.35741
1.35772
1.35802
1.35832
1.35861
1.3589
1.35919
1.35947
1.35974
1.36001
1.36027
1.36052
1.36076
1.361
1.36122
1.36143
1.36163
1.36182
1.36201
1.36218
1.36233
1.36248
1.36262
1.36274
1.36286
1.36296
1.36306
1.36314
1.36322
1.36329
1.36335
1.3634
1.36344
1.36348
1.36351
1.36354
1.36356
1.36358
1.36359
1.36359
1.3636
1.3636
1.36359
1.36359
1.36358
1.36357
1.36355
1.36354
1.36352
1.36351
1.36349
1.36347
1.36345
1.36342
1.3634
1.36338
1.36336
1.36333
1.36331
1.36328
1.36326
1.36323
1.36321
1.36318
1.36316
1.36313
1.36311
1.36308
1.36306
1.36304
1.36301
1.36299
1.36296
1.36294
1.36291
1.36289
1.36286
1.36284
1.36282
1.3628
1.36277
1.36275
1.36273
1.36271
1.36269
1.36267
1.36265
1.36263
1.36261
1.36259
1.36257
1.36256
1.36254
1.36253
1.36251
1.3625
1.36249
1.36248
1.36248
1.36247
1.36247
1.36246
1.36246
1.36247
1.36247
1.36248
1.36249
1.3625
1.36251
1.36253
1.36255
1.36258
1.36261
1.36264
1.36267
1.36271
1.36276
1.36281
1.36286
1.36292
1.36298
1.36305
1.36312
1.3632
1.36328
1.36337
1.36347
1.36357
1.36368
1.36379
1.36391
1.36404
1.36418
1.36432
1.36447
1.36463
1.36479
1.36496
1.36514
1.36533
1.36553
1.36573
1.36595
1.36617
1.3664
1.36664
1.36689
1.36714
1.36741
1.36768
1.36796
1.36825
1.36855
1.36886
1.36917
1.36949
1.36982
1.37016
1.3705
1.37085
1.37121
1.37158
1.37194
1.37232
1.3727
1.37308
1.37347
1.37386
1.37425
1.37464
1.37503
1.37543
1.37582
1.37621
1.3766
1.37699
1.37737
1.37775
1.37812
1.37848
1.37884
1.37919
1.37953
1.37987
1.38019
1.3805
1.38081
1.3811
1.38138
1.38165
1.38191
1.38216
1.3824
1.38263
1.38285
1.38306
1.38326
1.38345
1.38363
1.38381
1.38397
1.38413
1.38428
1.38443
1.38457
1.38471
1.38484
1.38496
1.38508
1.3852
1.38531
1.38542
1.38553
1.38563
1.38573
1.38583
1.38592
1.38602
1.38611
1.3862
1.38628
1.38637
1.38645
1.38653
1.38661
1.38669
1.38677
1.38685
1.38693
1.38701
1.38708
1.38716
1.38724
1.38733
1.38741
1.38749
1.38758
1.38768
1.38777
1.38787
1.38798
1.38809
1.38821
1.38834
1.38847
1.38862
1.38877
1.38893
1.38911
1.38929
1.38949
1.38971
1.38994
1.39018
1.39044
1.39072
1.39102
1.39133
1.39167
1.39202
1.3924
1.39281
1.39323
1.39368
1.39416
1.39467
1.3952
1.39576
1.39636
1.39698
1.39764
1.39834
1.39907
1.39984
1.40065
1.40151
1.40241
1.40336
1.40436
1.40542
1.40654
1.40772
1.40898
1.41033
1.41177
1.41331
1.41497
1.41678
1.41875
1.42091
1.42332
1.42601
1.42906
1.43255
1.43661
1.44137
1.44695
1.45343
1.46063
1.46648
1.46665
1.33408
1.33365
1.33415
1.33579
1.33795
1.33986
1.34152
1.3429
1.34402
1.34493
1.34567
1.34628
1.34678
1.34721
1.34756
1.34786
1.34811
1.34833
1.34851
1.34867
1.3488
1.34891
1.34901
1.34908
1.34915
1.3492
1.34924
1.34927
1.34929
1.34931
1.34931
1.34931
1.34931
1.3493
1.34928
1.34926
1.34924
1.34922
1.34919
1.34916
1.34913
1.3491
1.34907
1.34904
1.34901
1.34899
1.34896
1.34894
1.34892
1.3489
1.34889
1.34888
1.34887
1.34888
1.34888
1.3489
1.34892
1.34894
1.34898
1.34902
1.34907
1.34913
1.3492
1.34927
1.34936
1.34945
1.34956
1.34967
1.34979
1.34992
1.35007
1.35022
1.35038
1.35055
1.35072
1.35091
1.35111
1.35131
1.35153
1.35175
1.35198
1.35222
1.35246
1.35272
1.35298
1.35324
1.35352
1.3538
1.35408
1.35437
1.35467
1.35497
1.35527
1.35557
1.35588
1.35619
1.3565
1.35681
1.35712
1.35743
1.35773
1.35803
1.35834
1.35863
1.35892
1.35921
1.35949
1.35976
1.36003
1.36029
1.36054
1.36078
1.36101
1.36124
1.36145
1.36165
1.36184
1.36202
1.36219
1.36234
1.36249
1.36262
1.36275
1.36286
1.36296
1.36306
1.36314
1.36321
1.36328
1.36334
1.36339
1.36343
1.36347
1.3635
1.36352
1.36354
1.36356
1.36357
1.36357
1.36358
1.36358
1.36357
1.36357
1.36356
1.36355
1.36353
1.36352
1.3635
1.36348
1.36347
1.36345
1.36342
1.3634
1.36338
1.36336
1.36334
1.36331
1.36329
1.36326
1.36324
1.36322
1.36319
1.36317
1.36314
1.36312
1.36309
1.36307
1.36304
1.36302
1.36299
1.36297
1.36295
1.36292
1.3629
1.36287
1.36285
1.36283
1.3628
1.36278
1.36276
1.36274
1.36271
1.36269
1.36267
1.36265
1.36263
1.36261
1.36259
1.36258
1.36256
1.36254
1.36253
1.36251
1.3625
1.36249
1.36248
1.36247
1.36246
1.36246
1.36245
1.36245
1.36245
1.36246
1.36246
1.36247
1.36248
1.36249
1.3625
1.36252
1.36254
1.36257
1.3626
1.36263
1.36266
1.3627
1.36275
1.3628
1.36285
1.36291
1.36297
1.36304
1.36311
1.36319
1.36327
1.36336
1.36346
1.36356
1.36367
1.36378
1.36391
1.36403
1.36417
1.36431
1.36446
1.36462
1.36479
1.36496
1.36514
1.36533
1.36553
1.36573
1.36595
1.36617
1.3664
1.36664
1.36689
1.36715
1.36741
1.36769
1.36797
1.36826
1.36856
1.36887
1.36918
1.3695
1.36983
1.37017
1.37052
1.37087
1.37123
1.37159
1.37196
1.37234
1.37272
1.3731
1.37349
1.37388
1.37427
1.37467
1.37506
1.37546
1.37585
1.37625
1.37664
1.37702
1.37741
1.37778
1.37815
1.37852
1.37888
1.37923
1.37957
1.3799
1.38022
1.38053
1.38084
1.38113
1.38141
1.38168
1.38193
1.38218
1.38242
1.38265
1.38286
1.38307
1.38327
1.38346
1.38364
1.38381
1.38398
1.38413
1.38429
1.38443
1.38457
1.3847
1.38483
1.38496
1.38508
1.38519
1.38531
1.38541
1.38552
1.38562
1.38572
1.38582
1.38591
1.38601
1.3861
1.38619
1.38627
1.38636
1.38644
1.38652
1.3866
1.38668
1.38676
1.38684
1.38692
1.38699
1.38707
1.38715
1.38723
1.38731
1.38739
1.38748
1.38757
1.38766
1.38775
1.38785
1.38796
1.38807
1.38819
1.38832
1.38845
1.38859
1.38875
1.38891
1.38908
1.38927
1.38947
1.38969
1.38991
1.39016
1.39042
1.3907
1.39099
1.39131
1.39165
1.392
1.39238
1.39279
1.39321
1.39367
1.39414
1.39465
1.39518
1.39575
1.39634
1.39697
1.39763
1.39833
1.39906
1.39983
1.40064
1.40149
1.40239
1.40334
1.40434
1.40539
1.4065
1.40768
1.40894
1.41027
1.41169
1.41321
1.41485
1.41662
1.41854
1.42065
1.42296
1.42553
1.4284
1.43162
1.43526
1.43934
1.44385
1.44847
1.45263
1.45548
1.45471
1.3376
1.33697
1.33706
1.33797
1.33918
1.3405
1.34178
1.34291
1.34388
1.34471
1.34541
1.346
1.3465
1.34693
1.34729
1.3476
1.34787
1.3481
1.34829
1.34846
1.3486
1.34873
1.34883
1.34892
1.34899
1.34905
1.3491
1.34914
1.34917
1.34918
1.3492
1.3492
1.3492
1.3492
1.34918
1.34917
1.34915
1.34913
1.34911
1.34908
1.34905
1.34902
1.349
1.34897
1.34894
1.34892
1.34889
1.34887
1.34885
1.34884
1.34882
1.34882
1.34882
1.34882
1.34883
1.34884
1.34886
1.34889
1.34893
1.34897
1.34902
1.34908
1.34915
1.34923
1.34932
1.34941
1.34952
1.34963
1.34976
1.34989
1.35003
1.35018
1.35035
1.35052
1.3507
1.35089
1.35108
1.35129
1.35151
1.35173
1.35196
1.3522
1.35245
1.3527
1.35297
1.35323
1.35351
1.35379
1.35408
1.35437
1.35467
1.35497
1.35527
1.35558
1.35589
1.3562
1.35651
1.35682
1.35713
1.35744
1.35775
1.35805
1.35835
1.35865
1.35894
1.35923
1.35951
1.35979
1.36005
1.36031
1.36056
1.36081
1.36104
1.36126
1.36147
1.36167
1.36186
1.36204
1.36221
1.36236
1.3625
1.36264
1.36276
1.36287
1.36297
1.36306
1.36314
1.36321
1.36328
1.36333
1.36338
1.36342
1.36346
1.36349
1.36351
1.36353
1.36354
1.36355
1.36356
1.36356
1.36356
1.36355
1.36355
1.36354
1.36353
1.36351
1.3635
1.36348
1.36346
1.36344
1.36342
1.3634
1.36338
1.36336
1.36334
1.36332
1.36329
1.36327
1.36324
1.36322
1.3632
1.36317
1.36315
1.36312
1.3631
1.36307
1.36305
1.36303
1.363
1.36298
1.36295
1.36293
1.3629
1.36288
1.36286
1.36283
1.36281
1.36279
1.36277
1.36274
1.36272
1.3627
1.36268
1.36266
1.36264
1.36262
1.3626
1.36258
1.36256
1.36254
1.36253
1.36251
1.3625
1.36249
1.36248
1.36247
1.36246
1.36245
1.36244
1.36244
1.36244
1.36244
1.36244
1.36245
1.36245
1.36246
1.36248
1.36249
1.36251
1.36253
1.36255
1.36258
1.36261
1.36265
1.36269
1.36273
1.36278
1.36284
1.36289
1.36296
1.36302
1.3631
1.36318
1.36326
1.36335
1.36345
1.36355
1.36366
1.36377
1.36389
1.36402
1.36416
1.3643
1.36445
1.36461
1.36478
1.36495
1.36513
1.36532
1.36552
1.36573
1.36594
1.36616
1.36639
1.36664
1.36688
1.36714
1.36741
1.36768
1.36796
1.36826
1.36856
1.36887
1.36918
1.36951
1.36984
1.37018
1.37052
1.37088
1.37124
1.3716
1.37198
1.37235
1.37273
1.37312
1.37351
1.3739
1.3743
1.37469
1.37509
1.37549
1.37588
1.37628
1.37667
1.37706
1.37744
1.37782
1.37819
1.37856
1.37892
1.37927
1.37961
1.37994
1.38026
1.38057
1.38087
1.38116
1.38144
1.38171
1.38197
1.38221
1.38245
1.38267
1.38289
1.38309
1.38329
1.38347
1.38365
1.38382
1.38399
1.38414
1.38429
1.38444
1.38457
1.38471
1.38483
1.38496
1.38508
1.38519
1.3853
1.38541
1.38551
1.38562
1.38572
1.38581
1.38591
1.386
1.38609
1.38618
1.38626
1.38635
1.38643
1.38651
1.38659
1.38667
1.38675
1.38683
1.3869
1.38698
1.38706
1.38713
1.38721
1.38729
1.38737
1.38746
1.38755
1.38764
1.38773
1.38783
1.38793
1.38805
1.38816
1.38829
1.38842
1.38856
1.38871
1.38888
1.38905
1.38924
1.38944
1.38965
1.38988
1.39012
1.39038
1.39066
1.39095
1.39127
1.39161
1.39196
1.39234
1.39274
1.39317
1.39362
1.3941
1.39461
1.39514
1.3957
1.3963
1.39692
1.39758
1.39827
1.399
1.39977
1.40058
1.40143
1.40232
1.40326
1.40425
1.4053
1.4064
1.40757
1.4088
1.41011
1.41151
1.413
1.41459
1.41631
1.41816
1.42017
1.42237
1.42476
1.42739
1.43028
1.43342
1.43677
1.44021
1.44345
1.44595
1.44722
1.44692
1.33998
1.33929
1.33925
1.33969
1.34041
1.34132
1.34225
1.34313
1.34394
1.34466
1.34529
1.34584
1.34632
1.34673
1.34709
1.3474
1.34767
1.3479
1.3481
1.34828
1.34843
1.34856
1.34867
1.34877
1.34885
1.34891
1.34897
1.34901
1.34904
1.34907
1.34908
1.34909
1.3491
1.34909
1.34909
1.34908
1.34906
1.34904
1.34902
1.349
1.34897
1.34895
1.34892
1.34889
1.34887
1.34884
1.34882
1.3488
1.34878
1.34877
1.34876
1.34875
1.34875
1.34875
1.34876
1.34878
1.3488
1.34883
1.34887
1.34891
1.34897
1.34903
1.3491
1.34918
1.34926
1.34936
1.34947
1.34958
1.34971
1.34985
1.34999
1.35014
1.35031
1.35048
1.35066
1.35085
1.35105
1.35126
1.35148
1.3517
1.35194
1.35218
1.35243
1.35268
1.35295
1.35322
1.3535
1.35378
1.35407
1.35437
1.35466
1.35497
1.35527
1.35558
1.35589
1.35621
1.35652
1.35683
1.35715
1.35746
1.35777
1.35807
1.35838
1.35867
1.35897
1.35926
1.35954
1.35981
1.36008
1.36034
1.36059
1.36084
1.36107
1.36129
1.3615
1.3617
1.36189
1.36207
1.36223
1.36238
1.36253
1.36266
1.36278
1.36289
1.36298
1.36307
1.36315
1.36322
1.36328
1.36334
1.36338
1.36342
1.36345
1.36348
1.3635
1.36352
1.36353
1.36354
1.36354
1.36354
1.36354
1.36354
1.36353
1.36352
1.36351
1.36349
1.36348
1.36346
1.36344
1.36342
1.3634
1.36338
1.36336
1.36334
1.36332
1.36329
1.36327
1.36325
1.36322
1.3632
1.36318
1.36315
1.36313
1.3631
1.36308
1.36305
1.36303
1.36301
1.36298
1.36296
1.36293
1.36291
1.36289
1.36286
1.36284
1.36282
1.36279
1.36277
1.36275
1.36273
1.3627
1.36268
1.36266
1.36264
1.36262
1.3626
1.36258
1.36256
1.36255
1.36253
1.36251
1.3625
1.36248
1.36247
1.36246
1.36245
1.36244
1.36243
1.36243
1.36242
1.36242
1.36242
1.36242
1.36243
1.36244
1.36245
1.36246
1.36247
1.36249
1.36251
1.36254
1.36256
1.3626
1.36263
1.36267
1.36272
1.36276
1.36282
1.36287
1.36294
1.36301
1.36308
1.36316
1.36324
1.36333
1.36343
1.36353
1.36364
1.36375
1.36387
1.364
1.36414
1.36428
1.36443
1.36459
1.36476
1.36493
1.36511
1.3653
1.3655
1.36571
1.36592
1.36615
1.36638
1.36662
1.36687
1.36713
1.36739
1.36767
1.36795
1.36825
1.36855
1.36886
1.36917
1.3695
1.36983
1.37017
1.37052
1.37088
1.37124
1.37161
1.37198
1.37236
1.37274
1.37313
1.37352
1.37392
1.37432
1.37472
1.37512
1.37551
1.37591
1.37631
1.3767
1.37709
1.37748
1.37786
1.37824
1.3786
1.37896
1.37931
1.37966
1.37999
1.38031
1.38062
1.38092
1.38121
1.38149
1.38175
1.38201
1.38225
1.38248
1.3827
1.38292
1.38312
1.38331
1.3835
1.38367
1.38384
1.384
1.38416
1.3843
1.38444
1.38458
1.38471
1.38484
1.38496
1.38508
1.38519
1.3853
1.38541
1.38551
1.38561
1.38571
1.38581
1.3859
1.38599
1.38608
1.38617
1.38625
1.38634
1.38642
1.3865
1.38658
1.38666
1.38674
1.38681
1.38689
1.38696
1.38704
1.38712
1.38719
1.38727
1.38735
1.38744
1.38752
1.38761
1.3877
1.3878
1.3879
1.38801
1.38813
1.38825
1.38838
1.38852
1.38867
1.38883
1.38901
1.38919
1.38939
1.3896
1.38983
1.39007
1.39033
1.3906
1.3909
1.39121
1.39154
1.3919
1.39228
1.39268
1.3931
1.39355
1.39403
1.39453
1.39507
1.39563
1.39622
1.39684
1.3975
1.39819
1.39891
1.39968
1.40048
1.40132
1.40221
1.40314
1.40412
1.40515
1.40624
1.40738
1.40859
1.40987
1.41123
1.41268
1.41422
1.41586
1.41763
1.41952
1.42156
1.42376
1.42612
1.42865
1.43129
1.43398
1.43656
1.43879
1.44038
1.44101
1.44074
1.3416
1.34103
1.34089
1.34108
1.34152
1.34212
1.34279
1.34347
1.34413
1.34474
1.34529
1.34578
1.34622
1.34661
1.34695
1.34725
1.34751
1.34775
1.34795
1.34813
1.34828
1.34842
1.34853
1.34863
1.34872
1.34879
1.34884
1.34889
1.34893
1.34896
1.34898
1.34899
1.349
1.349
1.34899
1.34899
1.34897
1.34896
1.34894
1.34892
1.34889
1.34887
1.34884
1.34882
1.34879
1.34877
1.34875
1.34873
1.34871
1.3487
1.34869
1.34869
1.34869
1.34869
1.3487
1.34872
1.34874
1.34877
1.34881
1.34885
1.34891
1.34897
1.34904
1.34912
1.34921
1.34931
1.34942
1.34953
1.34966
1.3498
1.34994
1.3501
1.35026
1.35044
1.35062
1.35081
1.35102
1.35123
1.35144
1.35167
1.35191
1.35215
1.3524
1.35266
1.35293
1.3532
1.35348
1.35376
1.35406
1.35435
1.35465
1.35496
1.35527
1.35558
1.3559
1.35621
1.35653
1.35684
1.35716
1.35747
1.35778
1.35809
1.3584
1.3587
1.35899
1.35928
1.35957
1.35984
1.36011
1.36038
1.36063
1.36087
1.3611
1.36133
1.36154
1.36174
1.36193
1.3621
1.36226
1.36242
1.36256
1.36268
1.3628
1.36291
1.363
1.36309
1.36316
1.36323
1.36329
1.36334
1.36338
1.36342
1.36345
1.36348
1.3635
1.36351
1.36352
1.36353
1.36353
1.36353
1.36353
1.36352
1.36351
1.3635
1.36349
1.36347
1.36346
1.36344
1.36342
1.3634
1.36338
1.36336
1.36334
1.36332
1.3633
1.36327
1.36325
1.36323
1.3632
1.36318
1.36315
1.36313
1.36311
1.36308
1.36306
1.36303
1.36301
1.36299
1.36296
1.36294
1.36292
1.36289
1.36287
1.36284
1.36282
1.3628
1.36278
1.36275
1.36273
1.36271
1.36269
1.36266
1.36264
1.36262
1.3626
1.36258
1.36256
1.36254
1.36253
1.36251
1.36249
1.36248
1.36247
1.36245
1.36244
1.36243
1.36242
1.36241
1.36241
1.3624
1.3624
1.3624
1.3624
1.36241
1.36242
1.36242
1.36244
1.36245
1.36247
1.36249
1.36252
1.36254
1.36257
1.36261
1.36265
1.36269
1.36274
1.36279
1.36285
1.36291
1.36298
1.36305
1.36313
1.36322
1.36331
1.3634
1.3635
1.36361
1.36373
1.36385
1.36398
1.36411
1.36426
1.36441
1.36457
1.36473
1.36491
1.36509
1.36528
1.36548
1.36568
1.3659
1.36612
1.36635
1.3666
1.36685
1.3671
1.36737
1.36765
1.36793
1.36823
1.36853
1.36884
1.36916
1.36948
1.36982
1.37016
1.37051
1.37087
1.37123
1.3716
1.37198
1.37236
1.37275
1.37314
1.37353
1.37393
1.37433
1.37473
1.37514
1.37554
1.37594
1.37634
1.37674
1.37713
1.37752
1.3779
1.37828
1.37865
1.37901
1.37936
1.37971
1.38004
1.38036
1.38067
1.38097
1.38126
1.38154
1.3818
1.38205
1.38229
1.38252
1.38274
1.38295
1.38315
1.38334
1.38353
1.3837
1.38386
1.38402
1.38417
1.38432
1.38446
1.38459
1.38472
1.38484
1.38496
1.38508
1.38519
1.3853
1.38541
1.38551
1.38561
1.38571
1.3858
1.3859
1.38599
1.38608
1.38616
1.38625
1.38633
1.38641
1.38649
1.38657
1.38665
1.38672
1.3868
1.38687
1.38695
1.38702
1.3871
1.38717
1.38725
1.38733
1.38741
1.38749
1.38758
1.38767
1.38777
1.38787
1.38797
1.38809
1.38821
1.38834
1.38848
1.38862
1.38878
1.38895
1.38913
1.38933
1.38954
1.38976
1.39
1.39026
1.39053
1.39082
1.39113
1.39147
1.39182
1.39219
1.39259
1.39302
1.39346
1.39394
1.39444
1.39496
1.39552
1.39611
1.39673
1.39738
1.39806
1.39878
1.39954
1.40033
1.40117
1.40204
1.40296
1.40393
1.40494
1.406
1.40713
1.40831
1.40955
1.41087
1.41226
1.41373
1.41529
1.41695
1.41872
1.4206
1.42258
1.42467
1.42684
1.42904
1.43117
1.4331
1.43467
1.4357
1.43604
1.43568
1.34279
1.34232
1.34214
1.3422
1.34246
1.34286
1.34335
1.34387
1.34439
1.34489
1.34536
1.34579
1.34619
1.34654
1.34686
1.34715
1.3474
1.34763
1.34783
1.348
1.34816
1.34829
1.34841
1.34851
1.3486
1.34867
1.34873
1.34878
1.34882
1.34885
1.34888
1.34889
1.3489
1.34891
1.3489
1.3489
1.34889
1.34887
1.34885
1.34883
1.34881
1.34879
1.34877
1.34874
1.34872
1.3487
1.34868
1.34866
1.34864
1.34863
1.34862
1.34862
1.34862
1.34862
1.34863
1.34865
1.34867
1.3487
1.34874
1.34879
1.34884
1.34891
1.34898
1.34906
1.34915
1.34925
1.34936
1.34948
1.3496
1.34974
1.34989
1.35005
1.35021
1.35039
1.35058
1.35077
1.35097
1.35118
1.3514
1.35163
1.35187
1.35212
1.35237
1.35263
1.3529
1.35317
1.35345
1.35374
1.35404
1.35434
1.35464
1.35495
1.35526
1.35558
1.3559
1.35621
1.35653
1.35685
1.35717
1.35748
1.3578
1.35811
1.35842
1.35872
1.35902
1.35931
1.3596
1.35988
1.36015
1.36041
1.36067
1.36091
1.36115
1.36137
1.36158
1.36178
1.36197
1.36214
1.3623
1.36245
1.36259
1.36272
1.36283
1.36293
1.36303
1.36311
1.36318
1.36325
1.3633
1.36335
1.36339
1.36342
1.36345
1.36347
1.36349
1.3635
1.36351
1.36352
1.36352
1.36352
1.36351
1.3635
1.36349
1.36348
1.36347
1.36345
1.36344
1.36342
1.3634
1.36338
1.36336
1.36334
1.36332
1.36329
1.36327
1.36325
1.36323
1.3632
1.36318
1.36316
1.36313
1.36311
1.36308
1.36306
1.36304
1.36301
1.36299
1.36296
1.36294
1.36292
1.36289
1.36287
1.36285
1.36282
1.3628
1.36278
1.36275
1.36273
1.36271
1.36269
1.36267
1.36264
1.36262
1.3626
1.36258
1.36256
1.36254
1.36253
1.36251
1.36249
1.36247
1.36246
1.36245
1.36243
1.36242
1.36241
1.3624
1.36239
1.36239
1.36238
1.36238
1.36238
1.36238
1.36239
1.36239
1.3624
1.36241
1.36243
1.36245
1.36247
1.36249
1.36252
1.36255
1.36258
1.36262
1.36267
1.36271
1.36277
1.36282
1.36289
1.36295
1.36302
1.3631
1.36319
1.36328
1.36337
1.36347
1.36358
1.3637
1.36382
1.36395
1.36408
1.36422
1.36437
1.36453
1.3647
1.36487
1.36505
1.36524
1.36544
1.36565
1.36586
1.36609
1.36632
1.36656
1.36681
1.36707
1.36734
1.36762
1.3679
1.3682
1.3685
1.36881
1.36913
1.36946
1.3698
1.37014
1.37049
1.37085
1.37122
1.37159
1.37197
1.37235
1.37274
1.37314
1.37354
1.37394
1.37434
1.37475
1.37515
1.37556
1.37597
1.37637
1.37677
1.37717
1.37756
1.37795
1.37833
1.3787
1.37906
1.37942
1.37976
1.3801
1.38042
1.38073
1.38103
1.38132
1.38159
1.38186
1.38211
1.38235
1.38257
1.38279
1.383
1.38319
1.38338
1.38356
1.38373
1.38389
1.38405
1.3842
1.38434
1.38448
1.38461
1.38473
1.38485
1.38497
1.38509
1.3852
1.38531
1.38541
1.38551
1.38561
1.38571
1.3858
1.38589
1.38598
1.38607
1.38616
1.38624
1.38632
1.3864
1.38648
1.38656
1.38664
1.38671
1.38679
1.38686
1.38693
1.387
1.38708
1.38715
1.38723
1.3873
1.38738
1.38746
1.38755
1.38764
1.38773
1.38783
1.38793
1.38804
1.38816
1.38829
1.38842
1.38856
1.38872
1.38889
1.38907
1.38926
1.38946
1.38968
1.38992
1.39017
1.39044
1.39073
1.39104
1.39137
1.39172
1.39209
1.39249
1.39291
1.39335
1.39382
1.39431
1.39484
1.39539
1.39597
1.39659
1.39723
1.39791
1.39862
1.39937
1.40015
1.40097
1.40183
1.40274
1.40368
1.40467
1.40571
1.40681
1.40795
1.40915
1.41042
1.41175
1.41315
1.41462
1.41617
1.4178
1.41951
1.42129
1.42312
1.42496
1.42677
1.42846
1.42992
1.43104
1.43172
1.4319
1.4315
1.34369
1.3433
1.34311
1.34311
1.34326
1.34353
1.34387
1.34426
1.34468
1.34509
1.34548
1.34586
1.3462
1.34653
1.34682
1.34708
1.34732
1.34754
1.34773
1.3479
1.34805
1.34818
1.3483
1.3484
1.34849
1.34857
1.34863
1.34868
1.34872
1.34876
1.34878
1.3488
1.34881
1.34882
1.34882
1.34881
1.3488
1.34879
1.34878
1.34876
1.34874
1.34871
1.34869
1.34867
1.34865
1.34863
1.34861
1.34859
1.34857
1.34856
1.34855
1.34855
1.34855
1.34855
1.34856
1.34858
1.34861
1.34864
1.34868
1.34872
1.34878
1.34884
1.34891
1.34899
1.34909
1.34919
1.3493
1.34942
1.34955
1.34968
1.34983
1.34999
1.35016
1.35034
1.35052
1.35072
1.35093
1.35114
1.35136
1.35159
1.35183
1.35208
1.35233
1.35259
1.35286
1.35314
1.35343
1.35372
1.35401
1.35432
1.35462
1.35494
1.35525
1.35557
1.35589
1.35621
1.35653
1.35686
1.35718
1.3575
1.35781
1.35813
1.35844
1.35874
1.35905
1.35934
1.35963
1.35991
1.36019
1.36045
1.36071
1.36095
1.36119
1.36141
1.36163
1.36182
1.36201
1.36219
1.36235
1.36249
1.36263
1.36275
1.36287
1.36297
1.36306
1.36313
1.3632
1.36326
1.36332
1.36336
1.3634
1.36343
1.36346
1.36348
1.36349
1.3635
1.36351
1.36351
1.36351
1.3635
1.3635
1.36349
1.36348
1.36346
1.36345
1.36343
1.36342
1.3634
1.36338
1.36336
1.36334
1.36332
1.36329
1.36327
1.36325
1.36323
1.3632
1.36318
1.36316
1.36313
1.36311
1.36309
1.36306
1.36304
1.36301
1.36299
1.36297
1.36294
1.36292
1.3629
1.36287
1.36285
1.36283
1.3628
1.36278
1.36276
1.36273
1.36271
1.36269