# vtk DataFile Version 2.0
LBE mesh
ASCII
DATASET STRUCTURED_POINTS
DIMENSIONS 400 100 1
ASPECT_RATIO 1 1 1
ORIGIN 0 0 0
POINT_DATA 40000
SCALARS rho double 1
LOOKUP_TABLE default
1.06807
1.13142
1.15014
1.1544
1.15657
1.15833
1.15959
1.16041
1.16096
1.16136
1.16166
1.16188
1.16205
1.16218
1.16228
1.16235
1.1624
1.16244
1.16246
1.16246
1.16246
1.16245
1.16243
1.16241
1.16238
1.16235
1.16231
1.16227
1.16222
1.16218
1.16213
1.16208
1.16203
1.16198
1.16193
1.16188
1.16183
1.16178
1.16173
1.16168
1.16164
1.1616
1.16155
1.16152
1.16148
1.16145
1.16143
1.1614
1.16139
1.16137
1.16137
1.16137
1.16137
1.16138
1.1614
1.16143
1.16146
1.16151
1.16156
1.16162
1.16169
1.16176
1.16185
1.16195
1.16206
1.16218
1.16231
1.16245
1.1626
1.16276
1.16293
1.16311
1.16331
1.16351
1.16372
1.16395
1.16418
1.16442
1.16467
1.16493
1.1652
1.16547
1.16575
1.16604
1.16634
1.16664
1.16694
1.16725
1.16756
1.16787
1.16818
1.1685
1.16881
1.16912
1.16943
1.16973
1.17004
1.17033
1.17062
1.17091
1.17118
1.17145
1.17171
1.17196
1.1722
1.17243
1.17264
1.17285
1.17304
1.17322
1.17339
1.17354
1.17368
1.1738
1.17391
1.17401
1.17409
1.17416
1.17421
1.17425
1.17428
1.17429
1.17429
1.17429
1.17427
1.17424
1.1742
1.17415
1.1741
1.17404
1.17397
1.1739
1.17383
1.17375
1.17367
1.17359
1.1735
1.17342
1.17334
1.17325
1.17317
1.17309
1.17301
1.17293
1.17286
1.17279
1.17272
1.17266
1.1726
1.17254
1.17249
1.17244
1.1724
1.17236
1.17233
1.1723
1.17227
1.17225
1.17223
1.17222
1.17221
1.1722
1.1722
1.17221
1.17221
1.17222
1.17224
1.17226
1.17228
1.1723
1.17233
1.17236
1.17239
1.17242
1.17246
1.1725
1.17254
1.17258
1.17262
1.17267
1.17271
1.17276
1.1728
1.17285
1.17289
1.17294
1.17298
1.17303
1.17307
1.17312
1.17316
1.1732
1.17325
1.17329
1.17332
1.17336
1.1734
1.17343
1.17346
1.1735
1.17353
1.17356
1.17358
1.17361
1.17363
1.17365
1.17368
1.1737
1.17372
1.17373
1.17375
1.17377
1.17378
1.1738
1.17381
1.17383
1.17385
1.17386
1.17388
1.1739
1.17392
1.17394
1.17396
1.17398
1.17401
1.17404
1.17407
1.1741
1.17414
1.17418
1.17423
1.17428
1.17434
1.1744
1.17446
1.17454
1.17462
1.1747
1.17479
1.17489
1.175
1.17511
1.17524
1.17537
1.17551
1.17566
1.17582
1.17598
1.17616
1.17635
1.17655
1.17675
1.17697
1.1772
1.17744
1.17769
1.17795
1.17822
1.1785
1.17879
1.17909
1.1794
1.17972
1.18004
1.18038
1.18072
1.18107
1.18143
1.18179
1.18216
1.18254
1.18291
1.18329
1.18367
1.18406
1.18444
1.18482
1.1852
1.18557
1.18595
1.18631
1.18668
1.18703
1.18738
1.18772
1.18805
1.18838
1.18869
1.18899
1.18929
1.18957
1.18985
1.19011
1.19037
1.19061
1.19084
1.19107
1.19128
1.19148
1.19168
1.19187
1.19204
1.19221
1.19237
1.19253
1.19267
1.19281
1.19294
1.19307
1.19319
1.1933
1.1934
1.1935
1.19359
1.19367
1.19375
1.19382
1.19389
1.19395
1.194
1.19405
1.19409
1.19412
1.19415
1.19418
1.1942
1.19421
1.19422
1.19422
1.19423
1.19422
1.19422
1.19421
1.19421
1.1942
1.19419
1.19418
1.19417
1.19417
1.19417
1.19417
1.19418
1.19419
1.19421
1.19424
1.19428
1.19432
1.19438
1.19444
1.19452
1.19462
1.19473
1.19485
1.19499
1.19514
1.19532
1.19551
1.19573
1.19596
1.19622
1.1965
1.19681
1.19714
1.1975
1.19788
1.19829
1.19873
1.1992
1.1997
1.20024
1.20081
1.20141
1.20205
1.20273
1.20344
1.2042
1.205
1.20585
1.20675
1.2077
1.20872
1.20979
1.21094
1.21216
1.21348
1.21489
1.21642
1.21809
1.21992
1.22195
1.22423
1.22681
1.22981
1.23334
1.23763
1.24318
1.25092
1.26185
1.27746
1.3083
1.1188
1.12957
1.14083
1.14958
1.15417
1.15657
1.15808
1.15916
1.15995
1.16053
1.16096
1.16128
1.16153
1.16173
1.16188
1.16199
1.16208
1.16215
1.16219
1.16222
1.16224
1.16225
1.16225
1.16224
1.16222
1.1622
1.16217
1.16214
1.1621
1.16206
1.16202
1.16198
1.16194
1.16189
1.16184
1.1618
1.16175
1.16171
1.16166
1.16162
1.16158
1.16154
1.1615
1.16147
1.16143
1.16141
1.16138
1.16136
1.16135
1.16134
1.16133
1.16134
1.16134
1.16136
1.16138
1.16141
1.16144
1.16149
1.16154
1.16161
1.16168
1.16176
1.16185
1.16195
1.16206
1.16218
1.16231
1.16245
1.1626
1.16277
1.16294
1.16312
1.16332
1.16352
1.16374
1.16396
1.1642
1.16444
1.16469
1.16495
1.16522
1.16549
1.16578
1.16607
1.16636
1.16666
1.16696
1.16727
1.16758
1.16789
1.1682
1.16852
1.16883
1.16914
1.16945
1.16975
1.17005
1.17035
1.17064
1.17092
1.17119
1.17146
1.17172
1.17196
1.1722
1.17243
1.17264
1.17285
1.17303
1.17321
1.17338
1.17353
1.17366
1.17378
1.17389
1.17399
1.17407
1.17413
1.17418
1.17422
1.17425
1.17426
1.17426
1.17425
1.17423
1.17421
1.17417
1.17412
1.17407
1.17401
1.17394
1.17387
1.1738
1.17372
1.17364
1.17356
1.17348
1.1734
1.17331
1.17323
1.17315
1.17307
1.17299
1.17292
1.17285
1.17278
1.17271
1.17265
1.17259
1.17254
1.17248
1.17244
1.17239
1.17236
1.17232
1.17229
1.17227
1.17225
1.17223
1.17222
1.17221
1.1722
1.1722
1.17221
1.17222
1.17223
1.17224
1.17226
1.17228
1.1723
1.17233
1.17236
1.17239
1.17243
1.17246
1.1725
1.17254
1.17258
1.17262
1.17267
1.17271
1.17276
1.1728
1.17285
1.17289
1.17294
1.17299
1.17303
1.17307
1.17312
1.17316
1.1732
1.17324
1.17328
1.17332
1.17336
1.1734
1.17343
1.17346
1.17349
1.17352
1.17355
1.17358
1.17361
1.17363
1.17365
1.17367
1.17369
1.17371
1.17373
1.17375
1.17377
1.17378
1.1738
1.17381
1.17383
1.17385
1.17386
1.17388
1.1739
1.17392
1.17394
1.17396
1.17398
1.17401
1.17404
1.17407
1.17411
1.17415
1.17419
1.17424
1.17429
1.17435
1.17441
1.17448
1.17455
1.17463
1.17472
1.17481
1.17491
1.17502
1.17513
1.17526
1.17539
1.17553
1.17568
1.17584
1.17601
1.17619
1.17637
1.17657
1.17678
1.177
1.17723
1.17747
1.17772
1.17798
1.17825
1.17853
1.17882
1.17912
1.17943
1.17975
1.18008
1.18042
1.18076
1.18111
1.18147
1.18183
1.1822
1.18257
1.18295
1.18333
1.18371
1.18409
1.18447
1.18485
1.18522
1.1856
1.18597
1.18633
1.18669
1.18705
1.18739
1.18773
1.18806
1.18838
1.18869
1.189
1.18929
1.18957
1.18984
1.19011
1.19036
1.1906
1.19083
1.19105
1.19127
1.19147
1.19167
1.19185
1.19203
1.1922
1.19236
1.19251
1.19266
1.19279
1.19293
1.19305
1.19317
1.19328
1.19338
1.19348
1.19357
1.19365
1.19373
1.1938
1.19387
1.19393
1.19398
1.19403
1.19407
1.1941
1.19413
1.19415
1.19417
1.19419
1.19419
1.1942
1.1942
1.1942
1.1942
1.19419
1.19418
1.19417
1.19417
1.19416
1.19415
1.19415
1.19415
1.19416
1.19416
1.19418
1.1942
1.19423
1.19427
1.19432
1.19438
1.19445
1.19453
1.19462
1.19474
1.19486
1.195
1.19516
1.19534
1.19554
1.19576
1.196
1.19626
1.19654
1.19685
1.19719
1.19755
1.19793
1.19835
1.1988
1.19927
1.19978
1.20032
1.20089
1.2015
1.20214
1.20283
1.20355
1.20431
1.20512
1.20598
1.20689
1.20785
1.20888
1.20996
1.21113
1.21237
1.2137
1.21514
1.21671
1.21842
1.2203
1.2224
1.22476
1.22746
1.23061
1.23437
1.23901
1.24487
1.25247
1.26353
1.28298
1.31392
1.13756
1.13688
1.14356
1.14908
1.15261
1.15513
1.15693
1.1582
1.15912
1.15981
1.16033
1.16074
1.16106
1.16131
1.1615
1.16166
1.16178
1.16187
1.16194
1.16199
1.16203
1.16205
1.16207
1.16207
1.16206
1.16205
1.16203
1.16201
1.16198
1.16195
1.16192
1.16188
1.16184
1.1618
1.16176
1.16172
1.16168
1.16163
1.16159
1.16155
1.16151
1.16148
1.16144
1.16141
1.16138
1.16136
1.16134
1.16132
1.16131
1.1613
1.1613
1.1613
1.16131
1.16133
1.16135
1.16138
1.16142
1.16147
1.16152
1.16158
1.16166
1.16174
1.16183
1.16193
1.16205
1.16217
1.1623
1.16245
1.1626
1.16276
1.16294
1.16312
1.16332
1.16353
1.16374
1.16397
1.1642
1.16445
1.1647
1.16496
1.16523
1.16551
1.16579
1.16608
1.16637
1.16667
1.16698
1.16728
1.16759
1.16791
1.16822
1.16853
1.16884
1.16915
1.16946
1.16977
1.17007
1.17036
1.17065
1.17093
1.1712
1.17147
1.17172
1.17197
1.17221
1.17243
1.17265
1.17285
1.17304
1.17321
1.17337
1.17352
1.17366
1.17378
1.17388
1.17398
1.17405
1.17412
1.17417
1.17421
1.17423
1.17424
1.17424
1.17423
1.17421
1.17418
1.17414
1.1741
1.17404
1.17398
1.17392
1.17385
1.17377
1.1737
1.17362
1.17354
1.17346
1.17338
1.17329
1.17321
1.17313
1.17305
1.17298
1.1729
1.17283
1.17277
1.1727
1.17264
1.17258
1.17253
1.17248
1.17243
1.17239
1.17235
1.17232
1.17229
1.17226
1.17224
1.17223
1.17222
1.17221
1.1722
1.1722
1.17221
1.17222
1.17223
1.17224
1.17226
1.17228
1.17231
1.17233
1.17236
1.1724
1.17243
1.17247
1.1725
1.17254
1.17259
1.17263
1.17267
1.17272
1.17276
1.17281
1.17285
1.1729
1.17294
1.17299
1.17303
1.17308
1.17312
1.17316
1.1732
1.17325
1.17329
1.17332
1.17336
1.1734
1.17343
1.17346
1.17349
1.17352
1.17355
1.17358
1.1736
1.17363
1.17365
1.17367
1.17369
1.17371
1.17373
1.17375
1.17377
1.17378
1.1738
1.17381
1.17383
1.17385
1.17386
1.17388
1.1739
1.17392
1.17394
1.17396
1.17399
1.17401
1.17404
1.17408
1.17411
1.17415
1.1742
1.17424
1.1743
1.17435
1.17442
1.17448
1.17456
1.17464
1.17473
1.17482
1.17492
1.17503
1.17515
1.17527
1.1754
1.17555
1.1757
1.17586
1.17603
1.17621
1.17639
1.17659
1.1768
1.17702
1.17725
1.17749
1.17775
1.17801
1.17828
1.17856
1.17885
1.17915
1.17946
1.17978
1.18011
1.18045
1.18079
1.18114
1.1815
1.18186
1.18223
1.1826
1.18298
1.18336
1.18374
1.18412
1.1845
1.18487
1.18525
1.18562
1.18599
1.18636
1.18671
1.18707
1.18741
1.18775
1.18808
1.1884
1.18871
1.18901
1.1893
1.18958
1.18985
1.19011
1.19036
1.1906
1.19083
1.19105
1.19126
1.19146
1.19166
1.19184
1.19202
1.19219
1.19235
1.1925
1.19264
1.19278
1.19291
1.19304
1.19315
1.19326
1.19337
1.19346
1.19355
1.19364
1.19371
1.19379
1.19385
1.19391
1.19396
1.19401
1.19405
1.19408
1.19411
1.19413
1.19415
1.19416
1.19417
1.19418
1.19418
1.19418
1.19417
1.19417
1.19416
1.19415
1.19414
1.19414
1.19413
1.19413
1.19413
1.19413
1.19414
1.19416
1.19418
1.19421
1.19425
1.1943
1.19436
1.19443
1.19452
1.19461
1.19473
1.19485
1.195
1.19516
1.19534
1.19554
1.19576
1.196
1.19627
1.19656
1.19687
1.1972
1.19757
1.19796
1.19838
1.19883
1.1993
1.19981
1.20036
1.20093
1.20155
1.20219
1.20288
1.20361
1.20438
1.20519
1.20605
1.20697
1.20794
1.20896
1.21006
1.21123
1.21248
1.21382
1.21527
1.21685
1.21857
1.22047
1.22258
1.22495
1.22767
1.23082
1.23453
1.23902
1.24464
1.25192
1.26103
1.27093
1.28048
1.14573
1.14491
1.1471
1.14974
1.1525
1.15472
1.15634
1.15757
1.15852
1.15926
1.15983
1.16029
1.16064
1.16093
1.16116
1.16135
1.16149
1.16161
1.1617
1.16177
1.16183
1.16186
1.16189
1.16191
1.16191
1.16191
1.1619
1.16188
1.16186
1.16184
1.16181
1.16178
1.16175
1.16171
1.16167
1.16164
1.1616
1.16156
1.16152
1.16149
1.16145
1.16142
1.16138
1.16136
1.16133
1.16131
1.16129
1.16127
1.16126
1.16125
1.16125
1.16126
1.16127
1.16129
1.16131
1.16134
1.16138
1.16143
1.16149
1.16155
1.16163
1.16171
1.16181
1.16191
1.16202
1.16215
1.16228
1.16243
1.16258
1.16275
1.16292
1.16311
1.16331
1.16352
1.16373
1.16396
1.1642
1.16444
1.1647
1.16496
1.16523
1.16551
1.16579
1.16608
1.16638
1.16668
1.16698
1.16729
1.1676
1.16792
1.16823
1.16854
1.16886
1.16917
1.16948
1.16978
1.17008
1.17037
1.17066
1.17094
1.17122
1.17148
1.17174
1.17198
1.17222
1.17244
1.17266
1.17286
1.17304
1.17322
1.17338
1.17353
1.17366
1.17378
1.17388
1.17397
1.17405
1.17411
1.17416
1.1742
1.17422
1.17423
1.17423
1.17422
1.1742
1.17416
1.17412
1.17408
1.17402
1.17396
1.1739
1.17383
1.17375
1.17368
1.1736
1.17352
1.17344
1.17336
1.17327
1.17319
1.17312
1.17304
1.17296
1.17289
1.17282
1.17275
1.17269
1.17263
1.17257
1.17252
1.17247
1.17242
1.17238
1.17235
1.17231
1.17229
1.17226
1.17224
1.17223
1.17222
1.17221
1.17221
1.17221
1.17221
1.17222
1.17223
1.17225
1.17226
1.17229
1.17231
1.17234
1.17237
1.1724
1.17243
1.17247
1.17251
1.17255
1.17259
1.17263
1.17267
1.17272
1.17276
1.17281
1.17285
1.1729
1.17295
1.17299
1.17304
1.17308
1.17312
1.17316
1.17321
1.17325
1.17329
1.17332
1.17336
1.1734
1.17343
1.17346
1.1735
1.17352
1.17355
1.17358
1.17361
1.17363
1.17365
1.17367
1.17369
1.17371
1.17373
1.17375
1.17377
1.17378
1.1738
1.17381
1.17383
1.17385
1.17386
1.17388
1.1739
1.17392
1.17394
1.17396
1.17399
1.17402
1.17405
1.17408
1.17412
1.17416
1.1742
1.17425
1.1743
1.17436
1.17442
1.17449
1.17457
1.17465
1.17473
1.17483
1.17493
1.17504
1.17515
1.17528
1.17541
1.17556
1.17571
1.17587
1.17604
1.17622
1.17641
1.17661
1.17682
1.17704
1.17727
1.17751
1.17776
1.17803
1.1783
1.17858
1.17887
1.17917
1.17949
1.17981
1.18014
1.18047
1.18082
1.18117
1.18153
1.18189
1.18226
1.18263
1.18301
1.18339
1.18377
1.18415
1.18453
1.1849
1.18528
1.18565
1.18602
1.18638
1.18674
1.18709
1.18744
1.18777
1.1881
1.18842
1.18872
1.18902
1.18931
1.18959
1.18986
1.19012
1.19037
1.19061
1.19083
1.19105
1.19126
1.19146
1.19166
1.19184
1.19201
1.19218
1.19234
1.19249
1.19264
1.19277
1.1929
1.19303
1.19314
1.19325
1.19336
1.19345
1.19354
1.19362
1.1937
1.19377
1.19384
1.19389
1.19395
1.19399
1.19403
1.19406
1.19409
1.19411
1.19413
1.19414
1.19415
1.19416
1.19416
1.19415
1.19415
1.19414
1.19413
1.19412
1.19412
1.19411
1.1941
1.1941
1.1941
1.1941
1.19411
1.19413
1.19415
1.19418
1.19422
1.19427
1.19433
1.1944
1.19449
1.19459
1.1947
1.19483
1.19498
1.19514
1.19532
1.19552
1.19574
1.19599
1.19625
1.19654
1.19686
1.19719
1.19756
1.19795
1.19837
1.19882
1.19931
1.19982
1.20036
1.20094
1.20155
1.20221
1.20289
1.20362
1.20439
1.20521
1.20607
1.20699
1.20796
1.20899
1.21008
1.21125
1.21249
1.21383
1.21528
1.21684
1.21855
1.22042
1.2225
1.22483
1.22746
1.23047
1.23397
1.23807
1.24288
1.24846
1.25466
1.2597
1.25986
1.14993
1.14946
1.15008
1.15152
1.15327
1.15484
1.15618
1.15729
1.15818
1.15889
1.15947
1.15993
1.16031
1.16062
1.16087
1.16108
1.16124
1.16138
1.16148
1.16157
1.16164
1.16169
1.16172
1.16175
1.16176
1.16177
1.16177
1.16176
1.16175
1.16173
1.16171
1.16168
1.16165
1.16162
1.16159
1.16156
1.16152
1.16149
1.16145
1.16142
1.16138
1.16135
1.16132
1.1613
1.16127
1.16125
1.16123
1.16122
1.16121
1.16121
1.16121
1.16121
1.16122
1.16124
1.16127
1.1613
1.16134
1.16139
1.16145
1.16152
1.16159
1.16168
1.16177
1.16188
1.16199
1.16212
1.16225
1.1624
1.16255
1.16272
1.1629
1.16309
1.16329
1.1635
1.16371
1.16394
1.16418
1.16443
1.16468
1.16495
1.16522
1.1655
1.16578
1.16608
1.16637
1.16668
1.16698
1.16729
1.16761
1.16792
1.16824
1.16855
1.16887
1.16918
1.16949
1.16979
1.17009
1.17039
1.17068
1.17096
1.17123
1.1715
1.17175
1.172
1.17223
1.17246
1.17267
1.17287
1.17306
1.17323
1.17339
1.17354
1.17367
1.17379
1.17389
1.17398
1.17405
1.17412
1.17416
1.1742
1.17422
1.17423
1.17422
1.17421
1.17419
1.17415
1.17411
1.17406
1.17401
1.17395
1.17388
1.17381
1.17374
1.17366
1.17358
1.1735
1.17342
1.17334
1.17326
1.17318
1.1731
1.17302
1.17295
1.17288
1.17281
1.17274
1.17268
1.17262
1.17256
1.17251
1.17246
1.17242
1.17238
1.17234
1.17231
1.17228
1.17226
1.17224
1.17223
1.17222
1.17221
1.17221
1.17221
1.17221
1.17222
1.17223
1.17225
1.17227
1.17229
1.17231
1.17234
1.17237
1.1724
1.17244
1.17247
1.17251
1.17255
1.17259
1.17264
1.17268
1.17272
1.17277
1.17281
1.17286
1.1729
1.17295
1.17299
1.17304
1.17308
1.17313
1.17317
1.17321
1.17325
1.17329
1.17333
1.17336
1.1734
1.17343
1.17347
1.1735
1.17353
1.17355
1.17358
1.17361
1.17363
1.17365
1.17367
1.1737
1.17371
1.17373
1.17375
1.17377
1.17378
1.1738
1.17382
1.17383
1.17385
1.17387
1.17388
1.1739
1.17392
1.17394
1.17397
1.17399
1.17402
1.17405
1.17408
1.17412
1.17416
1.1742
1.17425
1.17431
1.17436
1.17443
1.17449
1.17457
1.17465
1.17474
1.17483
1.17493
1.17504
1.17516
1.17528
1.17542
1.17556
1.17571
1.17587
1.17604
1.17622
1.17641
1.17662
1.17683
1.17705
1.17728
1.17752
1.17777
1.17804
1.17831
1.17859
1.17889
1.17919
1.1795
1.17982
1.18015
1.18049
1.18084
1.18119
1.18155
1.18191
1.18228
1.18266
1.18303
1.18341
1.18379
1.18418
1.18456
1.18494
1.18531
1.18568
1.18605
1.18642
1.18677
1.18712
1.18747
1.1878
1.18813
1.18844
1.18875
1.18905
1.18934
1.18961
1.18988
1.19014
1.19038
1.19062
1.19085
1.19106
1.19127
1.19147
1.19166
1.19184
1.19202
1.19218
1.19234
1.19249
1.19263
1.19277
1.1929
1.19302
1.19314
1.19325
1.19335
1.19344
1.19353
1.19362
1.19369
1.19376
1.19383
1.19388
1.19394
1.19398
1.19402
1.19405
1.19408
1.1941
1.19412
1.19413
1.19413
1.19414
1.19413
1.19413
1.19412
1.19412
1.19411
1.1941
1.19409
1.19408
1.19407
1.19407
1.19407
1.19407
1.19408
1.19409
1.19411
1.19414
1.19418
1.19423
1.19429
1.19436
1.19445
1.19455
1.19466
1.19479
1.19493
1.1951
1.19528
1.19548
1.1957
1.19595
1.19621
1.1965
1.19682
1.19716
1.19752
1.19792
1.19834
1.19879
1.19927
1.19978
1.20033
1.20091
1.20152
1.20217
1.20286
1.20359
1.20436
1.20518
1.20604
1.20695
1.20791
1.20893
1.21002
1.21118
1.21241
1.21373
1.21515
1.21669
1.21835
1.22018
1.22218
1.2244
1.22688
1.22966
1.23279
1.23631
1.24019
1.24418
1.24776
1.25023
1.24957
1.15277
1.15228
1.15244
1.15321
1.15423
1.15532
1.15636
1.15726
1.15804
1.15869
1.15923
1.15969
1.16006
1.16037
1.16063
1.16085
1.16102
1.16117
1.16129
1.16139
1.16146
1.16152
1.16157
1.1616
1.16162
1.16164
1.16164
1.16164
1.16163
1.16162
1.1616
1.16158
1.16156
1.16153
1.1615
1.16147
1.16144
1.16141
1.16138
1.16135
1.16132
1.16129
1.16126
1.16124
1.16121
1.16119
1.16118
1.16116
1.16116
1.16115
1.16115
1.16116
1.16117
1.1612
1.16122
1.16126
1.1613
1.16135
1.16141
1.16147
1.16155
1.16163
1.16173
1.16184
1.16195
1.16208
1.16221
1.16236
1.16252
1.16269
1.16287
1.16306
1.16325
1.16346
1.16368
1.16391
1.16415
1.1644
1.16466
1.16493
1.1652
1.16548
1.16577
1.16606
1.16636
1.16667
1.16698
1.16729
1.1676
1.16792
1.16824
1.16856
1.16887
1.16918
1.1695
1.1698
1.1701
1.1704
1.17069
1.17097
1.17125
1.17152
1.17177
1.17202
1.17225
1.17248
1.17269
1.17289
1.17308
1.17325
1.17341
1.17356
1.17369
1.1738
1.17391
1.17399
1.17407
1.17413
1.17417
1.1742
1.17422
1.17423
1.17422
1.17421
1.17418
1.17415
1.1741
1.17405
1.174
1.17394
1.17387
1.1738
1.17372
1.17364
1.17356
1.17348
1.1734
1.17332
1.17324
1.17316
1.17308
1.17301
1.17293
1.17286
1.17279
1.17273
1.17267
1.17261
1.17255
1.1725
1.17245
1.17241
1.17237
1.17234
1.17231
1.17228
1.17226
1.17224
1.17223
1.17222
1.17221
1.17221
1.17221
1.17222
1.17222
1.17224
1.17225
1.17227
1.17229
1.17232
1.17235
1.17238
1.17241
1.17244
1.17248
1.17252
1.17256
1.1726
1.17264
1.17268
1.17273
1.17277
1.17282
1.17286
1.17291
1.17295
1.173
1.17304
1.17309
1.17313
1.17317
1.17321
1.17325
1.17329
1.17333
1.17337
1.1734
1.17344
1.17347
1.1735
1.17353
1.17356
1.17358
1.17361
1.17363
1.17366
1.17368
1.1737
1.17372
1.17374
1.17375
1.17377
1.17379
1.1738
1.17382
1.17384
1.17385
1.17387
1.17389
1.17391
1.17393
1.17395
1.17397
1.174
1.17402
1.17405
1.17409
1.17412
1.17416
1.17421
1.17425
1.17431
1.17436
1.17443
1.1745
1.17457
1.17465
1.17474
1.17483
1.17493
1.17504
1.17516
1.17529
1.17542
1.17556
1.17571
1.17587
1.17604
1.17623
1.17642
1.17662
1.17683
1.17705
1.17728
1.17752
1.17778
1.17804
1.17831
1.1786
1.17889
1.1792
1.17951
1.17983
1.18016
1.1805
1.18085
1.1812
1.18157
1.18193
1.1823
1.18268
1.18306
1.18344
1.18382
1.1842
1.18459
1.18497
1.18534
1.18572
1.18609
1.18645
1.18681
1.18716
1.1875
1.18784
1.18816
1.18848
1.18878
1.18908
1.18936
1.18964
1.1899
1.19016
1.1904
1.19064
1.19086
1.19108
1.19129
1.19148
1.19167
1.19185
1.19202
1.19219
1.19234
1.19249
1.19264
1.19277
1.1929
1.19302
1.19313
1.19324
1.19335
1.19344
1.19353
1.19361
1.19369
1.19376
1.19382
1.19388
1.19393
1.19397
1.19401
1.19404
1.19407
1.19409
1.1941
1.19411
1.19412
1.19412
1.19411
1.19411
1.1941
1.19409
1.19408
1.19407
1.19405
1.19404
1.19403
1.19403
1.19403
1.19403
1.19403
1.19405
1.19407
1.1941
1.19413
1.19418
1.19424
1.19431
1.19439
1.19449
1.1946
1.19473
1.19487
1.19504
1.19522
1.19542
1.19564
1.19588
1.19615
1.19644
1.19675
1.19709
1.19746
1.19785
1.19827
1.19872
1.1992
1.19972
1.20026
1.20084
1.20145
1.2021
1.20279
1.20351
1.20428
1.20509
1.20594
1.20685
1.2078
1.20881
1.20989
1.21102
1.21224
1.21353
1.21491
1.2164
1.21801
1.21975
1.22164
1.22371
1.22599
1.22848
1.23119
1.23408
1.23704
1.23983
1.24199
1.2431
1.24284
1.15473
1.15422
1.15421
1.15459
1.15521
1.15595
1.15671
1.15742
1.15806
1.15863
1.15912
1.15954
1.15989
1.16019
1.16045
1.16066
1.16084
1.161
1.16112
1.16122
1.16131
1.16137
1.16143
1.16147
1.1615
1.16152
1.16153
1.16153
1.16153
1.16152
1.16151
1.16149
1.16147
1.16145
1.16142
1.16139
1.16137
1.16134
1.16131
1.16128
1.16125
1.16122
1.1612
1.16117
1.16115
1.16114
1.16112
1.16111
1.1611
1.1611
1.1611
1.16111
1.16112
1.16114
1.16117
1.1612
1.16125
1.1613
1.16135
1.16142
1.1615
1.16159
1.16168
1.16179
1.1619
1.16203
1.16217
1.16231
1.16247
1.16264
1.16282
1.16301
1.16321
1.16342
1.16365
1.16388
1.16412
1.16437
1.16463
1.16489
1.16517
1.16545
1.16574
1.16604
1.16634
1.16665
1.16696
1.16728
1.16759
1.16791
1.16823
1.16855
1.16887
1.16919
1.1695
1.16981
1.17011
1.17041
1.1707
1.17099
1.17126
1.17153
1.17179
1.17204
1.17227
1.1725
1.17271
1.17291
1.1731
1.17328
1.17343
1.17358
1.17371
1.17383
1.17393
1.17402
1.17409
1.17414
1.17419
1.17422
1.17423
1.17424
1.17423
1.17421
1.17418
1.17415
1.1741
1.17405
1.17399
1.17393
1.17386
1.17379
1.17371
1.17363
1.17355
1.17347
1.17339
1.17331
1.17323
1.17315
1.17307
1.173
1.17292
1.17285
1.17278
1.17272
1.17266
1.1726
1.17254
1.17249
1.17245
1.17241
1.17237
1.17233
1.1723
1.17228
1.17226
1.17224
1.17222
1.17222
1.17221
1.17221
1.17221
1.17222
1.17223
1.17224
1.17226
1.17228
1.1723
1.17232
1.17235
1.17238
1.17241
1.17245
1.17249
1.17252
1.17256
1.17261
1.17265
1.17269
1.17273
1.17278
1.17282
1.17287
1.17291
1.17296
1.173
1.17305
1.17309
1.17314
1.17318
1.17322
1.17326
1.1733
1.17334
1.17337
1.17341
1.17344
1.17347
1.17351
1.17353
1.17356
1.17359
1.17361
1.17364
1.17366
1.17368
1.1737
1.17372
1.17374
1.17376
1.17377
1.17379
1.17381
1.17382
1.17384
1.17386
1.17387
1.17389
1.17391
1.17393
1.17395
1.17397
1.174
1.17403
1.17406
1.17409
1.17412
1.17416
1.17421
1.17426
1.17431
1.17437
1.17443
1.1745
1.17457
1.17465
1.17474
1.17483
1.17493
1.17504
1.17516
1.17528
1.17541
1.17556
1.17571
1.17587
1.17604
1.17622
1.17641
1.17661
1.17682
1.17704
1.17727
1.17752
1.17777
1.17803
1.17831
1.17859
1.17889
1.17919
1.17951
1.17983
1.18017
1.18051
1.18086
1.18121
1.18158
1.18194
1.18232
1.1827
1.18308
1.18346
1.18385
1.18423
1.18462
1.185
1.18538
1.18575
1.18612
1.18649
1.18685
1.1872
1.18754
1.18788
1.1882
1.18852
1.18882
1.18912
1.1894
1.18967
1.18994
1.19019
1.19043
1.19066
1.19089
1.1911
1.1913
1.1915
1.19169
1.19186
1.19203
1.1922
1.19235
1.1925
1.19264
1.19277
1.1929
1.19302
1.19314
1.19324
1.19335
1.19344
1.19353
1.19361
1.19369
1.19376
1.19382
1.19387
1.19392
1.19397
1.194
1.19403
1.19406
1.19408
1.19409
1.1941
1.1941
1.1941
1.19409
1.19409
1.19408
1.19406
1.19405
1.19403
1.19402
1.19401
1.194
1.19399
1.19398
1.19398
1.19398
1.194
1.19401
1.19404
1.19407
1.19412
1.19418
1.19424
1.19432
1.19442
1.19453
1.19465
1.1948
1.19496
1.19514
1.19534
1.19556
1.1958
1.19606
1.19635
1.19666
1.197
1.19736
1.19775
1.19817
1.19862
1.1991
1.19961
1.20016
1.20073
1.20134
1.20199
1.20267
1.20339
1.20415
1.20495
1.2058
1.20669
1.20763
1.20862
1.20968
1.21079
1.21197
1.21322
1.21456
1.21599
1.21752
1.21916
1.22092
1.22282
1.22487
1.22704
1.22933
1.23165
1.23387
1.2358
1.23718
1.23772
1.2375
1.15609
1.15564
1.15554
1.15572
1.15609
1.15658
1.15713
1.15767
1.15819
1.15867
1.15909
1.15946
1.15979
1.16007
1.16032
1.16052
1.1607
1.16085
1.16098
1.16108
1.16117
1.16124
1.1613
1.16134
1.16138
1.1614
1.16142
1.16142
1.16143
1.16142
1.16141
1.1614
1.16138
1.16136
1.16134
1.16132
1.16129
1.16126
1.16124
1.16121
1.16118
1.16116
1.16113
1.16111
1.16109
1.16107
1.16106
1.16105
1.16104
1.16104
1.16104
1.16105
1.16107
1.16109
1.16111
1.16115
1.16119
1.16124
1.1613
1.16137
1.16144
1.16153
1.16163
1.16173
1.16185
1.16198
1.16211
1.16226
1.16242
1.16259
1.16277
1.16296
1.16316
1.16338
1.1636
1.16383
1.16407
1.16433
1.16459
1.16486
1.16513
1.16542
1.16571
1.16601
1.16631
1.16663
1.16694
1.16726
1.16758
1.1679
1.16822
1.16855
1.16887
1.16919
1.1695
1.16981
1.17012
1.17042
1.17072
1.171
1.17128
1.17155
1.17181
1.17206
1.1723
1.17253
1.17274
1.17294
1.17313
1.1733
1.17346
1.17361
1.17374
1.17386
1.17396
1.17404
1.17411
1.17417
1.17421
1.17424
1.17425
1.17425
1.17424
1.17422
1.17419
1.17415
1.1741
1.17405
1.17399
1.17392
1.17385
1.17378
1.1737
1.17362
1.17354
1.17346
1.17338
1.17329
1.17321
1.17313
1.17306
1.17298
1.17291
1.17284
1.17277
1.17271
1.17265
1.17259
1.17254
1.17249
1.17244
1.1724
1.17236
1.17233
1.1723
1.17227
1.17225
1.17224
1.17222
1.17222
1.17221
1.17221
1.17221
1.17222
1.17223
1.17224
1.17226
1.17228
1.1723
1.17233
1.17236
1.17239
1.17242
1.17246
1.17249
1.17253
1.17257
1.17261
1.17265
1.1727
1.17274
1.17279
1.17283
1.17288
1.17292
1.17297
1.17301
1.17306
1.1731
1.17314
1.17318
1.17323
1.17327
1.1733
1.17334
1.17338
1.17341
1.17345
1.17348
1.17351
1.17354
1.17357
1.1736
1.17362
1.17364
1.17367
1.17369
1.17371
1.17373
1.17375
1.17376
1.17378
1.1738
1.17381
1.17383
1.17384
1.17386
1.17388
1.1739
1.17391
1.17393
1.17395
1.17398
1.174
1.17403
1.17406
1.17409
1.17413
1.17417
1.17421
1.17426
1.17431
1.17436
1.17443
1.17449
1.17457
1.17465
1.17473
1.17483
1.17493
1.17503
1.17515
1.17527
1.17541
1.17555
1.1757
1.17586
1.17603
1.17621
1.1764
1.1766
1.17681
1.17703
1.17726
1.1775
1.17776
1.17802
1.1783
1.17858
1.17888
1.17919
1.1795
1.17983
1.18016
1.1805
1.18086
1.18121
1.18158
1.18195
1.18233
1.18271
1.18309
1.18348
1.18387
1.18426
1.18464
1.18503
1.18541
1.18579
1.18616
1.18653
1.18689
1.18724
1.18758
1.18792
1.18824
1.18856
1.18886
1.18916
1.18944
1.18971
1.18997
1.19022
1.19047
1.1907
1.19092
1.19113
1.19133
1.19152
1.19171
1.19188
1.19205
1.19221
1.19236
1.19251
1.19265
1.19278
1.19291
1.19303
1.19314
1.19325
1.19335
1.19344
1.19353
1.19361
1.19369
1.19375
1.19382
1.19387
1.19392
1.19396
1.194
1.19403
1.19405
1.19407
1.19408
1.19408
1.19408
1.19408
1.19407
1.19406
1.19405
1.19403
1.19402
1.194
1.19398
1.19397
1.19395
1.19394
1.19393
1.19393
1.19393
1.19394
1.19395
1.19397
1.19401
1.19405
1.1941
1.19417
1.19424
1.19434
1.19444
1.19457
1.19471
1.19486
1.19504
1.19524
1.19545
1.19569
1.19595
1.19624
1.19655
1.19688
1.19725
1.19764
1.19805
1.1985
1.19897
1.19948
1.20002
1.20059
1.20119
1.20183
1.20251
1.20322
1.20397
1.20476
1.2056
1.20648
1.2074
1.20837
1.2094
1.21048
1.21162
1.21283
1.21411
1.21547
1.21691
1.21844
1.22006
1.22178
1.22359
1.22546
1.22736
1.2292
1.23087
1.23222
1.23312
1.23342
1.23311
1.15708
1.15671
1.15657
1.15663
1.15685
1.15718
1.15756
1.15798
1.15838
1.15877
1.15913
1.15946
1.15975
1.16
1.16023
1.16043
1.16059
1.16074
1.16086
1.16097
1.16106
1.16113
1.16119
1.16123
1.16127
1.1613
1.16132
1.16133
1.16133
1.16133
1.16132
1.16131
1.1613
1.16128
1.16126
1.16124
1.16122
1.16119
1.16117
1.16114
1.16112
1.16109
1.16107
1.16105
1.16103
1.16101
1.161
1.16099
1.16098
1.16098
1.16099
1.16099
1.16101
1.16103
1.16106
1.16109
1.16113
1.16118
1.16124
1.16131
1.16138
1.16147
1.16157
1.16167
1.16179
1.16192
1.16205
1.1622
1.16236
1.16253
1.16271
1.16291
1.16311
1.16332
1.16354
1.16378
1.16402
1.16428
1.16454
1.16481
1.16509
1.16538
1.16567
1.16597
1.16628
1.16659
1.16691
1.16723
1.16755
1.16788
1.16821
1.16853
1.16886
1.16918
1.1695
1.16981
1.17012
1.17043
1.17073
1.17102
1.1713
1.17157
1.17183
1.17208
1.17232
1.17255
1.17277
1.17297
1.17316
1.17333
1.17349
1.17364
1.17377
1.17389
1.17399
1.17407
1.17414
1.1742
1.17423
1.17426
1.17427
1.17427
1.17426
1.17423
1.1742
1.17416
1.17411
1.17405
1.17399
1.17392
1.17385
1.17377
1.17369
1.17361
1.17353
1.17345
1.17336
1.17328
1.1732
1.17312
1.17304
1.17297
1.1729
1.17283
1.17276
1.1727
1.17264
1.17258
1.17253
1.17248
1.17243
1.17239
1.17236
1.17232
1.1723
1.17227
1.17225
1.17224
1.17222
1.17222
1.17221
1.17221
1.17222
1.17222
1.17223
1.17225
1.17227
1.17229
1.17231
1.17234
1.17236
1.17239
1.17243
1.17246
1.1725
1.17254
1.17258
1.17262
1.17266
1.17271
1.17275
1.17279
1.17284
1.17288
1.17293
1.17297
1.17302
1.17306
1.17311
1.17315
1.17319
1.17323
1.17327
1.17331
1.17335
1.17339
1.17342
1.17346
1.17349
1.17352
1.17355
1.17358
1.1736
1.17363
1.17365
1.17367
1.17369
1.17372
1.17373
1.17375
1.17377
1.17379
1.1738
1.17382
1.17383
1.17385
1.17387
1.17388
1.1739
1.17392
1.17394
1.17396
1.17398
1.17401
1.17403
1.17406
1.17409
1.17413
1.17417
1.17421
1.17426
1.17431
1.17436
1.17442
1.17449
1.17456
1.17464
1.17473
1.17482
1.17492
1.17502
1.17514
1.17526
1.17539
1.17553
1.17568
1.17584
1.17601
1.17619
1.17638
1.17658
1.17679
1.17701
1.17724
1.17748
1.17774
1.178
1.17828
1.17856
1.17886
1.17917
1.17949
1.17981
1.18015
1.18049
1.18085
1.18121
1.18158
1.18195
1.18233
1.18271
1.1831
1.18349
1.18388
1.18428
1.18467
1.18506
1.18544
1.18582
1.1862
1.18657
1.18693
1.18728
1.18763
1.18796
1.18829
1.18861
1.18891
1.1892
1.18948
1.18976
1.19002
1.19026
1.1905
1.19073
1.19095
1.19116
1.19136
1.19155
1.19173
1.1919
1.19207
1.19223
1.19238
1.19252
1.19266
1.19279
1.19292
1.19304
1.19315
1.19325
1.19335
1.19345
1.19353
1.19361
1.19369
1.19376
1.19382
1.19387
1.19392
1.19396
1.19399
1.19402
1.19404
1.19406
1.19407
1.19407
1.19407
1.19406
1.19405
1.19404
1.19402
1.194
1.19398
1.19396
1.19394
1.19392
1.19391
1.19389
1.19388
1.19387
1.19387
1.19387
1.19388
1.1939
1.19393
1.19397
1.19402
1.19408
1.19415
1.19424
1.19435
1.19446
1.1946
1.19475
1.19493
1.19512
1.19533
1.19557
1.19583
1.19611
1.19641
1.19675
1.1971
1.19749
1.1979
1.19834
1.19881
1.19932
1.19985
1.20041
1.20101
1.20164
1.20231
1.20301
1.20375
1.20453
1.20535
1.20621
1.20711
1.20806
1.20905
1.2101
1.2112
1.21235
1.21357
1.21485
1.21619
1.21761
1.21909
1.22063
1.22221
1.22381
1.22537
1.22683
1.2281
1.22907
1.22966
1.22982
1.22948
1.15783
1.15752
1.15736
1.15736
1.15749
1.1577
1.15798
1.15828
1.1586
1.15892
1.15921
1.15949
1.15975
1.15997
1.16018
1.16036
1.16052
1.16065
1.16077
1.16087
1.16096
1.16103
1.16109
1.16114
1.16117
1.1612
1.16122
1.16124
1.16124
1.16124
1.16124
1.16123
1.16122
1.16121
1.16119
1.16117
1.16115
1.16112
1.1611
1.16108
1.16105
1.16103
1.16101
1.16099
1.16097
1.16095
1.16094
1.16093
1.16092
1.16092
1.16093
1.16093
1.16095
1.16097
1.16099
1.16103
1.16107
1.16112
1.16118
1.16125
1.16132
1.16141
1.1615
1.16161
1.16172
1.16185
1.16199
1.16214
1.1623
1.16247
1.16265
1.16284
1.16305
1.16326
1.16349
1.16372
1.16397
1.16422
1.16448
1.16476
1.16504
1.16533
1.16562
1.16593
1.16624
1.16655
1.16687
1.1672
1.16753
1.16786
1.16819
1.16852
1.16884
1.16917
1.16949
1.16981
1.17013
1.17043
1.17073
1.17103
1.17131
1.17158
1.17185
1.1721
1.17234
1.17258
1.17279
1.173
1.17319
1.17337
1.17353
1.17367
1.17381
1.17392
1.17402
1.17411
1.17417
1.17423
1.17426
1.17429
1.17429
1.17429
1.17428
1.17425
1.17421
1.17417
1.17411
1.17405
1.17399
1.17392
1.17384
1.17376
1.17368
1.1736
1.17352
1.17344
1.17335
1.17327
1.17319
1.17311
1.17303
1.17296
1.17288
1.17282
1.17275
1.17269
1.17263
1.17257
1.17252
1.17247
1.17243
1.17239
1.17235
1.17232
1.17229
1.17227
1.17225
1.17224
1.17222
1.17222
1.17221
1.17222
1.17222
1.17223
1.17224
1.17225
1.17227
1.17229
1.17232
1.17234
1.17237
1.1724
1.17243
1.17247
1.17251
1.17255
1.17259