# vtk DataFile Version 2.0
LBE mesh
ASCII
DATASET STRUCTURED_POINTS
DIMENSIONS 400 100 1
ASPECT_RATIO 1 1 1
ORIGIN 0 0 0
POINT_DATA 40000
SCALARS rho double 1
LOOKUP_TABLE default
0.946925
0.9782
0.988166
0.99209
0.994475
0.99607
0.997118
0.997816
0.998307
0.998665
0.998933
0.999137
0.999296
0.99942
0.999521
0.999603
0.999672
0.999731
0.999785
0.999833
0.999879
0.999923
0.999968
1.00001
1.00006
1.00011
1.00016
1.00021
1.00027
1.00033
1.00039
1.00046
1.00053
1.0006
1.00068
1.00076
1.00084
1.00093
1.00102
1.00111
1.0012
1.00129
1.00138
1.00148
1.00157
1.00166
1.00175
1.00183
1.00191
1.00199
1.00207
1.00214
1.00221
1.00227
1.00233
1.00239
1.00244
1.00249
1.00254
1.00259
1.00264
1.0027
1.00275
1.00281
1.00288
1.00295
1.00302
1.00311
1.00321
1.00331
1.00343
1.00356
1.00371
1.00386
1.00403
1.00421
1.00441
1.00461
1.00483
1.00507
1.00531
1.00557
1.00584
1.00612
1.00641
1.0067
1.00701
1.00732
1.00765
1.00798
1.00831
1.00866
1.00901
1.00936
1.00972
1.01009
1.01046
1.01083
1.01121
1.01159
1.01198
1.01236
1.01275
1.01315
1.01354
1.01393
1.01433
1.01472
1.01511
1.0155
1.01589
1.01627
1.01666
1.01703
1.01741
1.01777
1.01814
1.0185
1.01885
1.0192
1.01954
1.01988
1.02022
1.02055
1.02088
1.02121
1.02153
1.02186
1.02218
1.0225
1.02282
1.02313
1.02345
1.02377
1.02409
1.02441
1.02472
1.02504
1.02536
1.02567
1.02598
1.0263
1.02661
1.02691
1.02722
1.02752
1.02782
1.02811
1.0284
1.02868
1.02896
1.02923
1.0295
1.02976
1.03002
1.03027
1.03051
1.03075
1.03098
1.0312
1.03143
1.03164
1.03185
1.03206
1.03226
1.03246
1.03266
1.03285
1.03303
1.03322
1.0334
1.03358
1.03376
1.03393
1.0341
1.03427
1.03444
1.0346
1.03475
1.03491
1.03506
1.03521
1.03535
1.03549
1.03563
1.03576
1.03589
1.03602
1.03614
1.03626
1.03638
1.0365
1.03661
1.03673
1.03684
1.03695
1.03706
1.03718
1.03729
1.0374
1.03752
1.03763
1.03775
1.03786
1.03798
1.0381
1.03822
1.03833
1.03845
1.03857
1.03868
1.03879
1.0389
1.039
1.03911
1.0392
1.0393
1.03938
1.03947
1.03954
1.03961
1.03968
1.03974
1.0398
1.03985
1.03989
1.03994
1.03997
1.04001
1.04004
1.04008
1.04011
1.04014
1.04018
1.04021
1.04025
1.04029
1.04034
1.04039
1.04045
1.04051
1.04058
1.04066
1.04075
1.04084
1.04095
1.04106
1.04118
1.04131
1.04145
1.04161
1.04177
1.04195
1.04214
1.04234
1.04256
1.04279
1.04303
1.04329
1.04356
1.04385
1.04415
1.04447
1.04481
1.04515
1.04551
1.04589
1.04628
1.04668
1.04709
1.04751
1.04794
1.04837
1.04881
1.04926
1.0497
1.05015
1.05059
1.05104
1.05147
1.0519
1.05232
1.05274
1.05314
1.05353
1.05392
1.05428
1.05464
1.05498
1.05531
1.05563
1.05594
1.05624
1.05653
1.0568
1.05707
1.05734
1.0576
1.05785
1.0581
1.05835
1.0586
1.05885
1.0591
1.05935
1.05961
1.05987
1.06013
1.0604
1.06067
1.06095
1.06123
1.06152
1.06181
1.06211
1.0624
1.0627
1.063
1.0633
1.0636
1.0639
1.06419
1.06449
1.06477
1.06505
1.06533
1.0656
1.06586
1.06611
1.06636
1.06659
1.06682
1.06704
1.06724
1.06744
1.06762
1.0678
1.06796
1.06812
1.06826
1.06839
1.06852
1.06863
1.06874
1.06884
1.06893
1.06901
1.06909
1.06916
1.06922
1.06928
1.06934
1.0694
1.06945
1.06951
1.06956
1.06962
1.06968
1.06974
1.06981
1.06989
1.06997
1.07006
1.07017
1.07029
1.07043
1.07058
1.07076
1.07096
1.07118
1.07144
1.07172
1.07205
1.07241
1.07282
1.07327
1.07378
1.07434
1.07497
1.07566
1.07642
1.07726
1.07819
1.07921
1.08032
1.08155
1.0829
1.0844
1.08605
1.08789
1.08996
1.09231
1.09502
1.09821
1.10204
1.10696
1.11397
1.12396
1.13597
1.1548
0.959987
0.974061
0.983684
0.98948
0.992683
0.994627
0.995934
0.996858
0.997525
0.998016
0.998387
0.998671
0.998895
0.999073
0.999219
0.999338
0.99944
0.999526
0.999603
0.999672
0.999737
0.999797
0.999856
0.999913
0.999971
1.00003
1.00009
1.00015
1.00022
1.00028
1.00035
1.00042
1.0005
1.00058
1.00066
1.00074
1.00083
1.00092
1.00101
1.0011
1.0012
1.00129
1.00138
1.00148
1.00157
1.00166
1.00175
1.00184
1.00192
1.002
1.00208
1.00215
1.00222
1.00228
1.00234
1.0024
1.00246
1.00251
1.00256
1.00261
1.00267
1.00272
1.00278
1.00284
1.00291
1.00298
1.00306
1.00315
1.00325
1.00336
1.00348
1.00361
1.00375
1.00391
1.00408
1.00426
1.00446
1.00467
1.00489
1.00512
1.00537
1.00562
1.00589
1.00617
1.00645
1.00675
1.00706
1.00737
1.00769
1.00802
1.00835
1.0087
1.00904
1.0094
1.00976
1.01012
1.01049
1.01086
1.01124
1.01162
1.012
1.01239
1.01278
1.01317
1.01356
1.01395
1.01435
1.01474
1.01513
1.01552
1.01591
1.01629
1.01667
1.01705
1.01742
1.01779
1.01815
1.01851
1.01886
1.01921
1.01956
1.0199
1.02023
1.02057
1.0209
1.02122
1.02155
1.02187
1.02219
1.02251
1.02283
1.02315
1.02347
1.02379
1.02411
1.02443
1.02475
1.02506
1.02538
1.0257
1.02601
1.02632
1.02664
1.02694
1.02725
1.02755
1.02785
1.02815
1.02844
1.02872
1.029
1.02928
1.02954
1.02981
1.03006
1.03031
1.03056
1.0308
1.03103
1.03126
1.03148
1.0317
1.03191
1.03212
1.03232
1.03252
1.03271
1.03291
1.03309
1.03328
1.03346
1.03364
1.03382
1.03399
1.03416
1.03433
1.03449
1.03465
1.03481
1.03496
1.03511
1.03526
1.0354
1.03554
1.03568
1.03581
1.03594
1.03607
1.03619
1.03631
1.03643
1.03655
1.03666
1.03678
1.03689
1.037
1.03711
1.03723
1.03734
1.03745
1.03757
1.03768
1.0378
1.03792
1.03803
1.03815
1.03827
1.03838
1.0385
1.03862
1.03873
1.03884
1.03895
1.03905
1.03915
1.03925
1.03934
1.03943
1.03951
1.03959
1.03966
1.03972
1.03979
1.03984
1.03989
1.03994
1.03998
1.04002
1.04006
1.04009
1.04012
1.04016
1.04019
1.04023
1.04026
1.0403
1.04035
1.0404
1.04045
1.04051
1.04057
1.04064
1.04072
1.04081
1.04091
1.04101
1.04112
1.04125
1.04138
1.04152
1.04168
1.04185
1.04202
1.04221
1.04242
1.04263
1.04286
1.04311
1.04337
1.04364
1.04393
1.04423
1.04455
1.04488
1.04523
1.04559
1.04596
1.04635
1.04675
1.04716
1.04757
1.048
1.04843
1.04887
1.04931
1.04975
1.0502
1.05064
1.05108
1.05151
1.05194
1.05236
1.05277
1.05317
1.05355
1.05393
1.0543
1.05465
1.05499
1.05532
1.05564
1.05594
1.05624
1.05652
1.0568
1.05707
1.05733
1.05759
1.05784
1.05809
1.05834
1.05859
1.05884
1.05909
1.05935
1.0596
1.05986
1.06013
1.0604
1.06067
1.06095
1.06124
1.06152
1.06182
1.06211
1.06241
1.06271
1.06301
1.06331
1.0636
1.0639
1.0642
1.06449
1.06477
1.06506
1.06533
1.0656
1.06586
1.06611
1.06636
1.0666
1.06682
1.06704
1.06725
1.06744
1.06763
1.0678
1.06797
1.06813
1.06827
1.06841
1.06853
1.06865
1.06876
1.06886
1.06895
1.06903
1.06911
1.06918
1.06925
1.06932
1.06938
1.06943
1.06949
1.06955
1.0696
1.06966
1.06972
1.06979
1.06986
1.06994
1.07003
1.07012
1.07023
1.07035
1.07049
1.07065
1.07083
1.07103
1.07126
1.07152
1.07181
1.07214
1.07251
1.07292
1.07339
1.0739
1.07447
1.07511
1.07581
1.07659
1.07744
1.07838
1.07942
1.08056
1.08181
1.08319
1.08472
1.08642
1.08832
1.09046
1.09291
1.09575
1.09913
1.10329
1.10851
1.11513
1.12447
1.14151
1.16993
0.976358
0.979258
0.984548
0.988744
0.991623
0.993658
0.995102
0.99614
0.996906
0.997485
0.99793
0.998278
0.998555
0.998777
0.99896
0.999112
0.999241
0.999352
0.99945
0.999538
0.999619
0.999694
0.999766
0.999835
0.999904
0.999972
1.00004
1.00011
1.00018
1.00025
1.00033
1.00041
1.00049
1.00057
1.00066
1.00074
1.00084
1.00093
1.00102
1.00112
1.00121
1.00131
1.0014
1.0015
1.00159
1.00169
1.00178
1.00186
1.00195
1.00203
1.0021
1.00218
1.00225
1.00231
1.00238
1.00243
1.00249
1.00255
1.0026
1.00266
1.00271
1.00277
1.00283
1.00289
1.00296
1.00304
1.00312
1.00321
1.00331
1.00342
1.00354
1.00368
1.00382
1.00398
1.00415
1.00433
1.00453
1.00473
1.00496
1.00519
1.00543
1.00569
1.00595
1.00623
1.00651
1.00681
1.00711
1.00742
1.00774
1.00807
1.0084
1.00874
1.00909
1.00944
1.0098
1.01016
1.01053
1.0109
1.01128
1.01166
1.01204
1.01243
1.01282
1.01321
1.0136
1.01399
1.01439
1.01478
1.01517
1.01556
1.01595
1.01633
1.01671
1.01709
1.01746
1.01783
1.01819
1.01855
1.0189
1.01925
1.0196
1.01994
1.02028
1.02061
1.02094
1.02127
1.0216
1.02192
1.02224
1.02256
1.02288
1.0232
1.02352
1.02384
1.02416
1.02448
1.0248
1.02512
1.02544
1.02576
1.02608
1.02639
1.0267
1.02701
1.02732
1.02763
1.02793
1.02822
1.02851
1.0288
1.02908
1.02936
1.02963
1.0299
1.03015
1.03041
1.03065
1.03089
1.03113
1.03136
1.03158
1.0318
1.03201
1.03222
1.03242
1.03262
1.03282
1.03301
1.0332
1.03338
1.03356
1.03374
1.03392
1.03409
1.03426
1.03443
1.03459
1.03475
1.03491
1.03506
1.03521
1.03535
1.0355
1.03564
1.03577
1.03591
1.03603
1.03616
1.03628
1.03641
1.03652
1.03664
1.03676
1.03687
1.03698
1.0371
1.03721
1.03732
1.03744
1.03755
1.03767
1.03778
1.0379
1.03802
1.03813
1.03825
1.03837
1.03849
1.0386
1.03872
1.03883
1.03894
1.03905
1.03915
1.03925
1.03935
1.03944
1.03952
1.03961
1.03968
1.03975
1.03982
1.03988
1.03993
1.03998
1.04003
1.04007
1.04011
1.04015
1.04018
1.04022
1.04025
1.04029
1.04032
1.04036
1.0404
1.04045
1.0405
1.04055
1.04061
1.04068
1.04075
1.04083
1.04092
1.04101
1.04112
1.04123
1.04136
1.04149
1.04164
1.04179
1.04196
1.04214
1.04233
1.04253
1.04275
1.04298
1.04322
1.04348
1.04376
1.04404
1.04434
1.04466
1.04499
1.04534
1.0457
1.04607
1.04645
1.04685
1.04725
1.04767
1.04809
1.04852
1.04896
1.0494
1.04983
1.05027
1.05071
1.05115
1.05157
1.052
1.05241
1.05282
1.05321
1.0536
1.05397
1.05433
1.05468
1.05502
1.05535
1.05566
1.05597
1.05626
1.05654
1.05682
1.05709
1.05735
1.0576
1.05786
1.05811
1.05836
1.05861
1.05886
1.05911
1.05936
1.05962
1.05988
1.06015
1.06042
1.0607
1.06098
1.06126
1.06155
1.06184
1.06214
1.06244
1.06273
1.06303
1.06334
1.06363
1.06393
1.06423
1.06452
1.0648
1.06509
1.06536
1.06563
1.06589
1.06615
1.06639
1.06663
1.06685
1.06707
1.06728
1.06748
1.06766
1.06784
1.06801
1.06817
1.06831
1.06845
1.06858
1.0687
1.06881
1.06891
1.069
1.06909
1.06917
1.06924
1.06931
1.06938
1.06944
1.0695
1.06956
1.06962
1.06968
1.06974
1.0698
1.06987
1.06994
1.07002
1.07011
1.07021
1.07032
1.07044
1.07058
1.07074
1.07092
1.07112
1.07135
1.07161
1.0719
1.07223
1.07261
1.07302
1.07349
1.07401
1.07458
1.07522
1.07593
1.07671
1.07757
1.07852
1.07956
1.08071
1.08197
1.08336
1.0849
1.08662
1.08853
1.09068
1.09314
1.09598
1.09932
1.10332
1.10831
1.11477
1.12273
1.13133
1.14087
0.985141
0.984796
0.986875
0.989378
0.99162
0.993369
0.994697
0.995715
0.996502
0.997116
0.997599
0.997983
0.998294
0.998548
0.998758
0.998935
0.999086
0.999216
0.999332
0.999435
0.99953
0.999618
0.999702
0.999781
0.99986
0.999937
1.00001
1.00009
1.00017
1.00025
1.00033
1.00041
1.0005
1.00059
1.00068
1.00077
1.00086
1.00095
1.00105
1.00115
1.00125
1.00134
1.00144
1.00154
1.00163
1.00173
1.00182
1.00191
1.00199
1.00207
1.00215
1.00222
1.0023
1.00236
1.00243
1.00249
1.00255
1.0026
1.00266
1.00272
1.00278
1.00283
1.0029
1.00296
1.00304
1.00311
1.0032
1.00329
1.00339
1.00351
1.00363
1.00376
1.00391
1.00407
1.00424
1.00442
1.00461
1.00482
1.00504
1.00527
1.00551
1.00576
1.00603
1.0063
1.00658
1.00688
1.00718
1.00749
1.00781
1.00813
1.00846
1.0088
1.00915
1.0095
1.00985
1.01022
1.01058
1.01096
1.01133
1.01171
1.0121
1.01248
1.01287
1.01326
1.01366
1.01405
1.01444
1.01484
1.01523
1.01562
1.01601
1.01639
1.01678
1.01715
1.01753
1.0179
1.01826
1.01862
1.01898
1.01933
1.01967
1.02001
1.02035
1.02069
1.02102
1.02135
1.02167
1.022
1.02232
1.02264
1.02297
1.02329
1.02361
1.02393
1.02425
1.02457
1.02489
1.02521
1.02554
1.02585
1.02617
1.02649
1.0268
1.02712
1.02743
1.02773
1.02804
1.02834
1.02863
1.02892
1.02921
1.02948
1.02976
1.03002
1.03029
1.03054
1.03079
1.03103
1.03127
1.0315
1.03172
1.03194
1.03216
1.03236
1.03257
1.03277
1.03296
1.03316
1.03334
1.03353
1.03371
1.03389
1.03406
1.03423
1.0344
1.03457
1.03473
1.03489
1.03505
1.0352
1.03535
1.03549
1.03564
1.03577
1.03591
1.03604
1.03617
1.0363
1.03642
1.03654
1.03666
1.03678
1.0369
1.03701
1.03712
1.03724
1.03735
1.03747
1.03758
1.0377
1.03781
1.03793
1.03804
1.03816
1.03828
1.0384
1.03851
1.03863
1.03875
1.03886
1.03897
1.03908
1.03919
1.03929
1.03939
1.03949
1.03958
1.03966
1.03975
1.03982
1.03989
1.03995
1.04001
1.04007
1.04012
1.04017
1.04021
1.04025
1.04029
1.04032
1.04036
1.04039
1.04043
1.04047
1.0405
1.04055
1.04059
1.04064
1.0407
1.04076
1.04083
1.0409
1.04098
1.04107
1.04117
1.04127
1.04139
1.04151
1.04165
1.04179
1.04195
1.04211
1.04229
1.04248
1.04269
1.0429
1.04313
1.04338
1.04363
1.0439
1.04419
1.04449
1.04481
1.04514
1.04548
1.04584
1.0462
1.04659
1.04698
1.04738
1.04779
1.04821
1.04864
1.04907
1.0495
1.04994
1.05037
1.05081
1.05124
1.05166
1.05208
1.05249
1.05289
1.05328
1.05366
1.05403
1.05439
1.05474
1.05507
1.05539
1.05571
1.05601
1.0563
1.05658
1.05685
1.05712
1.05738
1.05764
1.05789
1.05814
1.05839
1.05864
1.05889
1.05914
1.0594
1.05966
1.05992
1.06019
1.06046
1.06074
1.06102
1.06131
1.0616
1.06189
1.06219
1.06249
1.06279
1.06309
1.06339
1.06369
1.06399
1.06428
1.06458
1.06486
1.06514
1.06542
1.06569
1.06595
1.06621
1.06645
1.06669
1.06692
1.06713
1.06734
1.06754
1.06773
1.06791
1.06808
1.06824
1.06838
1.06852
1.06865
1.06877
1.06889
1.06899
1.06909
1.06918
1.06926
1.06934
1.06941
1.06948
1.06954
1.0696
1.06966
1.06972
1.06978
1.06985
1.06991
1.06998
1.07005
1.07013
1.07022
1.07031
1.07042
1.07055
1.07069
1.07084
1.07102
1.07122
1.07145
1.07171
1.072
1.07233
1.0727
1.07311
1.07358
1.07409
1.07467
1.0753
1.07601
1.07679
1.07764
1.07859
1.07963
1.08077
1.08203
1.08341
1.08494
1.08664
1.08852
1.09063
1.09302
1.09574
1.09889
1.10256
1.10683
1.11177
1.11736
1.12188
1.12222
0.989028
0.988553
0.989371
0.99072
0.992198
0.993528
0.994651
0.995568
0.996309
0.996907
0.997393
0.997789
0.998116
0.998387
0.998614
0.998808
0.998974
0.99912
0.999249
0.999365
0.999471
0.99957
0.999663
0.999753
0.99984
0.999924
1.00001
1.00009
1.00018
1.00026
1.00035
1.00044
1.00053
1.00062
1.00071
1.00081
1.00091
1.001
1.0011
1.0012
1.0013
1.0014
1.0015
1.0016
1.00169
1.00179
1.00188
1.00197
1.00206
1.00214
1.00222
1.00229
1.00237
1.00243
1.0025
1.00256
1.00262
1.00268
1.00274
1.0028
1.00286
1.00292
1.00299
1.00306
1.00313
1.00321
1.0033
1.00339
1.0035
1.00361
1.00373
1.00387
1.00401
1.00417
1.00434
1.00452
1.00471
1.00492
1.00514
1.00536
1.0056
1.00585
1.00611
1.00638
1.00667
1.00696
1.00725
1.00756
1.00788
1.0082
1.00853
1.00887
1.00921
1.00956
1.00992
1.01028
1.01065
1.01102
1.0114
1.01178
1.01216
1.01255
1.01294
1.01333
1.01373
1.01412
1.01452
1.01491
1.01531
1.0157
1.01609
1.01648
1.01686
1.01724
1.01762
1.01799
1.01836
1.01872
1.01907
1.01943
1.01977
1.02012
1.02046
1.02079
1.02112
1.02145
1.02178
1.02211
1.02243
1.02276
1.02308
1.0234
1.02373
1.02405
1.02437
1.02469
1.02502
1.02534
1.02566
1.02598
1.0263
1.02662
1.02694
1.02726
1.02757
1.02788
1.02819
1.02849
1.02878
1.02908
1.02936
1.02965
1.02992
1.03019
1.03046
1.03071
1.03096
1.03121
1.03145
1.03168
1.03191
1.03213
1.03234
1.03255
1.03276
1.03296
1.03315
1.03334
1.03353
1.03372
1.0339
1.03407
1.03425
1.03442
1.03459
1.03475
1.03491
1.03507
1.03523
1.03538
1.03553
1.03567
1.03581
1.03595
1.03609
1.03622
1.03635
1.03648
1.0366
1.03672
1.03684
1.03696
1.03708
1.03719
1.03731
1.03742
1.03754
1.03765
1.03777
1.03788
1.038
1.03811
1.03823
1.03835
1.03847
1.03859
1.0387
1.03882
1.03894
1.03905
1.03916
1.03927
1.03938
1.03948
1.03958
1.03967
1.03976
1.03985
1.03993
1.04
1.04007
1.04014
1.0402
1.04025
1.0403
1.04035
1.04039
1.04043
1.04047
1.04051
1.04054
1.04058
1.04061
1.04065
1.04069
1.04073
1.04078
1.04083
1.04089
1.04095
1.04102
1.04109
1.04117
1.04126
1.04136
1.04147
1.04158
1.04171
1.04184
1.04199
1.04214
1.04231
1.04249
1.04268
1.04288
1.04309
1.04332
1.04356
1.04382
1.04409
1.04437
1.04467
1.04499
1.04531
1.04565
1.04601
1.04637
1.04675
1.04714
1.04754
1.04795
1.04836
1.04879
1.04921
1.04964
1.05007
1.0505
1.05093
1.05136
1.05178
1.05219
1.05259
1.05299
1.05338
1.05375
1.05412
1.05447
1.05481
1.05514
1.05546
1.05577
1.05607
1.05636
1.05663
1.05691
1.05717
1.05743
1.05769
1.05794
1.05819
1.05844
1.05869
1.05894
1.0592
1.05945
1.05972
1.05998
1.06025
1.06053
1.0608
1.06109
1.06138
1.06167
1.06196
1.06226
1.06256
1.06287
1.06317
1.06347
1.06377
1.06407
1.06437
1.06466
1.06495
1.06523
1.06551
1.06578
1.06604
1.06629
1.06654
1.06678
1.06701
1.06723
1.06744
1.06764
1.06783
1.06801
1.06818
1.06834
1.06849
1.06863
1.06876
1.06888
1.069
1.06911
1.0692
1.0693
1.06938
1.06946
1.06954
1.06961
1.06967
1.06974
1.0698
1.06986
1.06992
1.06998
1.07005
1.07012
1.07019
1.07027
1.07035
1.07045
1.07056
1.07068
1.07081
1.07097
1.07114
1.07134
1.07157
1.07182
1.07211
1.07243
1.0728
1.0732
1.07366
1.07417
1.07474
1.07537
1.07606
1.07683
1.07768
1.07861
1.07964
1.08076
1.082
1.08336
1.08485
1.0865
1.08832
1.09034
1.09259
1.09511
1.09794
1.10111
1.10459
1.10816
1.11138
1.11367
1.11306
0.99141
0.991098
0.991389
0.992114
0.99305
0.994008
0.994889
0.995658
0.996311
0.996861
0.997322
0.997707
0.998032
0.998306
0.99854
0.998741
0.998916
0.999071
0.999209
0.999334
0.999448
0.999555
0.999656
0.999753
0.999847
0.999938
1.00003
1.00012
1.00021
1.0003
1.00039
1.00048
1.00058
1.00067
1.00077
1.00087
1.00097
1.00107
1.00117
1.00127
1.00137
1.00147
1.00157
1.00167
1.00177
1.00187
1.00196
1.00205
1.00214
1.00222
1.0023
1.00238
1.00245
1.00252
1.00259
1.00266
1.00272
1.00278
1.00284
1.0029
1.00297
1.00303
1.0031
1.00317
1.00325
1.00333
1.00342
1.00351
1.00362
1.00373
1.00386
1.00399
1.00414
1.00429
1.00446
1.00464
1.00483
1.00503
1.00525
1.00547
1.00571
1.00595
1.00621
1.00648
1.00676
1.00704
1.00734
1.00764
1.00795
1.00827
1.0086
1.00894
1.00928
1.00963
1.00999
1.01035
1.01072
1.01109
1.01147
1.01185
1.01224
1.01263
1.01302
1.01341
1.01381
1.01421
1.01461
1.01501
1.01541
1.0158
1.0162
1.01659
1.01697
1.01736
1.01774
1.01811
1.01848
1.01884
1.0192
1.01955
1.0199
1.02025
1.02059
1.02092
1.02126
1.02159
1.02192
1.02225
1.02257
1.0229
1.02322
1.02355
1.02387
1.0242
1.02452
1.02484
1.02517
1.02549
1.02582
1.02614
1.02647
1.02679
1.02711
1.02743
1.02774
1.02806
1.02837
1.02867
1.02897
1.02927
1.02956
1.02984
1.03012
1.03039
1.03066
1.03092
1.03118
1.03142
1.03166
1.0319
1.03212
1.03235
1.03256
1.03277
1.03298
1.03318
1.03338
1.03357
1.03375
1.03394
1.03412
1.0343
1.03447
1.03464
1.03481
1.03497
1.03513
1.03529
1.03544
1.03559
1.03574
1.03588
1.03603
1.03616
1.0363
1.03643
1.03656
1.03669
1.03681
1.03694
1.03706
1.03717
1.03729
1.03741
1.03753
1.03764
1.03776
1.03787
1.03799
1.03811
1.03822
1.03834
1.03846
1.03858
1.0387
1.03881
1.03893
1.03905
1.03916
1.03928
1.03939
1.0395
1.0396
1.03971
1.0398
1.0399
1.03999
1.04007
1.04015
1.04022
1.04029
1.04036
1.04042
1.04047
1.04052
1.04057
1.04061
1.04065
1.04069
1.04073
1.04076
1.0408
1.04084
1.04088
1.04092
1.04096
1.04101
1.04106
1.04112
1.04118
1.04125
1.04133
1.04141
1.0415
1.04159
1.0417
1.04182
1.04194
1.04207
1.04222
1.04237
1.04254
1.04272
1.0429
1.04311
1.04332
1.04355
1.04379
1.04404
1.04431
1.04459
1.04488
1.04519
1.04552
1.04586
1.04621
1.04657
1.04694
1.04733
1.04772
1.04813
1.04854
1.04895
1.04938
1.0498
1.05023
1.05065
1.05107
1.05149
1.05191
1.05232
1.05272
1.05311
1.05349
1.05386
1.05422
1.05457
1.05491
1.05523
1.05555
1.05585
1.05615
1.05643
1.05671
1.05698
1.05724
1.0575
1.05775
1.058
1.05825
1.05851
1.05876
1.05901
1.05927
1.05952
1.05979
1.06005
1.06033
1.0606
1.06089
1.06117
1.06146
1.06176
1.06206
1.06236
1.06266
1.06296
1.06327
1.06357
1.06387
1.06418
1.06447
1.06477
1.06506
1.06534
1.06562
1.06589
1.06615
1.06641
1.06666
1.06689
1.06713
1.06735
1.06756
1.06776
1.06795
1.06813
1.06831
1.06847
1.06862
1.06876
1.0689
1.06902
1.06914
1.06925
1.06935
1.06945
1.06953
1.06962
1.06969
1.06976
1.06983
1.0699
1.06996
1.07002
1.07009
1.07015
1.07021
1.07028
1.07035
1.07043
1.07051
1.07061
1.07071
1.07083
1.07096
1.07111
1.07128
1.07147
1.07169
1.07194
1.07222
1.07253
1.07289
1.07329
1.07373
1.07423
1.07479
1.0754
1.07609
1.07684
1.07767
1.07858
1.07958
1.08068
1.08188
1.0832
1.08464
1.08622
1.08795
1.08984
1.09192
1.09419
1.09665
1.09927
1.10195
1.10449
1.10645
1.10749
1.10724
0.993161
0.992869
0.992952
0.99336
0.993952
0.99462
0.995286
0.995904
0.996457
0.99694
0.997358
0.997718
0.998027
0.998294
0.998526
0.998728
0.998906
0.999064
0.999207
0.999338
0.999458
0.999571
0.999678
0.99978
0.999879
0.999976
1.00007
1.00017
1.00026
1.00036
1.00045
1.00055
1.00065
1.00075
1.00085
1.00095
1.00105
1.00115
1.00126
1.00136
1.00147
1.00157
1.00167
1.00177
1.00187
1.00197
1.00206
1.00215
1.00224
1.00233
1.00241
1.00249
1.00256
1.00263
1.0027
1.00277
1.00284
1.0029
1.00297
1.00303
1.0031
1.00316
1.00323
1.00331
1.00338
1.00347
1.00356
1.00366
1.00376
1.00388
1.004
1.00413
1.00428
1.00443
1.0046
1.00478
1.00496
1.00516
1.00537
1.00559
1.00583
1.00607
1.00632
1.00658
1.00686
1.00714
1.00743
1.00773
1.00804
1.00836
1.00868
1.00902
1.00936
1.00971
1.01006
1.01042
1.01079
1.01117
1.01155
1.01193
1.01232
1.01271
1.01311
1.01351
1.01391
1.01431
1.01471
1.01512
1.01552
1.01592
1.01632
1.01671
1.0171
1.01749
1.01787
1.01825
1.01862
1.01899
1.01935
1.0197
1.02006
1.0204
1.02074
1.02108
1.02142
1.02175
1.02208
1.02241
1.02274
1.02307
1.02339
1.02372
1.02405
1.02437
1.0247
1.02503
1.02535
1.02568
1.02601
1.02633
1.02666
1.02699
1.02731
1.02763
1.02795
1.02827
1.02858
1.02889
1.02919
1.02949
1.02978
1.03007
1.03035
1.03063
1.0309
1.03116
1.03142
1.03167
1.03191
1.03215
1.03238
1.0326
1.03282
1.03303
1.03323
1.03344
1.03363
1.03382
1.03401
1.03419
1.03437
1.03455
1.03472
1.03489
1.03506
1.03522
1.03538
1.03554
1.03569
1.03584
1.03599
1.03613
1.03627
1.03641
1.03655
1.03668
1.03681
1.03694
1.03706
1.03718
1.0373
1.03742
1.03754
1.03766
1.03778
1.0379
1.03801
1.03813
1.03825
1.03836
1.03848
1.0386
1.03872
1.03884
1.03896
1.03908
1.0392
1.03931
1.03943
1.03954
1.03965
1.03976
1.03987
1.03997
1.04007
1.04016
1.04025
1.04033
1.04041
1.04048
1.04055
1.04061
1.04067
1.04073
1.04078
1.04082
1.04087
1.04091
1.04095
1.04099
1.04102
1.04106
1.0411
1.04114
1.04118
1.04123
1.04128
1.04133
1.04139
1.04145
1.04152
1.0416
1.04168
1.04177
1.04187
1.04197
1.04209
1.04221
1.04234
1.04249
1.04264
1.04281
1.04298
1.04317
1.04337
1.04358
1.04381
1.04404
1.04429
1.04456
1.04484
1.04513
1.04544
1.04576
1.04609
1.04643
1.04679
1.04716
1.04754
1.04793
1.04833
1.04874
1.04915
1.04957
1.04999
1.05041
1.05083
1.05124
1.05166
1.05206
1.05247
1.05286
1.05325
1.05362
1.05399
1.05434
1.05469
1.05502
1.05534
1.05565
1.05595
1.05624
1.05652
1.05679
1.05706
1.05732
1.05758
1.05783
1.05808
1.05833
1.05858
1.05884
1.05909
1.05935
1.05961
1.05987
1.06014
1.06042
1.0607
1.06098
1.06127
1.06157
1.06187
1.06217
1.06247
1.06278
1.06308
1.06339
1.0637
1.064
1.0643
1.0646
1.0649
1.06519
1.06547
1.06575
1.06603
1.06629
1.06655
1.0668
1.06704
1.06727
1.06749
1.06771
1.06791
1.0681
1.06829
1.06846
1.06863
1.06878
1.06893
1.06907
1.06919
1.06931
1.06943
1.06953
1.06963
1.06972
1.0698
1.06988
1.06996
1.07003
1.07009
1.07016
1.07022
1.07028
1.07034
1.07041
1.07047
1.07054
1.07062
1.0707
1.07079
1.07089
1.071
1.07113
1.07128
1.07144
1.07162
1.07184
1.07207
1.07234
1.07265
1.07299
1.07338
1.07381
1.0743
1.07483
1.07543
1.0761
1.07683
1.07763
1.07852
1.07949
1.08055
1.08171
1.08297
1.08434
1.08583
1.08745
1.0892
1.09108
1.09308
1.09518
1.09732
1.09936
1.10113
1.1024
1.10291
1.1027
0.994494
0.994224
0.994223
0.994448
0.994826
0.995291
0.995784
0.996269
0.996722
0.997133
0.9975
0.997824
0.998109
0.99836
0.998581
0.998777
0.998953
0.99911
0.999254
0.999386
0.999509
0.999624
0.999735
0.99984
0.999943
1.00004
1.00014
1.00024
1.00034
1.00044
1.00054
1.00064
1.00074
1.00084
1.00095
1.00105
1.00115
1.00126
1.00136
1.00147
1.00157
1.00168
1.00178
1.00188
1.00198
1.00208
1.00218
1.00227
1.00236
1.00245
1.00253
1.00261
1.00269
1.00276
1.00283
1.0029
1.00297
1.00304
1.0031
1.00317
1.00324
1.00331
1.00338
1.00346
1.00354
1.00362
1.00372
1.00381
1.00392
1.00403
1.00416
1.00429
1.00443
1.00459
1.00475
1.00492
1.00511
1.0053
1.00551
1.00573
1.00595
1.00619
1.00644
1.0067
1.00696
1.00724
1.00753
1.00783
1.00813
1.00845
1.00877
1.0091
1.00944
1.00979
1.01014
1.0105
1.01087
1.01125
1.01163
1.01202
1.01241
1.01281
1.01321
1.01361
1.01401
1.01442
1.01483
1.01524
1.01565
1.01605
1.01645
1.01685
1.01725
1.01764
1.01803
1.01841
1.01879
1.01915
1.01952
1.01988
1.02023
1.02058
1.02093
1.02127
1.02161
1.02194
1.02227
1.0226
1.02293
1.02326
1.02359
1.02392
1.02425
1.02458
1.0249
1.02523
1.02556
1.02589
1.02622
1.02655
1.02688
1.02721
1.02753
1.02786
1.02818
1.0285
1.02882
1.02913
1.02944
1.02974
1.03004
1.03033
1.03061
1.03089
1.03117
1.03143
1.03169
1.03194
1.03219
1.03242
1.03266
1.03288
1.0331
1.03331
1.03352
1.03372
1.03392
1.03411
1.03429
1.03448
1.03466
1.03483
1.035
1.03517
1.03534
1.0355
1.03566
1.03581
1.03596
1.03611
1.03626
1.0364
1.03655
1.03668
1.03682
1.03695
1.03708
1.03721
1.03733
1.03746
1.03758
1.0377
1.03782
1.03794
1.03806
1.03818
1.03829
1.03841
1.03853
1.03865
1.03877
1.03889
1.03901
1.03913
1.03925
1.03937
1.03949
1.03961
1.03972
1.03984
1.03995
1.04005
1.04016
1.04026
1.04036
1.04045
1.04054
1.04062
1.0407
1.04077
1.04084
1.0409
1.04096
1.04101
1.04106
1.04111
1.04116
1.0412
1.04124
1.04128
1.04132
1.04135
1.04139
1.04143
1.04148
1.04152
1.04157
1.04163
1.04169
1.04175
1.04182
1.0419
1.04198
1.04207
1.04217
1.04227
1.04239
1.04251
1.04265
1.04279
1.04294
1.0431
1.04328
1.04346
1.04366
1.04387
1.04409
1.04433
1.04457
1.04484
1.04511
1.0454
1.0457
1.04602
1.04635
1.04669
1.04704
1.0474
1.04778
1.04816
1.04856
1.04896
1.04936
1.04978
1.05019
1.0506
1.05102
1.05143
1.05183
1.05224
1.05263
1.05302
1.0534
1.05377
1.05413
1.05448
1.05482
1.05514
1.05546
1.05576
1.05606
1.05635
1.05662
1.05689
1.05716
1.05742
1.05767
1.05792
1.05817
1.05842
1.05867
1.05893
1.05918
1.05944
1.0597
1.05997
1.06025
1.06052
1.06081
1.0611
1.06139
1.06169
1.06199
1.06229
1.0626
1.06291
1.06322
1.06353
1.06384
1.06414
1.06445
1.06475
1.06505
1.06534
1.06563
1.06591
1.06618
1.06645
1.06671
1.06696
1.06721
1.06744
1.06766
1.06788
1.06809
1.06828
1.06847
1.06865
1.06881
1.06897
1.06912
1.06926
1.06939
1.06951
1.06963
1.06974
1.06983
1.06993
1.07001
1.0701
1.07017
1.07024
1.07031
1.07038
1.07044
1.0705
1.07056
1.07063
1.07069
1.07076
1.07083
1.07091
1.071
1.07109
1.0712
1.07132
1.07146
1.07161
1.07179
1.07199
1.07222
1.07248
1.07277
1.0731
1.07347
1.07389
1.07435
1.07487
1.07545
1.07609
1.07679
1.07757
1.07842
1.07935
1.08037
1.08147
1.08267
1.08397
1.08536
1.08686
1.08845
1.09014
1.09189
1.09366
1.09538
1.09695
1.09822
1.09906
1.09933
1.09903
0.995548
0.995311
0.995266
0.995383
0.995626
0.995949
0.996312
0.996686
0.997051
0.997393
0.997708
0.997993
0.99825
0.99848
0.998687
0.998873
0.999041
0.999194
0.999336
0.999467
0.99959
0.999707
0.999819
0.999927
1.00003
1.00014
1.00024
1.00034
1.00044
1.00054
1.00065
1.00075
1.00085
1.00096
1.00106
1.00117
1.00128
1.00138
1.00149
1.0016
1.0017
1.00181
1.00191
1.00202
1.00212
1.00222
1.00231
1.00241
1.0025
1.00259
1.00267
1.00275
1.00283
1.00291
1.00298
1.00306
1.00313
1.0032
1.00327
1.00334
1.00341
1.00348
1.00355
1.00363
1.00371
1.0038
1.00389
1.00399
1.0041
1.00421
1.00434
1.00447
1.00461
1.00476
1.00492
1.00509
1.00527
1.00546
1.00566
1.00587
1.00609
1.00633
1.00657
1.00682
1.00708
1.00735
1.00764
1.00793
1.00823
1.00854
1.00886
1.00919
1.00953
1.00988
1.01023
1.01059
1.01096
1.01134
1.01172
1.01211
1.01251
1.01291
1.01331
1.01372
1.01413
1.01454
1.01496
1.01537
1.01578
1.01619
1.0166
1.01701
1.01741
1.01781
1.0182
1.01859
1.01897
1.01934
1.01971
1.02007
1.02043
1.02078
1.02113
1.02148
1.02182
1.02215
1.02249
1.02282
1.02315
1.02348
1.02381
1.02414
1.02447
1.0248
1.02514
1.02547
1.0258
1.02613
1.02646
1.02679
1.02713
1.02746
1.02779
1.02811
1.02844
1.02876
1.02908
1.0294
1.02971
1.03001
1.03031
1.03061
1.0309
1.03118
1.03146
1.03172
1.03198
1.03224
1.03249
1.03273
1.03296
1.03318
1.0334
1.03362
1.03382
1.03403
1.03422
1.03441
1.0346
1.03478
1.03496
1.03514
1.03531
1.03547
1.03564
1.0358
1.03596
1.03611
1.03626
1.03641
1.03656
1.0367
1.03684
1.03698
1.03711
1.03725
1.03738
1.0375
1.03763
1.03775
1.03788
1.038
1.03812
1.03824
1.03836
1.03848
1.0386
1.03872
1.03884
1.03896
1.03908
1.0392
1.03932
1.03944
1.03957
1.03969
1.03981
1.03992
1.04004
1.04015
1.04026
1.04037
1.04048
1.04058
1.04067
1.04076
1.04085
1.04093
1.04101
1.04108
1.04115
1.04121
1.04127
1.04133
1.04138
1.04143
1.04147
1.04151
1.04156
1.0416
1.04164
1.04168
1.04172
1.04176
1.0418
1.04185
1.0419
1.04196
1.04202
1.04208
1.04215
1.04223
1.04231
1.04241
1.0425
1.04261
1.04272
1.04285
1.04298
1.04312
1.04327
1.04343
1.04361
1.04379
1.04398
1.04419
1.04441
1.04464
1.04489
1.04514
1.04541
1.0457
1.046
1.04631
1.04663
1.04697
1.04731
1.04767
1.04804
1.04842
1.04881
1.0492
1.0496
1.05001
1.05041
1.05082
1.05123
1.05163
1.05203
1.05243
1.05282
1.0532
1.05357
1.05394
1.05429
1.05463
1.05496
1.05528
1.05559
1.05589
1.05618
1.05646
1.05674
1.057
1.05726
1.05752
1.05777
1.05802
1.05827
1.05852
1.05877
1.05903
1.05928
1.05954
1.05981
1.06008
1.06036
1.06064
1.06093
1.06122
1.06152
1.06182
1.06212
1.06243
1.06274
1.06306
1.06337
1.06368
1.064
1.06431
1.06462
1.06492
1.06522
1.06552
1.06581
1.06609
1.06637
1.06664
1.0669
1.06715
1.0674
1.06763
1.06786
1.06808
1.06829
1.06849
1.06868
1.06886
1.06903
1.06919
1.06934
1.06948
1.06962
1.06974
1.06986
1.06997
1.07007
1.07017
1.07026
1.07034
1.07042
1.07049
1.07056
1.07063
1.07069
1.07075
1.07081
1.07087
1.07094
1.071
1.07107
1.07115
1.07123
1.07132
1.07142
1.07153
1.07166
1.07181
1.07198
1.07217
1.07238
1.07263
1.07291
1.07322
1.07358
1.07397
1.07442
1.07492
1.07547
1.07608
1.07676
1.0775
1.07831
1.0792
1.08017
1.08122
1.08235
1.08356
1.08486
1.08623
1.08768
1.08918
1.0907
1.09219
1.09359
1.09481
1.09575
1.09631
1.09644
1.09609
0.996422
0.996223
0.996159
0.996215
0.996369
0.996594
0.996861
0.997148
0.997437
0.997718
0.997983
0.998229
0.998455
0.998662
0.998851
0.999023
0.999181
0.999327
0.999464
0.999591
0.999712
0.999828
0.999939
1.00005
1.00015
1.00026
1.00036
1.00047
1.00057
1.00067
1.00078
1.00088
1.00099
1.00109
1.0012
1.00131
1.00142
1.00152
1.00163
1.00174
1.00185
1.00196
1.00206
1.00216
1.00227
1.00237
1.00246
1.00256
1.00265
1.00274
1.00283
1.00291
1.00299
1.00307
1.00315
1.00322
1.0033
1.00337
1.00344
1.00351
1.00359
1.00366
1.00374
1.00382
1.0039
1.00399
1.00408
1.00418
1.00429
1.0044
1.00453
1.00466
1.00479
1.00494
1.0051
1.00526
1.00544
1.00562
1.00582
1.00602
1.00624
1.00646
1.0067
1.00695
1.0072
1.00747
1.00775
1.00803
1.00833
1.00864
1.00896
1.00928
1.00962
1.00996
1.01032
1.01068
1.01105
1.01143
1.01181
1.0122
1.0126
1.01301
1.01342
1.01383
1.01425
1.01467
1.01509
1.01551
1.01593
1.01635
1.01677
1.01718
1.01759
1.01799
1.01839
1.01878
1.01917
1.01955
1.01992
1.02029
1.02065
1.02101
1.02136
1.02171
1.02205
1.02239
1.02273
1.02306
1.0234
1.02373
1.02406
1.02439
1.02472
1.02506
1.02539
1.02572
1.02606
1.02639
1.02672
1.02706
1.02739
1.02773
1.02806
1.02839