# vtk DataFile Version 2.0
LBE mesh
ASCII
DATASET STRUCTURED_POINTS
DIMENSIONS 400 100 1
ASPECT_RATIO 1 1 1
ORIGIN 0 0 0
POINT_DATA 40000
SCALARS rho double 1
LOOKUP_TABLE default
1.02362
1.07503
1.09055
1.0947
1.09695
1.09866
1.09986
1.10066
1.10122
1.10164
1.10197
1.10222
1.10243
1.1026
1.10273
1.10285
1.10294
1.10302
1.10308
1.10313
1.10318
1.10321
1.10324
1.10327
1.10329
1.1033
1.10331
1.10332
1.10332
1.10332
1.10332
1.10332
1.10332
1.10331
1.10331
1.1033
1.1033
1.10329
1.10329
1.10328
1.10328
1.10328
1.10327
1.10327
1.10328
1.10328
1.10329
1.1033
1.10331
1.10333
1.10335
1.10337
1.1034
1.10343
1.10347
1.10351
1.10356
1.10362
1.10368
1.10374
1.10382
1.1039
1.10399
1.10408
1.10418
1.10429
1.10441
1.10454
1.10467
1.10481
1.10496
1.10512
1.10529
1.10546
1.10564
1.10583
1.10602
1.10623
1.10644
1.10665
1.10688
1.10711
1.10734
1.10759
1.10783
1.10808
1.10834
1.1086
1.10886
1.10913
1.10939
1.10966
1.10993
1.1102
1.11047
1.11073
1.111
1.11126
1.11152
1.11177
1.11202
1.11227
1.1125
1.11273
1.11296
1.11317
1.11338
1.11357
1.11376
1.11394
1.1141
1.11426
1.1144
1.11453
1.11465
1.11476
1.11485
1.11493
1.115
1.11506
1.1151
1.11513
1.11515
1.11516
1.11516
1.11514
1.11512
1.11508
1.11504
1.11499
1.11493
1.11486
1.11478
1.1147
1.11462
1.11452
1.11443
1.11433
1.11423
1.11412
1.11401
1.1139
1.11379
1.11368
1.11357
1.11346
1.11334
1.11323
1.11313
1.11302
1.11291
1.11281
1.11271
1.11261
1.11252
1.11243
1.11235
1.11226
1.11219
1.11211
1.11205
1.11198
1.11192
1.11187
1.11182
1.11178
1.11174
1.11171
1.11168
1.11166
1.11164
1.11163
1.11162
1.11162
1.11163
1.11163
1.11165
1.11166
1.11168
1.11171
1.11174
1.11177
1.11181
1.11185
1.11189
1.11193
1.11198
1.11203
1.11208
1.11213
1.11219
1.11224
1.1123
1.11236
1.11242
1.11247
1.11253
1.11259
1.11265
1.11271
1.11277
1.11283
1.11288
1.11294
1.11299
1.11305
1.1131
1.11315
1.1132
1.11325
1.11329
1.11333
1.11338
1.11341
1.11345
1.11349
1.11352
1.11355
1.11358
1.11361
1.11363
1.11366
1.11368
1.1137
1.11372
1.11374
1.11376
1.11377
1.11379
1.11381
1.11383
1.11385
1.11387
1.11389
1.11392
1.11394
1.11397
1.11401
1.11405
1.11409
1.11414
1.11419
1.11425
1.11432
1.11439
1.11447
1.11456
1.11466
1.11476
1.11488
1.115
1.11513
1.11527
1.11542
1.11558
1.11575
1.11593
1.11612
1.11632
1.11653
1.11674
1.11697
1.1172
1.11744
1.11768
1.11794
1.1182
1.11846
1.11873
1.119
1.11928
1.11956
1.11984
1.12012
1.1204
1.12068
1.12096
1.12123
1.1215
1.12177
1.12203
1.12229
1.12253
1.12278
1.12301
1.12323
1.12345
1.12366
1.12386
1.12405
1.12423
1.1244
1.12456
1.12472
1.12486
1.125
1.12513
1.12526
1.12537
1.12549
1.12559
1.12569
1.12579
1.12588
1.12596
1.12605
1.12613
1.1262
1.12628
1.12635
1.12642
1.12649
1.12655
1.12661
1.12667
1.12673
1.12679
1.12684
1.12689
1.12694
1.12698
1.12702
1.12706
1.12709
1.12712
1.12714
1.12716
1.12717
1.12718
1.12719
1.12719
1.12718
1.12717
1.12715
1.12713
1.12711
1.12708
1.12704
1.12701
1.12697
1.12693
1.12689
1.12684
1.1268
1.12676
1.12672
1.12668
1.12665
1.12662
1.1266
1.12658
1.12658
1.12658
1.12659
1.12662
1.12666
1.12672
1.12679
1.12688
1.127
1.12713
1.12729
1.12747
1.12768
1.12791
1.12818
1.12847
1.1288
1.12917
1.12957
1.13
1.13048
1.131
1.13156
1.13216
1.13281
1.13351
1.13426
1.13506
1.13592
1.13684
1.13783
1.13888
1.14002
1.14124
1.14255
1.14398
1.14554
1.14725
1.14914
1.15127
1.15368
1.15646
1.15975
1.16376
1.16894
1.17616
1.18633
1.20129
1.2317
1.06046
1.0724
1.08303
1.09068
1.09477
1.09702
1.09847
1.09952
1.1003
1.10088
1.10132
1.10167
1.10195
1.10218
1.10236
1.10251
1.10264
1.10275
1.10284
1.10291
1.10297
1.10302
1.10307
1.1031
1.10313
1.10316
1.10318
1.10319
1.1032
1.10321
1.10322
1.10322
1.10322
1.10322
1.10322
1.10322
1.10322
1.10322
1.10321
1.10321
1.10321
1.10321
1.10321
1.10322
1.10322
1.10323
1.10324
1.10325
1.10326
1.10328
1.1033
1.10333
1.10336
1.1034
1.10343
1.10348
1.10353
1.10359
1.10365
1.10372
1.10379
1.10388
1.10397
1.10406
1.10417
1.10428
1.1044
1.10453
1.10466
1.10481
1.10496
1.10512
1.10528
1.10546
1.10564
1.10583
1.10603
1.10623
1.10644
1.10666
1.10689
1.10712
1.10735
1.1076
1.10784
1.1081
1.10835
1.10861
1.10887
1.10914
1.10941
1.10967
1.10994
1.11021
1.11048
1.11075
1.11101
1.11127
1.11153
1.11178
1.11203
1.11227
1.11251
1.11274
1.11296
1.11317
1.11338
1.11357
1.11376
1.11393
1.11409
1.11425
1.11439
1.11452
1.11464
1.11474
1.11483
1.11491
1.11498
1.11503
1.11508
1.11511
1.11512
1.11513
1.11513
1.11511
1.11508
1.11505
1.11501
1.11495
1.11489
1.11483
1.11475
1.11467
1.11458
1.11449
1.1144
1.1143
1.1142
1.11409
1.11398
1.11388
1.11377
1.11366
1.11354
1.11343
1.11332
1.11322
1.11311
1.113
1.1129
1.1128
1.1127
1.1126
1.11251
1.11242
1.11234
1.11226
1.11218
1.11211
1.11204
1.11198
1.11192
1.11187
1.11182
1.11178
1.11174
1.11171
1.11168
1.11166
1.11164
1.11163
1.11163
1.11163
1.11163
1.11164
1.11165
1.11167
1.11169
1.11171
1.11174
1.11177
1.11181
1.11185
1.11189
1.11194
1.11198
1.11203
1.11208
1.11214
1.11219
1.11225
1.1123
1.11236
1.11242
1.11248
1.11254
1.11259
1.11265
1.11271
1.11277
1.11283
1.11288
1.11294
1.11299
1.11305
1.1131
1.11315
1.1132
1.11325
1.11329
1.11333
1.11338
1.11341
1.11345
1.11349
1.11352
1.11355
1.11358
1.11361
1.11363
1.11366
1.11368
1.1137
1.11372
1.11374
1.11376
1.11378
1.11379
1.11381
1.11383
1.11385
1.11387
1.1139
1.11392
1.11395
1.11398
1.11402
1.11405
1.1141
1.11415
1.1142
1.11426
1.11433
1.1144
1.11449
1.11458
1.11467
1.11478
1.11489
1.11502
1.11515
1.11529
1.11544
1.1156
1.11577
1.11595
1.11614
1.11634
1.11655
1.11676
1.11699
1.11722
1.11746
1.11771
1.11796
1.11822
1.11848
1.11875
1.11902
1.1193
1.11958
1.11986
1.12014
1.12042
1.1207
1.12097
1.12124
1.12151
1.12178
1.12204
1.12229
1.12254
1.12278
1.12301
1.12323
1.12345
1.12366
1.12385
1.12404
1.12422
1.12439
1.12456
1.12471
1.12486
1.12499
1.12512
1.12525
1.12537
1.12548
1.12558
1.12568
1.12578
1.12587
1.12595
1.12604
1.12612
1.1262
1.12627
1.12634
1.12641
1.12648
1.12654
1.12661
1.12667
1.12673
1.12678
1.12683
1.12688
1.12693
1.12697
1.12701
1.12705
1.12708
1.12711
1.12713
1.12715
1.12716
1.12717
1.12717
1.12717
1.12716
1.12715
1.12713
1.12711
1.12709
1.12706
1.12703
1.12699
1.12695
1.12691
1.12687
1.12683
1.12679
1.12675
1.12671
1.12667
1.12664
1.12662
1.1266
1.12658
1.12658
1.12658
1.1266
1.12663
1.12668
1.12674
1.12681
1.12691
1.12703
1.12716
1.12733
1.12751
1.12773
1.12797
1.12824
1.12854
1.12888
1.12925
1.12965
1.13009
1.13058
1.1311
1.13167
1.13228
1.13293
1.13364
1.1344
1.13521
1.13608
1.13701
1.13801
1.13908
1.14023
1.14147
1.14282
1.14427
1.14587
1.14763
1.14958
1.15179
1.1543
1.15724
1.16075
1.16508
1.17055
1.17767
1.18811
1.20639
1.23524
1.07829
1.07892
1.08507
1.09009
1.09338
1.09574
1.09743
1.09865
1.09954
1.10022
1.10075
1.10117
1.10151
1.10179
1.10201
1.1022
1.10236
1.10249
1.1026
1.10269
1.10277
1.10284
1.1029
1.10294
1.10298
1.10302
1.10304
1.10307
1.10308
1.1031
1.10311
1.10312
1.10313
1.10313
1.10313
1.10314
1.10314
1.10314
1.10314
1.10314
1.10314
1.10315
1.10315
1.10315
1.10316
1.10317
1.10318
1.10319
1.10321
1.10323
1.10325
1.10328
1.10331
1.10335
1.10339
1.10344
1.10349
1.10355
1.10361
1.10368
1.10376
1.10384
1.10393
1.10403
1.10414
1.10425
1.10437
1.1045
1.10464
1.10478
1.10494
1.1051
1.10527
1.10544
1.10563
1.10582
1.10602
1.10622
1.10643
1.10665
1.10688
1.10711
1.10735
1.10759
1.10784
1.1081
1.10835
1.10861
1.10888
1.10914
1.10941
1.10968
1.10995
1.11022
1.11049
1.11075
1.11102
1.11128
1.11153
1.11179
1.11203
1.11227
1.11251
1.11274
1.11296
1.11317
1.11337
1.11357
1.11375
1.11392
1.11409
1.11424
1.11438
1.1145
1.11462
1.11472
1.11481
1.11489
1.11496
1.11501
1.11505
1.11508
1.11509
1.1151
1.11509
1.11508
1.11505
1.11501
1.11497
1.11492
1.11486
1.11479
1.11471
1.11463
1.11455
1.11446
1.11436
1.11426
1.11416
1.11406
1.11395
1.11384
1.11373
1.11363
1.11352
1.11341
1.1133
1.11319
1.11308
1.11298
1.11288
1.11278
1.11268
1.11258
1.11249
1.11241
1.11232
1.11224
1.11217
1.1121
1.11203
1.11197
1.11191
1.11186
1.11181
1.11177
1.11174
1.1117
1.11168
1.11166
1.11164
1.11163
1.11162
1.11162
1.11163
1.11164
1.11165
1.11167
1.11169
1.11171
1.11174
1.11177
1.11181
1.11185
1.11189
1.11194
1.11198
1.11203
1.11208
1.11214
1.11219
1.11224
1.1123
1.11236
1.11242
1.11248
1.11253
1.11259
1.11265
1.11271
1.11277
1.11283
1.11288
1.11294
1.11299
1.11304
1.1131
1.11315
1.1132
1.11324
1.11329
1.11333
1.11337
1.11341
1.11345
1.11348
1.11352
1.11355
1.11358
1.11361
1.11363
1.11365
1.11368
1.1137
1.11372
1.11374
1.11376
1.11377
1.11379
1.11381
1.11383
1.11385
1.11387
1.11389
1.11392
1.11395
1.11398
1.11402
1.11406
1.1141
1.11415
1.1142
1.11427
1.11433
1.11441
1.11449
1.11458
1.11468
1.11478
1.1149
1.11502
1.11516
1.1153
1.11545
1.11561
1.11578
1.11596
1.11615
1.11635
1.11656
1.11677
1.117
1.11723
1.11747
1.11772
1.11797
1.11823
1.1185
1.11876
1.11904
1.11931
1.11959
1.11987
1.12015
1.12043
1.12071
1.12098
1.12125
1.12152
1.12179
1.12204
1.1223
1.12254
1.12278
1.12301
1.12324
1.12345
1.12366
1.12385
1.12404
1.12422
1.12439
1.12455
1.1247
1.12485
1.12499
1.12512
1.12524
1.12536
1.12547
1.12557
1.12567
1.12577
1.12586
1.12595
1.12603
1.12611
1.12619
1.12626
1.12634
1.12641
1.12647
1.12654
1.1266
1.12666
1.12672
1.12677
1.12683
1.12688
1.12692
1.12696
1.127
1.12704
1.12707
1.12709
1.12712
1.12713
1.12714
1.12715
1.12715
1.12715
1.12714
1.12713
1.12711
1.12709
1.12707
1.12704
1.127
1.12697
1.12693
1.12689
1.12685
1.12681
1.12677
1.12673
1.12669
1.12665
1.12662
1.1266
1.12658
1.12657
1.12657
1.12657
1.12659
1.12662
1.12667
1.12673
1.12681
1.12691
1.12703
1.12717
1.12734
1.12753
1.12775
1.12799
1.12827
1.12857
1.12891
1.12929
1.1297
1.13014
1.13063
1.13116
1.13173
1.13235
1.13301
1.13372
1.13449
1.1353
1.13618
1.13712
1.13812
1.1392
1.14036
1.14161
1.14296
1.14443
1.14604
1.14781
1.14978
1.152
1.15453
1.15746
1.16092
1.16511
1.17037
1.17718
1.18573
1.19504
1.2038
1.08666
1.08601
1.08814
1.09072
1.0933
1.09536
1.0969
1.09807
1.09899
1.09972
1.10029
1.10076
1.10113
1.10144
1.1017
1.10192
1.1021
1.10225
1.10238
1.10249
1.10258
1.10266
1.10273
1.10279
1.10284
1.10288
1.10291
1.10294
1.10297
1.10299
1.103
1.10302
1.10303
1.10304
1.10304
1.10305
1.10305
1.10306
1.10306
1.10307
1.10307
1.10308
1.10308
1.10309
1.1031
1.10311
1.10312
1.10313
1.10315
1.10317
1.1032
1.10323
1.10326
1.1033
1.10334
1.10339
1.10344
1.1035
1.10357
1.10364
1.10372
1.1038
1.10389
1.10399
1.1041
1.10422
1.10434
1.10447
1.10461
1.10475
1.10491
1.10507
1.10524
1.10542
1.1056
1.10579
1.10599
1.1062
1.10642
1.10664
1.10686
1.1071
1.10734
1.10758
1.10783
1.10809
1.10834
1.10861
1.10887
1.10914
1.10941
1.10968
1.10995
1.11022
1.11048
1.11075
1.11102
1.11128
1.11153
1.11179
1.11203
1.11227
1.11251
1.11274
1.11296
1.11317
1.11337
1.11356
1.11374
1.11392
1.11408
1.11423
1.11437
1.11449
1.1146
1.11471
1.11479
1.11487
1.11493
1.11498
1.11502
1.11505
1.11506
1.11507
1.11506
1.11504
1.11501
1.11498
1.11493
1.11488
1.11481
1.11475
1.11467
1.11459
1.1145
1.11441
1.11432
1.11422
1.11412
1.11402
1.11391
1.11381
1.1137
1.11359
1.11348
1.11337
1.11326
1.11316
1.11305
1.11295
1.11285
1.11275
1.11265
1.11256
1.11247
1.11238
1.1123
1.11222
1.11215
1.11208
1.11201
1.11195
1.1119
1.11185
1.1118
1.11176
1.11173
1.1117
1.11167
1.11165
1.11164
1.11163
1.11162
1.11162
1.11162
1.11163
1.11165
1.11166
1.11169
1.11171
1.11174
1.11177
1.11181
1.11185
1.11189
1.11193
1.11198
1.11203
1.11208
1.11213
1.11219
1.11224
1.1123
1.11236
1.11241
1.11247
1.11253
1.11259
1.11265
1.11271
1.11276
1.11282
1.11288
1.11293
1.11299
1.11304
1.11309
1.11314
1.11319
1.11324
1.11328
1.11333
1.11337
1.11341
1.11344
1.11348
1.11351
1.11354
1.11357
1.1136
1.11362
1.11365
1.11367
1.11369
1.11371
1.11373
1.11375
1.11377
1.11378
1.1138
1.11382
1.11384
1.11386
1.11389
1.11391
1.11394
1.11397
1.11401
1.11405
1.11409
1.11414
1.1142
1.11426
1.11433
1.1144
1.11449
1.11458
1.11467
1.11478
1.1149
1.11502
1.11515
1.1153
1.11545
1.11561
1.11578
1.11596
1.11615
1.11635
1.11656
1.11678
1.117
1.11723
1.11747
1.11772
1.11797
1.11823
1.1185
1.11877
1.11904
1.11932
1.11959
1.11987
1.12015
1.12043
1.12071
1.12099
1.12126
1.12153
1.12179
1.12205
1.1223
1.12255
1.12278
1.12301
1.12324
1.12345
1.12366
1.12385
1.12404
1.12422
1.12439
1.12455
1.1247
1.12484
1.12498
1.12511
1.12523
1.12535
1.12546
1.12557
1.12567
1.12576
1.12585
1.12594
1.12602
1.1261
1.12618
1.12626
1.12633
1.1264
1.12647
1.12653
1.1266
1.12666
1.12671
1.12677
1.12682
1.12687
1.12691
1.12696
1.12699
1.12703
1.12706
1.12708
1.1271
1.12712
1.12713
1.12714
1.12714
1.12713
1.12712
1.12711
1.12709
1.12707
1.12704
1.12701
1.12698
1.12694
1.1269
1.12686
1.12682
1.12678
1.12673
1.12669
1.12666
1.12662
1.12659
1.12657
1.12655
1.12654
1.12654
1.12655
1.12657
1.1266
1.12665
1.12671
1.12679
1.12689
1.12701
1.12716
1.12732
1.12752
1.12774
1.12798
1.12826
1.12857
1.12891
1.12929
1.1297
1.13015
1.13065
1.13118
1.13175
1.13237
1.13304
1.13375
1.13452
1.13534
1.13622
1.13716
1.13816
1.13924
1.1404
1.14165
1.14299
1.14445
1.14605
1.1478
1.14974
1.15191
1.15436
1.15717
1.16044
1.16426
1.16875
1.17397
1.17975
1.18445
1.18456
1.09072
1.09024
1.09092
1.09233
1.09398
1.09548
1.09676
1.09782
1.09868
1.09938
1.09996
1.10044
1.10083
1.10116
1.10144
1.10167
1.10187
1.10204
1.10218
1.1023
1.10241
1.1025
1.10257
1.10264
1.1027
1.10275
1.10279
1.10282
1.10285
1.10288
1.1029
1.10292
1.10293
1.10294
1.10295
1.10296
1.10297
1.10298
1.10298
1.10299
1.10299
1.103
1.10301
1.10302
1.10303
1.10304
1.10305
1.10307
1.10309
1.10311
1.10314
1.10317
1.1032
1.10324
1.10328
1.10333
1.10338
1.10344
1.10351
1.10358
1.10366
1.10375
1.10384
1.10394
1.10405
1.10417
1.10429
1.10442
1.10456
1.10471
1.10486
1.10503
1.1052
1.10538
1.10556
1.10576
1.10596
1.10617
1.10638
1.10661
1.10684
1.10707
1.10731
1.10756
1.10781
1.10807
1.10833
1.10859
1.10886
1.10912
1.10939
1.10967
1.10994
1.11021
1.11048
1.11075
1.11101
1.11127
1.11153
1.11178
1.11203
1.11227
1.11251
1.11273
1.11295
1.11316
1.11336
1.11356
1.11374
1.11391
1.11407
1.11422
1.11435
1.11448
1.11459
1.11469
1.11478
1.11485
1.11491
1.11496
1.115
1.11502
1.11503
1.11503
1.11502
1.115
1.11497
1.11494
1.11489
1.11483
1.11477
1.1147
1.11463
1.11454
1.11446
1.11437
1.11427
1.11418
1.11407
1.11397
1.11387
1.11376
1.11365
1.11355
1.11344
1.11333
1.11322
1.11312
1.11302
1.11291
1.11281
1.11272
1.11262
1.11253
1.11244
1.11236
1.11228
1.1122
1.11213
1.11206
1.11199
1.11193
1.11188
1.11183
1.11179
1.11175
1.11171
1.11168
1.11166
1.11164
1.11162
1.11162
1.11161
1.11161
1.11162
1.11163
1.11164
1.11166
1.11168
1.1117
1.11173
1.11177
1.1118
1.11184
1.11188
1.11193
1.11198
1.11202
1.11208
1.11213
1.11218
1.11224
1.11229
1.11235
1.11241
1.11247
1.11253
1.11258
1.11264
1.1127
1.11276
1.11282
1.11287
1.11293
1.11298
1.11303
1.11309
1.11314
1.11318
1.11323
1.11327
1.11332
1.11336
1.1134
1.11343
1.11347
1.1135
1.11353
1.11356
1.11359
1.11361
1.11364
1.11366
1.11368
1.1137
1.11372
1.11374
1.11376
1.11377
1.11379
1.11381
1.11383
1.11385
1.11388
1.1139
1.11393
1.11396
1.114
1.11404
1.11408
1.11413
1.11419
1.11425
1.11432
1.11439
1.11447
1.11456
1.11466
1.11477
1.11488
1.11501
1.11514
1.11528
1.11544
1.1156
1.11577
1.11595
1.11614
1.11634
1.11655
1.11676
1.11699
1.11722
1.11746
1.11771
1.11797
1.11823
1.11849
1.11876
1.11903
1.11931
1.11959
1.11987
1.12015
1.12043
1.12071
1.12098
1.12126
1.12153
1.12179
1.12205
1.1223
1.12255
1.12279
1.12302
1.12324
1.12345
1.12366
1.12385
1.12404
1.12421
1.12438
1.12454
1.1247
1.12484
1.12498
1.12511
1.12523
1.12534
1.12545
1.12556
1.12566
1.12575
1.12584
1.12593
1.12602
1.1261
1.12618
1.12625
1.12632
1.12639
1.12646
1.12653
1.12659
1.12665
1.12671
1.12676
1.12681
1.12686
1.12691
1.12695
1.12699
1.12702
1.12705
1.12707
1.12709
1.1271
1.12711
1.12712
1.12712
1.12711
1.1271
1.12709
1.12707
1.12704
1.12701
1.12698
1.12694
1.12691
1.12687
1.12682
1.12678
1.12674
1.1267
1.12665
1.12662
1.12658
1.12655
1.12652
1.12651
1.12649
1.12649
1.1265
1.12652
1.12656
1.1266
1.12667
1.12675
1.12685
1.12697
1.12712
1.12728
1.12748
1.1277
1.12795
1.12822
1.12853
1.12888
1.12926
1.12967
1.13012
1.13062
1.13115
1.13172
1.13234
1.13301
1.13373
1.13449
1.13531
1.13619
1.13712
1.13813
1.1392
1.14034
1.14158
1.1429
1.14434
1.1459
1.1476
1.14947
1.15154
1.15385
1.15644
1.15936
1.16265
1.16626
1.16998
1.17331
1.17559
1.17497
1.09336
1.09292
1.09312
1.09388
1.09487
1.09593
1.09692
1.0978
1.09856
1.09921
1.09975
1.10021
1.1006
1.10094
1.10122
1.10146
1.10167
1.10185
1.102
1.10213
1.10224
1.10234
1.10243
1.1025
1.10256
1.10262
1.10266
1.10271
1.10274
1.10277
1.10279
1.10282
1.10283
1.10285
1.10286
1.10287
1.10288
1.10289
1.1029
1.10291
1.10292
1.10292
1.10293
1.10294
1.10295
1.10297
1.10298
1.103
1.10302
1.10304
1.10307
1.1031
1.10313
1.10317
1.10322
1.10327
1.10332
1.10338
1.10345
1.10352
1.1036
1.10369
1.10378
1.10388
1.10399
1.10411
1.10423
1.10437
1.10451
1.10466
1.10481
1.10498
1.10515
1.10533
1.10552
1.10571
1.10592
1.10613
1.10634
1.10657
1.1068
1.10703
1.10728
1.10753
1.10778
1.10804
1.1083
1.10856
1.10883
1.1091
1.10937
1.10965
1.10992
1.11019
1.11046
1.11073
1.111
1.11126
1.11152
1.11178
1.11202
1.11227
1.1125
1.11273
1.11295
1.11316
1.11336
1.11355
1.11373
1.1139
1.11406
1.11421
1.11434
1.11447
1.11458
1.11467
1.11476
1.11483
1.11489
1.11494
1.11497
1.11499
1.115
1.115
1.11499
1.11497
1.11493
1.11489
1.11484
1.11479
1.11472
1.11465
1.11458
1.11449
1.11441
1.11432
1.11422
1.11412
1.11402
1.11392
1.11382
1.11371
1.1136
1.1135
1.11339
1.11328
1.11318
1.11308
1.11297
1.11287
1.11277
1.11268
1.11258
1.1125
1.11241
1.11232
1.11225
1.11217
1.1121
1.11203
1.11197
1.11191
1.11186
1.11181
1.11177
1.11173
1.1117
1.11167
1.11164
1.11163
1.11161
1.1116
1.1116
1.1116
1.11161
1.11162
1.11163
1.11165
1.11167
1.1117
1.11173
1.11176
1.1118
1.11184
1.11188
1.11192
1.11197
1.11202
1.11207
1.11212
1.11218
1.11223
1.11229
1.11234
1.1124
1.11246
1.11252
1.11258
1.11264
1.11269
1.11275
1.11281
1.11286
1.11292
1.11297
1.11302
1.11308
1.11313
1.11317
1.11322
1.11326
1.11331
1.11335
1.11339
1.11342
1.11346
1.11349
1.11352
1.11355
1.11358
1.1136
1.11363
1.11365
1.11367
1.11369
1.11371
1.11372
1.11374
1.11376
1.11378
1.11379
1.11381
1.11384
1.11386
1.11388
1.11391
1.11394
1.11398
1.11402
1.11406
1.11411
1.11417
1.11423
1.1143
1.11437
1.11445
1.11454
1.11464
1.11475
1.11486
1.11499
1.11512
1.11526
1.11542
1.11558
1.11575
1.11593
1.11612
1.11632
1.11653
1.11674
1.11697
1.1172
1.11744
1.11769
1.11795
1.11821
1.11847
1.11875
1.11902
1.1193
1.11958
1.11986
1.12014
1.12042
1.1207
1.12098
1.12125
1.12152
1.12179
1.12205
1.1223
1.12255
1.12279
1.12302
1.12324
1.12345
1.12366
1.12385
1.12404
1.12421
1.12438
1.12454
1.12469
1.12484
1.12497
1.1251
1.12522
1.12534
1.12545
1.12555
1.12565
1.12575
1.12584
1.12593
1.12601
1.12609
1.12617
1.12624
1.12632
1.12639
1.12646
1.12652
1.12658
1.12664
1.1267
1.12676
1.12681
1.12686
1.1269
1.12694
1.12698
1.12701
1.12704
1.12706
1.12708
1.12709
1.1271
1.1271
1.1271
1.12709
1.12708
1.12706
1.12704
1.12701
1.12698
1.12695
1.12691
1.12687
1.12683
1.12678
1.12674
1.12669
1.12665
1.12661
1.12657
1.12653
1.1265
1.12647
1.12645
1.12644
1.12644
1.12644
1.12646
1.12649
1.12654
1.12661
1.12669
1.12679
1.12691
1.12705
1.12722
1.12741
1.12763
1.12788
1.12816
1.12847
1.12881
1.12919
1.1296
1.13006
1.13055
1.13108
1.13165
1.13227
1.13294
1.13365
1.13441
1.13523
1.1361
1.13702
1.13801
1.13907
1.1402
1.14141
1.1427
1.1441
1.1456
1.14723
1.149
1.15093
1.15305
1.15537
1.1579
1.16058
1.16334
1.16593
1.16793
1.16895
1.1687
1.0952
1.09476
1.09478
1.09517
1.09579
1.09651
1.09725
1.09796
1.09859
1.09916
1.09965
1.10008
1.10045
1.10078
1.10105
1.1013
1.1015
1.10169
1.10184
1.10198
1.1021
1.1022
1.10229
1.10237
1.10244
1.1025
1.10255
1.10259
1.10263
1.10266
1.10269
1.10272
1.10274
1.10276
1.10277
1.10279
1.1028
1.10281
1.10282
1.10283
1.10284
1.10284
1.10285
1.10287
1.10288
1.10289
1.10291
1.10292
1.10294
1.10297
1.10299
1.10303
1.10306
1.1031
1.10314
1.10319
1.10325
1.10331
1.10338
1.10345
1.10353
1.10362
1.10371
1.10381
1.10392
1.10404
1.10417
1.1043
1.10444
1.10459
1.10475
1.10491
1.10509
1.10527
1.10546
1.10565
1.10586
1.10607
1.10629
1.10652
1.10675
1.10699
1.10723
1.10748
1.10774
1.108
1.10826
1.10853
1.1088
1.10907
1.10934
1.10962
1.1099
1.11017
1.11044
1.11071
1.11098
1.11125
1.11151
1.11176
1.11201
1.11225
1.11249
1.11272
1.11294
1.11315
1.11335
1.11354
1.11372
1.11389
1.11405
1.1142
1.11433
1.11445
1.11456
1.11466
1.11474
1.11481
1.11487
1.11491
1.11494
1.11496
1.11497
1.11497
1.11495
1.11493
1.11489
1.11485
1.1148
1.11474
1.11467
1.1146
1.11452
1.11444
1.11435
1.11426
1.11416
1.11407
1.11397
1.11386
1.11376
1.11365
1.11355
1.11344
1.11334
1.11323
1.11313
1.11303
1.11293
1.11283
1.11273
1.11263
1.11254
1.11245
1.11237
1.11229
1.11221
1.11214
1.11207
1.112
1.11194
1.11188
1.11183
1.11178
1.11174
1.11171
1.11167
1.11165
1.11162
1.11161
1.11159
1.11159
1.11158
1.11159
1.11159
1.1116
1.11162
1.11164
1.11166
1.11169
1.11172
1.11175
1.11179
1.11182
1.11187
1.11191
1.11196
1.11201
1.11206
1.11211
1.11217
1.11222
1.11228
1.11233
1.11239
1.11245
1.11251
1.11257
1.11263
1.11268
1.11274
1.1128
1.11285
1.11291
1.11296
1.11301
1.11306
1.11311
1.11316
1.11321
1.11325
1.11329
1.11334
1.11337
1.11341
1.11344
1.11348
1.11351
1.11354
1.11356
1.11359
1.11361
1.11363
1.11365
1.11367
1.11369
1.1137
1.11372
1.11374
1.11376
1.11377
1.11379
1.11381
1.11384
1.11386
1.11389
1.11392
1.11396
1.11399
1.11404
1.11409
1.11414
1.1142
1.11427
1.11434
1.11443
1.11452
1.11461
1.11472
1.11483
1.11496
1.11509
1.11523
1.11538
1.11554
1.11572
1.1159
1.11609
1.11628
1.11649
1.11671
1.11694
1.11717
1.11741
1.11766
1.11792
1.11818
1.11845
1.11872
1.119
1.11928
1.11956
1.11984
1.12012
1.12041
1.12069
1.12097
1.12124
1.12152
1.12178
1.12204
1.1223
1.12255
1.12279
1.12302
1.12324
1.12345
1.12366
1.12385
1.12404
1.12421
1.12438
1.12454
1.12469
1.12483
1.12497
1.1251
1.12522
1.12533
1.12544
1.12555
1.12565
1.12574
1.12583
1.12592
1.126
1.12608
1.12616
1.12624
1.12631
1.12638
1.12645
1.12651
1.12658
1.12664
1.1267
1.12675
1.1268
1.12685
1.12689
1.12693
1.12697
1.127
1.12702
1.12705
1.12706
1.12707
1.12708
1.12708
1.12707
1.12707
1.12705
1.12703
1.12701
1.12698
1.12695
1.12691
1.12687
1.12683
1.12678
1.12674
1.12669
1.12664
1.1266
1.12655
1.12651
1.12647
1.12644
1.12641
1.12639
1.12637
1.12637
1.12637
1.12639
1.12642
1.12646
1.12652
1.1266
1.1267
1.12682
1.12696
1.12713
1.12732
1.12754
1.12778
1.12806
1.12837
1.12871
1.12908
1.1295
1.12995
1.13044
1.13097
1.13154
1.13215
1.13281
1.13352
1.13427
1.13508
1.13594
1.13685
1.13783
1.13886
1.13996
1.14114
1.14239
1.14373
1.14516
1.1467
1.14835
1.15013
1.15203
1.15406
1.15618
1.15834
1.1604
1.16218
1.16345
1.16394
1.16373
1.09649
1.0961
1.09604
1.09623
1.09661
1.09711
1.09765
1.0982
1.09872
1.0992
1.09963
1.10002
1.10036
1.10067
1.10093
1.10117
1.10137
1.10155
1.10171
1.10185
1.10197
1.10208
1.10217
1.10225
1.10232
1.10238
1.10244
1.10248
1.10253
1.10256
1.10259
1.10262
1.10264
1.10266
1.10268
1.10269
1.10271
1.10272
1.10273
1.10274
1.10275
1.10276
1.10277
1.10278
1.1028
1.10281
1.10283
1.10284
1.10287
1.10289
1.10292
1.10295
1.10298
1.10302
1.10307
1.10312
1.10317
1.10323
1.1033
1.10337
1.10345
1.10354
1.10363
1.10374
1.10385
1.10397
1.10409
1.10423
1.10437
1.10452
1.10468
1.10484
1.10502
1.1052
1.10539
1.10559
1.10579
1.10601
1.10623
1.10646
1.10669
1.10693
1.10718
1.10743
1.10769
1.10795
1.10821
1.10848
1.10876
1.10903
1.10931
1.10959
1.10987
1.11014
1.11042
1.11069
1.11096
1.11123
1.11149
1.11175
1.112
1.11224
1.11248
1.11271
1.11293
1.11314
1.11334
1.11353
1.11371
1.11388
1.11404
1.11419
1.11432
1.11444
1.11455
1.11464
1.11472
1.11479
1.11484
1.11489
1.11491
1.11493
1.11493
1.11493
1.11491
1.11488
1.11484
1.1148
1.11474
1.11468
1.11462
1.11454
1.11446
1.11438
1.11429
1.1142
1.1141
1.114
1.1139
1.1138
1.1137
1.11359
1.11349
1.11338
1.11328
1.11318
1.11307
1.11297
1.11287
1.11277
1.11268
1.11259
1.1125
1.11241
1.11233
1.11225
1.11217
1.1121
1.11203
1.11197
1.11191
1.11185
1.1118
1.11176
1.11172
1.11168
1.11165
1.11162
1.1116
1.11159
1.11157
1.11157
1.11157
1.11157
1.11158
1.11159
1.1116
1.11162
1.11165
1.11167
1.1117
1.11174
1.11177
1.11181
1.11186
1.1119
1.11195
1.112
1.11205
1.1121
1.11216
1.11221
1.11227
1.11232
1.11238
1.11244
1.1125
1.11256
1.11261
1.11267
1.11273
1.11279
1.11284
1.1129
1.11295
1.113
1.11305
1.1131
1.11315
1.11319
1.11324
1.11328
1.11332
1.11336
1.11339
1.11343
1.11346
1.11349
1.11352
1.11354
1.11357
1.11359
1.11361
1.11363
1.11365
1.11367
1.11368
1.1137
1.11372
1.11373
1.11375
1.11377
1.11379
1.11381
1.11384
1.11386
1.11389
1.11393
1.11397
1.11401
1.11406
1.11411
1.11417
1.11424
1.11431
1.11439
1.11448
1.11458
1.11468
1.1148
1.11492
1.11505
1.11519
1.11534
1.1155
1.11567
1.11585
1.11604
1.11624
1.11645
1.11667
1.11689
1.11713
1.11737
1.11762
1.11788
1.11814
1.11841
1.11869
1.11896
1.11925
1.11953
1.11982
1.1201
1.12039
1.12067
1.12095
1.12123
1.12151
1.12178
1.12204
1.12229
1.12254
1.12278
1.12302
1.12324
1.12345
1.12366
1.12385
1.12404
1.12422
1.12438
1.12454
1.12469
1.12483
1.12497
1.12509
1.12521
1.12533
1.12544
1.12554
1.12564
1.12573
1.12582
1.12591
1.126
1.12608
1.12615
1.12623
1.1263
1.12637
1.12644
1.12651
1.12657
1.12663
1.12669
1.12674
1.12679
1.12684
1.12688
1.12692
1.12696
1.12699
1.12701
1.12703
1.12705
1.12705
1.12706
1.12706
1.12705
1.12704
1.12702
1.127
1.12697
1.12694
1.12691
1.12687
1.12683
1.12678
1.12673
1.12668
1.12664
1.12659
1.12654
1.12649
1.12644
1.1264
1.12637
1.12633
1.12631
1.12629
1.12628
1.12629
1.1263
1.12633
1.12637
1.12643
1.1265
1.1266
1.12672
1.12685
1.12702
1.1272
1.12742
1.12766
1.12794
1.12824
1.12858
1.12895
1.12936
1.12981
1.13029
1.13082
1.13138
1.13199
1.13264
1.13334
1.13409
1.13488
1.13572
1.13662
1.13757
1.13858
1.13965
1.14078
1.14198
1.14326
1.14461
1.14604
1.14756
1.14917
1.15086
1.1526
1.15436
1.15607
1.15761
1.15886
1.15968
1.15995
1.15965
1.09744
1.09712
1.09701
1.0971
1.09733
1.09767
1.09807
1.09849
1.09891
1.09931
1.09968
1.10002
1.10033
1.10061
1.10086
1.10108
1.10128
1.10145
1.1016
1.10174
1.10186
1.10197
1.10206
1.10214
1.10222
1.10228
1.10233
1.10238
1.10243
1.10246
1.1025
1.10253
1.10255
1.10257
1.10259
1.10261
1.10262
1.10263
1.10265
1.10266
1.10267
1.10268
1.10269
1.1027
1.10272
1.10273
1.10275
1.10276
1.10278
1.10281
1.10284
1.10287
1.1029
1.10294
1.10298
1.10303
1.10309
1.10315
1.10322
1.10329
1.10337
1.10346
1.10355
1.10365
1.10376
1.10388
1.10401
1.10414
1.10428
1.10444
1.10459
1.10476
1.10494
1.10512
1.10531
1.10551
1.10572
1.10593
1.10616
1.10638
1.10662
1.10686
1.10711
1.10736
1.10762
1.10789
1.10816
1.10843
1.10871
1.10898
1.10926
1.10955
1.10983
1.11011
1.11038
1.11066
1.11093
1.1112
1.11146
1.11172
1.11198
1.11222
1.11246
1.11269
1.11291
1.11312
1.11333
1.11352
1.1137
1.11387
1.11403
1.11417
1.11431
1.11443
1.11453
1.11462
1.1147
1.11477
1.11482
1.11486
1.11488
1.1149
1.1149
1.11489
1.11487
1.11484
1.1148
1.11475
1.11469
1.11463
1.11456
1.11448
1.1144
1.11431
1.11422
1.11413
1.11403
1.11394
1.11384
1.11373
1.11363
1.11353
1.11342
1.11332
1.11322
1.11311
1.11301
1.11291
1.11281
1.11272
1.11262
1.11253
1.11245
1.11236
1.11228
1.1122
1.11213
1.11206
1.11199
1.11193
1.11187
1.11182
1.11177
1.11172
1.11169
1.11165
1.11162
1.1116
1.11158
1.11156
1.11155
1.11155
1.11155
1.11155
1.11156
1.11157
1.11158
1.11161
1.11163
1.11166
1.11169
1.11172
1.11176
1.1118
1.11184
1.11189
1.11193
1.11198
1.11204
1.11209
1.11214
1.1122
1.11225
1.11231
1.11237
1.11243
1.11248
1.11254
1.1126
1.11266
1.11272
1.11277
1.11283
1.11288
1.11293
1.11299
1.11304
1.11309
1.11313
1.11318
1.11322
1.11326
1.1133
1.11334
1.11338
1.11341
1.11344
1.11347
1.1135
1.11352
1.11355
1.11357
1.11359
1.11361
1.11363
1.11364
1.11366
1.11368
1.11369
1.11371
1.11372
1.11374
1.11376
1.11378
1.11381
1.11383
1.11386
1.1139
1.11393
1.11397
1.11402
1.11407
1.11413
1.1142
1.11427
1.11435
1.11444
1.11453
1.11464
1.11475
1.11487
1.115
1.11514
1.11529
1.11545
1.11562
1.1158
1.11599
1.11619
1.1164
1.11662
1.11684
1.11708
1.11732
1.11757
1.11783
1.1181
1.11837
1.11864
1.11892
1.11921
1.11949
1.11978
1.12007
1.12036
1.12065
1.12093
1.12121
1.12149
1.12176
1.12203
1.12229
1.12254
1.12278
1.12301
1.12324
1.12345
1.12366
1.12385
1.12404
1.12422
1.12438
1.12454
1.12469
1.12483
1.12497
1.12509
1.12521
1.12532
1.12543
1.12554
1.12563
1.12573
1.12582
1.1259
1.12599
1.12607
1.12615
1.12622
1.1263
1.12637
1.12643
1.1265
1.12656
1.12662
1.12668
1.12674
1.12679
1.12683
1.12687
1.12691
1.12695
1.12697
1.127
1.12702
1.12703
1.12704
1.12704
1.12703
1.12703
1.12701
1.12699
1.12697
1.12694
1.1269
1.12686
1.12682
1.12678
1.12673
1.12668
1.12663
1.12658
1.12652
1.12647
1.12642
1.12637
1.12633
1.12629
1.12625
1.12622
1.1262
1.12619
1.12619
1.1262
1.12622
1.12626
1.12632
1.12639
1.12648
1.12659
1.12673
1.12688
1.12707
1.12728
1.12752
1.12778
1.12808
1.12842
1.12878
1.12919
1.12963
1.13011
1.13062
1.13118
1.13178
1.13242
1.13311
1.13384
1.13462
1.13545
1.13632
1.13724
1.13822
1.13925
1.14034
1.14148
1.14269
1.14395
1.14528
1.14667
1.14811
1.14958
1.15107
1.15252
1.15387
1.15504
1.15593
1.15647
1.15661
1.15629
1.09817
1.0979
1.09778
1.0978
1.09794
1.09818
1.09847
1.09879
1.09912
1.09945
1.09977
1.10006
1.10034
1.10059
1.10081
1.10102
1.1012
1.10137
1.10152
1.10165
1.10177
1.10187
1.10196
1.10204
1.10212
1.10218
1.10224
1.10229
1.10233
1.10237
1.1024
1.10243
1.10246
1.10248
1.1025
1.10252
1.10253
1.10255
1.10256
1.10257
1.10258
1.10259
1.1026
1.10262
1.10263
1.10264
1.10266
1.10268
1.1027
1.10272
1.10275
1.10278
1.10282
1.10285
1.1029
1.10295
1.103
1.10306
1.10313
1.1032
1.10328
1.10337
1.10346
1.10356
1.10367
1.10379
1.10392
1.10405
1.1042
1.10435
1.10451
1.10468
1.10485
1.10504
1.10523
1.10543
1.10564
1.10586
1.10608
1.10631
1.10655
1.10679
1.10704
1.1073
1.10756
1.10783
1.1081
1.10837
1.10865
1.10893
1.10921
1.1095
1.10978
1.11007
1.11035
1.11063
1.1109
1.11117
1.11144
1.1117
1.11195
1.1122
1.11244
1.11267
1.11289
1.11311
1.11331
1.1135
1.11368
1.11385
1.11401
1.11416
1.11429
1.11441
1.11451
1.1146
1.11468
1.11474
1.11479
1.11483
1.11485
1.11486
1.11486
1.11484
1.11482
1.11478
1.11474
1.11469
1.11463
1.11456
1.11449
1.11441
1.11433
1.11424
1.11415
1.11406
1.11396
1.11386
1.11376
1.11366
1.11356
1.11346
1.11335
1.11325
1.11315
1.11305
1.11295
1.11285
1.11275
1.11266
1.11257
1.11248
1.11239
1.11231
1.11223
1.11215
1.11208
1.11201
1.11195
1.11189
1.11183
1.11178
1.11173
1.11169
1.11165
1.11162
1.11159
1.11157
1.11155
1.11154
1.11153
1.11152
1.11152
1.11153
1.11154
1.11155