# vtk DataFile Version 2.0
LBE mesh
ASCII
DATASET STRUCTURED_POINTS
DIMENSIONS 400 100 1
ASPECT_RATIO 1 1 1
ORIGIN 0 0 0
POINT_DATA 40000
SCALARS rho double 1
LOOKUP_TABLE default
1.07162
1.13594
1.15492
1.15921
1.16139
1.16318
1.16447
1.16532
1.1659
1.16634
1.16668
1.16695
1.16717
1.16735
1.1675
1.16763
1.16774
1.16783
1.16791
1.16798
1.16805
1.1681
1.16815
1.1682
1.16824
1.16828
1.16831
1.16834
1.16837
1.16839
1.16841
1.16843
1.16845
1.16847
1.16848
1.1685
1.16851
1.16852
1.16853
1.16854
1.16855
1.16856
1.16857
1.16857
1.16858
1.16859
1.1686
1.16861
1.16862
1.16863
1.16864
1.16866
1.16867
1.16869
1.16871
1.16874
1.16877
1.1688
1.16884
1.16888
1.16892
1.16898
1.16903
1.16909
1.16916
1.16924
1.16932
1.16941
1.1695
1.1696
1.16971
1.16983
1.16995
1.17008
1.17022
1.17037
1.17053
1.17069
1.17086
1.17104
1.17122
1.17141
1.17161
1.17182
1.17203
1.17225
1.17247
1.1727
1.17293
1.17317
1.17341
1.17365
1.1739
1.17415
1.1744
1.17465
1.1749
1.17515
1.1754
1.17564
1.17589
1.17613
1.17637
1.1766
1.17684
1.17706
1.17728
1.17749
1.1777
1.1779
1.17809
1.17827
1.17844
1.17861
1.17877
1.17891
1.17905
1.17918
1.17929
1.1794
1.1795
1.17959
1.17967
1.17974
1.1798
1.17985
1.1799
1.17994
1.17997
1.18
1.18002
1.18004
1.18005
1.18005
1.18006
1.18006
1.18005
1.18005
1.18004
1.18003
1.18001
1.18
1.17998
1.17996
1.17994
1.17992
1.17989
1.17987
1.17984
1.17982
1.17979
1.17976
1.17973
1.1797
1.17967
1.17963
1.1796
1.17956
1.17953
1.17949
1.17945
1.17942
1.17938
1.17934
1.1793
1.17926
1.17922
1.17918
1.17914
1.1791
1.17905
1.17901
1.17897
1.17893
1.17889
1.17885
1.17881
1.17877
1.17873
1.1787
1.17866
1.17862
1.17859
1.17855
1.17852
1.17849
1.17846
1.17843
1.17841
1.17838
1.17836
1.17834
1.17832
1.1783
1.17828
1.17827
1.17826
1.17825
1.17824
1.17823
1.17823
1.17822
1.17822
1.17822
1.17823
1.17823
1.17824
1.17825
1.17826
1.17827
1.17829
1.1783
1.17832
1.17834
1.17837
1.17839
1.17842
1.17845
1.17848
1.17851
1.17855
1.17858
1.17863
1.17867
1.17871
1.17876
1.17881
1.17887
1.17892
1.17898
1.17905
1.17911
1.17918
1.17926
1.17934
1.17942
1.17951
1.1796
1.1797
1.1798
1.17991
1.18002
1.18014
1.18026
1.18039
1.18053
1.18067
1.18083
1.18098
1.18115
1.18132
1.1815
1.18169
1.18189
1.18209
1.1823
1.18252
1.18275
1.18299
1.18323
1.18348
1.18374
1.184
1.18427
1.18455
1.18483
1.18512
1.18542
1.18572
1.18602
1.18632
1.18663
1.18694
1.18725
1.18756
1.18787
1.18818
1.18848
1.18878
1.18908
1.18937
1.18966
1.18994
1.19022
1.19048
1.19074
1.191
1.19124
1.19147
1.1917
1.19191
1.19212
1.19232
1.19251
1.1927
1.19287
1.19304
1.19319
1.19335
1.19349
1.19363
1.19376
1.19389
1.19401
1.19412
1.19423
1.19433
1.19443
1.19452
1.19461
1.1947
1.19478
1.19485
1.19492
1.19499
1.19505
1.19511
1.19516
1.19521
1.19525
1.19529
1.19532
1.19535
1.19537
1.19539
1.1954
1.19541
1.19541
1.19541
1.1954
1.1954
1.19539
1.19537
1.19536
1.19534
1.19533
1.19531
1.19529
1.19528
1.19527
1.19526
1.19526
1.19526
1.19527
1.19528
1.19531
1.19534
1.19538
1.19543
1.1955
1.19558
1.19567
1.19578
1.19591
1.19605
1.19622
1.1964
1.1966
1.19682
1.19707
1.19734
1.19764
1.19796
1.19831
1.19868
1.19909
1.19953
1.19999
1.20049
1.20102
1.20159
1.20219
1.20283
1.20351
1.20423
1.20499
1.2058
1.20665
1.20756
1.20852
1.20954
1.21062
1.21178
1.21302
1.21434
1.21577
1.21732
1.219
1.22085
1.2229
1.22519
1.22779
1.2308
1.23435
1.23867
1.24424
1.25201
1.26295
1.27879
1.31048
1.12347
1.13416
1.14548
1.15434
1.15898
1.16142
1.16296
1.16407
1.1649
1.16552
1.16599
1.16636
1.16666
1.1669
1.1671
1.16728
1.16742
1.16755
1.16766
1.16775
1.16783
1.16791
1.16797
1.16803
1.16808
1.16813
1.16817
1.16821
1.16825
1.16828
1.16831
1.16833
1.16836
1.16838
1.1684
1.16842
1.16843
1.16845
1.16846
1.16847
1.16849
1.1685
1.16851
1.16852
1.16853
1.16854
1.16855
1.16856
1.16857
1.16859
1.1686
1.16862
1.16864
1.16866
1.16869
1.16871
1.16874
1.16878
1.16882
1.16886
1.16891
1.16896
1.16902
1.16908
1.16915
1.16923
1.16931
1.1694
1.1695
1.1696
1.16972
1.16983
1.16996
1.17009
1.17023
1.17038
1.17054
1.1707
1.17087
1.17105
1.17124
1.17143
1.17163
1.17184
1.17205
1.17227
1.17249
1.17272
1.17295
1.17319
1.17343
1.17367
1.17392
1.17417
1.17442
1.17466
1.17491
1.17516
1.17541
1.17566
1.1759
1.17614
1.17638
1.17661
1.17684
1.17706
1.17728
1.17749
1.17769
1.17789
1.17808
1.17826
1.17843
1.1786
1.17875
1.17889
1.17903
1.17915
1.17927
1.17937
1.17947
1.17956
1.17964
1.17971
1.17977
1.17982
1.17987
1.17991
1.17994
1.17997
1.17999
1.18
1.18001
1.18002
1.18002
1.18002
1.18002
1.18001
1.18001
1.18
1.17998
1.17997
1.17995
1.17993
1.17991
1.17989
1.17987
1.17984
1.17982
1.17979
1.17977
1.17974
1.17971
1.17968
1.17964
1.17961
1.17958
1.17954
1.17951
1.17947
1.17944
1.1794
1.17936
1.17932
1.17928
1.17924
1.1792
1.17916
1.17912
1.17908
1.17904
1.179
1.17896
1.17892
1.17888
1.17884
1.1788
1.17876
1.17872
1.17868
1.17865
1.17861
1.17858
1.17854
1.17851
1.17848
1.17845
1.17842
1.1784
1.17837
1.17835
1.17833
1.17831
1.17829
1.17828
1.17826
1.17825
1.17824
1.17823
1.17822
1.17822
1.17822
1.17822
1.17822
1.17822
1.17823
1.17823
1.17824
1.17825
1.17827
1.17828
1.1783
1.17832
1.17834
1.17836
1.17839
1.17841
1.17844
1.17847
1.17851
1.17854
1.17858
1.17862
1.17866
1.17871
1.17876
1.17881
1.17886
1.17892
1.17898
1.17905
1.17911
1.17919
1.17926
1.17934
1.17942
1.17951
1.1796
1.1797
1.1798
1.17991
1.18003
1.18015
1.18027
1.1804
1.18054
1.18069
1.18084
1.181
1.18116
1.18134
1.18152
1.18171
1.18191
1.18211
1.18232
1.18254
1.18277
1.18301
1.18325
1.1835
1.18376
1.18403
1.1843
1.18458
1.18486
1.18515
1.18545
1.18574
1.18605
1.18635
1.18666
1.18697
1.18728
1.18758
1.18789
1.1882
1.1885
1.1888
1.1891
1.18939
1.18968
1.18995
1.19023
1.19049
1.19075
1.191
1.19124
1.19147
1.1917
1.19191
1.19212
1.19232
1.19251
1.19269
1.19286
1.19303
1.19318
1.19333
1.19348
1.19362
1.19375
1.19387
1.19399
1.1941
1.19421
1.19432
1.19441
1.19451
1.1946
1.19468
1.19476
1.19484
1.19491
1.19497
1.19503
1.19509
1.19514
1.19519
1.19523
1.19527
1.1953
1.19532
1.19534
1.19536
1.19537
1.19538
1.19538
1.19538
1.19538
1.19537
1.19536
1.19535
1.19533
1.19532
1.1953
1.19529
1.19527
1.19526
1.19525
1.19524
1.19524
1.19525
1.19525
1.19527
1.1953
1.19533
1.19538
1.19543
1.1955
1.19559
1.19568
1.19579
1.19592
1.19607
1.19624
1.19642
1.19663
1.19686
1.19711
1.19738
1.19768
1.19801
1.19836
1.19874
1.19915
1.19959
1.20006
1.20057
1.2011
1.20167
1.20228
1.20293
1.20361
1.20434
1.20511
1.20592
1.20678
1.2077
1.20867
1.2097
1.2108
1.21197
1.21323
1.21458
1.21603
1.21761
1.21933
1.22123
1.22335
1.22573
1.22844
1.23161
1.23539
1.24006
1.24594
1.25357
1.26471
1.28423
1.31514
1.14231
1.14154
1.14827
1.15386
1.15742
1.15997
1.16181
1.16312
1.16408
1.1648
1.16537
1.16582
1.16619
1.16649
1.16673
1.16694
1.16712
1.16728
1.16741
1.16752
1.16763
1.16772
1.1678
1.16787
1.16793
1.16799
1.16804
1.16809
1.16813
1.16817
1.1682
1.16823
1.16826
1.16829
1.16831
1.16833
1.16835
1.16837
1.16839
1.1684
1.16842
1.16843
1.16845
1.16846
1.16847
1.16849
1.1685
1.16851
1.16853
1.16854
1.16856
1.16858
1.1686
1.16862
1.16865
1.16868
1.16871
1.16875
1.16879
1.16883
1.16888
1.16894
1.169
1.16906
1.16914
1.16921
1.1693
1.16939
1.16949
1.16959
1.16971
1.16983
1.16996
1.17009
1.17023
1.17038
1.17054
1.17071
1.17088
1.17106
1.17125
1.17144
1.17164
1.17185
1.17206
1.17228
1.1725
1.17273
1.17297
1.1732
1.17345
1.17369
1.17394
1.17418
1.17443
1.17468
1.17493
1.17518
1.17543
1.17567
1.17591
1.17615
1.17639
1.17662
1.17685
1.17707
1.17729
1.17749
1.1777
1.17789
1.17808
1.17826
1.17843
1.17859
1.17874
1.17888
1.17902
1.17914
1.17925
1.17936
1.17945
1.17953
1.17961
1.17968
1.17974
1.17979
1.17984
1.17987
1.17991
1.17993
1.17995
1.17997
1.17998
1.17999
1.17999
1.17999
1.17999
1.17998
1.17997
1.17996
1.17995
1.17993
1.17992
1.1799
1.17988
1.17986
1.17984
1.17981
1.17979
1.17976
1.17973
1.17971
1.17968
1.17965
1.17961
1.17958
1.17955
1.17952
1.17948
1.17944
1.17941
1.17937
1.17933
1.1793
1.17926
1.17922
1.17918
1.17914
1.1791
1.17906
1.17902
1.17898
1.17894
1.1789
1.17886
1.17882
1.17878
1.17874
1.1787
1.17866
1.17863
1.17859
1.17856
1.17853
1.1785
1.17846
1.17844
1.17841
1.17838
1.17836
1.17834
1.17831
1.1783
1.17828
1.17826
1.17825
1.17824
1.17823
1.17822
1.17821
1.17821
1.1782
1.1782
1.1782
1.17821
1.17821
1.17822
1.17823
1.17824
1.17825
1.17827
1.17829
1.1783
1.17833
1.17835
1.17837
1.1784
1.17843
1.17846
1.1785
1.17853
1.17857
1.17861
1.17865
1.1787
1.17875
1.1788
1.17885
1.17891
1.17897
1.17904
1.1791
1.17918
1.17925
1.17933
1.17941
1.1795
1.1796
1.17969
1.1798
1.17991
1.18002
1.18014
1.18027
1.1804
1.18054
1.18069
1.18084
1.181
1.18117
1.18134
1.18152
1.18171
1.18191
1.18212
1.18233
1.18255
1.18278
1.18302
1.18327
1.18352
1.18378
1.18404
1.18432
1.1846
1.18488
1.18517
1.18547
1.18576
1.18607
1.18637
1.18668
1.18699
1.1873
1.18761
1.18791
1.18822
1.18852
1.18882
1.18912
1.18941
1.18969
1.18997
1.19024
1.19051
1.19076
1.19101
1.19125
1.19148
1.1917
1.19192
1.19212
1.19232
1.19251
1.19269
1.19286
1.19302
1.19318
1.19333
1.19347
1.19361
1.19374
1.19386
1.19398
1.19409
1.1942
1.1943
1.1944
1.19449
1.19458
1.19467
1.19474
1.19482
1.19489
1.19495
1.19502
1.19507
1.19512
1.19517
1.19521
1.19524
1.19528
1.1953
1.19532
1.19534
1.19535
1.19536
1.19536
1.19536
1.19535
1.19535
1.19533
1.19532
1.19531
1.19529
1.19528
1.19526
1.19525
1.19523
1.19523
1.19522
1.19522
1.19522
1.19523
1.19525
1.19528
1.19532
1.19536
1.19542
1.19549
1.19558
1.19567
1.19579
1.19592
1.19607
1.19624
1.19643
1.19663
1.19687
1.19712
1.1974
1.1977
1.19803
1.19839
1.19877
1.19918
1.19963
1.2001
1.20061
1.20115
1.20172
1.20234
1.20299
1.20367
1.2044
1.20518
1.206
1.20686
1.20778
1.20876
1.2098
1.2109
1.21208
1.21334
1.2147
1.21616
1.21775
1.21949
1.2214
1.22353
1.22593
1.22866
1.23182
1.23556
1.24006
1.24571
1.25301
1.26217
1.2721
1.28158
1.15048
1.14966
1.15187
1.15453
1.15733
1.15958
1.16124
1.1625
1.16349
1.16426
1.16488
1.16538
1.16579
1.16612
1.16641
1.16665
1.16685
1.16703
1.16718
1.16731
1.16743
1.16753
1.16763
1.16771
1.16778
1.16785
1.16791
1.16796
1.16801
1.16806
1.1681
1.16813
1.16817
1.1682
1.16823
1.16825
1.16828
1.1683
1.16832
1.16834
1.16835
1.16837
1.16839
1.1684
1.16842
1.16843
1.16844
1.16846
1.16848
1.16849
1.16851
1.16853
1.16856
1.16858
1.16861
1.16864
1.16867
1.16871
1.16875
1.1688
1.16885
1.16891
1.16897
1.16904
1.16911
1.16919
1.16928
1.16937
1.16947
1.16958
1.16969
1.16981
1.16994
1.17008
1.17022
1.17037
1.17053
1.1707
1.17088
1.17106
1.17125
1.17144
1.17164
1.17185
1.17207
1.17229
1.17251
1.17274
1.17298
1.17322
1.17346
1.1737
1.17395
1.1742
1.17445
1.1747
1.17495
1.17519
1.17544
1.17569
1.17593
1.17617
1.1764
1.17663
1.17686
1.17708
1.1773
1.1775
1.1777
1.1779
1.17808
1.17826
1.17843
1.17859
1.17874
1.17888
1.17901
1.17913
1.17924
1.17934
1.17943
1.17952
1.17959
1.17966
1.17971
1.17976
1.17981
1.17984
1.17987
1.1799
1.17992
1.17993
1.17994
1.17995
1.17995
1.17995
1.17995
1.17994
1.17993
1.17992
1.17991
1.17989
1.17988
1.17986
1.17984
1.17982
1.1798
1.17977
1.17975
1.17972
1.17969
1.17967
1.17964
1.17961
1.17958
1.17955
1.17951
1.17948
1.17944
1.17941
1.17937
1.17934
1.1793
1.17926
1.17922
1.17918
1.17915
1.17911
1.17907
1.17903
1.17899
1.17895
1.17891
1.17887
1.17883
1.17879
1.17875
1.17871
1.17867
1.17864
1.1786
1.17857
1.17853
1.1785
1.17847
1.17844
1.17841
1.17839
1.17836
1.17834
1.17831
1.17829
1.17827
1.17826
1.17824
1.17823
1.17822
1.17821
1.1782
1.17819
1.17819
1.17818
1.17818
1.17819
1.17819
1.17819
1.1782
1.17821
1.17822
1.17824
1.17825
1.17827
1.17829
1.17831
1.17833
1.17835
1.17838
1.17841
1.17844
1.17848
1.17851
1.17855
1.17859
1.17863
1.17868
1.17873
1.17878
1.17883
1.17889
1.17895
1.17902
1.17909
1.17916
1.17923
1.17931
1.1794
1.17948
1.17958
1.17968
1.17978
1.17989
1.18
1.18013
1.18025
1.18039
1.18053
1.18067
1.18083
1.18099
1.18115
1.18133
1.18151
1.18171
1.1819
1.18211
1.18233
1.18255
1.18278
1.18302
1.18326
1.18352
1.18378
1.18405
1.18432
1.1846
1.18489
1.18518
1.18548
1.18578
1.18608
1.18639
1.18669
1.187
1.18731
1.18762
1.18793
1.18824
1.18854
1.18884
1.18914
1.18943
1.18971
1.18999
1.19026
1.19052
1.19078
1.19102
1.19126
1.19149
1.19171
1.19192
1.19213
1.19232
1.19251
1.19269
1.19286
1.19302
1.19318
1.19332
1.19347
1.1936
1.19373
1.19385
1.19397
1.19408
1.19419
1.19429
1.19439
1.19448
1.19457
1.19465
1.19473
1.19481
1.19487
1.19494
1.195
1.19506
1.19511
1.19515
1.19519
1.19523
1.19526
1.19528
1.1953
1.19532
1.19533
1.19534
1.19534
1.19533
1.19533
1.19532
1.19531
1.1953
1.19528
1.19526
1.19525
1.19523
1.19522
1.19521
1.1952
1.19519
1.19519
1.19519
1.1952
1.19522
1.19525
1.19529
1.19533
1.19539
1.19546
1.19555
1.19565
1.19577
1.1959
1.19605
1.19622
1.19641
1.19662
1.19685
1.19711
1.19739
1.19769
1.19802
1.19838
1.19877
1.19918
1.19963
1.20011
1.20062
1.20116
1.20174
1.20235
1.203
1.20369
1.20443
1.2052
1.20602
1.20689
1.20781
1.20879
1.20983
1.21093
1.21211
1.21337
1.21472
1.21617
1.21775
1.21947
1.22137
1.22346
1.2258
1.22845
1.23148
1.235
1.23912
1.24395
1.24954
1.25575
1.2608
1.26095
1.15472
1.15425
1.15488
1.15634
1.15812
1.15971
1.16109
1.16223
1.16316
1.16391
1.16453
1.16504
1.16546
1.16582
1.16613
1.16639
1.16661
1.1668
1.16697
1.16712
1.16725
1.16737
1.16747
1.16756
1.16764
1.16772
1.16779
1.16785
1.1679
1.16795
1.168
1.16804
1.16808
1.16811
1.16814
1.16817
1.1682
1.16822
1.16825
1.16827
1.16829
1.1683
1.16832
1.16834
1.16836
1.16837
1.16839
1.1684
1.16842
1.16844
1.16846
1.16848
1.16851
1.16853
1.16856
1.16859
1.16863
1.16867
1.16871
1.16876
1.16881
1.16887
1.16893
1.169
1.16907
1.16916
1.16924
1.16934
1.16944
1.16955
1.16967
1.16979
1.16992
1.17006
1.1702
1.17036
1.17052
1.17069
1.17086
1.17105
1.17124
1.17143
1.17164
1.17185
1.17207
1.17229
1.17252
1.17275
1.17298
1.17322
1.17347
1.17371
1.17396
1.17421
1.17446
1.17471
1.17496
1.17521
1.17546
1.1757
1.17595
1.17618
1.17642
1.17665
1.17688
1.1771
1.17731
1.17752
1.17772
1.17791
1.17809
1.17827
1.17844
1.17859
1.17874
1.17888
1.17901
1.17913
1.17923
1.17933
1.17942
1.1795
1.17957
1.17964
1.17969
1.17974
1.17978
1.17981
1.17984
1.17986
1.17988
1.17989
1.1799
1.17991
1.17991
1.17991
1.1799
1.17989
1.17989
1.17987
1.17986
1.17985
1.17983
1.17981
1.17979
1.17977
1.17975
1.17972
1.1797
1.17967
1.17965
1.17962
1.17959
1.17956
1.17953
1.1795
1.17947
1.17943
1.1794
1.17937
1.17933
1.17929
1.17926
1.17922
1.17918
1.17914
1.1791
1.17907
1.17903
1.17899
1.17895
1.17891
1.17887
1.17883
1.17879
1.17875
1.17872
1.17868
1.17864
1.17861
1.17857
1.17854
1.1785
1.17847
1.17844
1.17841
1.17838
1.17836
1.17833
1.17831
1.17829
1.17827
1.17825
1.17823
1.17822
1.1782
1.17819
1.17818
1.17817
1.17817
1.17816
1.17816
1.17816
1.17816
1.17817
1.17817
1.17818
1.17819
1.1782
1.17821
1.17823
1.17824
1.17826
1.17828
1.17831
1.17833
1.17836
1.17839
1.17842
1.17845
1.17849
1.17852
1.17856
1.17861
1.17865
1.1787
1.17875
1.17881
1.17886
1.17893
1.17899
1.17906
1.17913
1.1792
1.17928
1.17937
1.17946
1.17955
1.17965
1.17975
1.17986
1.17998
1.1801
1.18022
1.18036
1.1805
1.18065
1.1808
1.18096
1.18113
1.18131
1.18149
1.18168
1.18188
1.18209
1.18231
1.18253
1.18276
1.183
1.18325
1.18351
1.18377
1.18404
1.18432
1.1846
1.18489
1.18518
1.18548
1.18578
1.18609
1.18639
1.1867
1.18702
1.18733
1.18764
1.18795
1.18826
1.18856
1.18886
1.18916
1.18945
1.18973
1.19001
1.19028
1.19054
1.1908
1.19104
1.19128
1.19151
1.19173
1.19194
1.19214
1.19233
1.19252
1.19269
1.19286
1.19302
1.19318
1.19332
1.19346
1.1936
1.19373
1.19385
1.19396
1.19407
1.19418
1.19428
1.19438
1.19447
1.19456
1.19464
1.19472
1.19479
1.19486
1.19493
1.19499
1.19504
1.19509
1.19514
1.19518
1.19521
1.19524
1.19527
1.19528
1.1953
1.19531
1.19531
1.19531
1.19531
1.19531
1.1953
1.19528
1.19527
1.19525
1.19523
1.19522
1.1952
1.19518
1.19517
1.19516
1.19515
1.19515
1.19516
1.19517
1.19519
1.19521
1.19525
1.1953
1.19535
1.19543
1.19551
1.19561
1.19573
1.19586
1.19601
1.19618
1.19637
1.19658
1.19682
1.19707
1.19735
1.19766
1.19799
1.19835
1.19874
1.19916
1.1996
1.20008
1.20059
1.20114
1.20171
1.20233
1.20298
1.20367
1.2044
1.20518
1.206
1.20686
1.20778
1.20875
1.20979
1.21088
1.21205
1.21329
1.21463
1.21606
1.21761
1.21929
1.22113
1.22315
1.22538
1.22787
1.23067
1.23382
1.23736
1.24125
1.24525
1.24883
1.2513
1.25065
1.15759
1.15711
1.15727
1.15806
1.15911
1.16022
1.16129
1.16223
1.16304
1.16373
1.16431
1.16481
1.16523
1.16559
1.1659
1.16617
1.16641
1.16661
1.16679
1.16695
1.16709
1.16721
1.16732
1.16742
1.16751
1.16759
1.16767
1.16773
1.1678
1.16785
1.1679
1.16795
1.16799
1.16803
1.16806
1.16809
1.16812
1.16815
1.16817
1.1682
1.16822
1.16824
1.16826
1.16828
1.16829
1.16831
1.16833
1.16835
1.16837
1.16838
1.16841
1.16843
1.16845
1.16848
1.16851
1.16854
1.16858
1.16862
1.16866
1.16871
1.16876
1.16882
1.16889
1.16896
1.16903
1.16911
1.1692
1.1693
1.1694
1.16951
1.16963
1.16975
1.16989
1.17003
1.17018
1.17033
1.17049
1.17066
1.17084
1.17103
1.17122
1.17142
1.17163
1.17184
1.17206
1.17228
1.17251
1.17274
1.17298
1.17322
1.17347
1.17372
1.17397
1.17422
1.17447
1.17472
1.17497
1.17522
1.17547
1.17572
1.17596
1.1762
1.17644
1.17667
1.17689
1.17711
1.17733
1.17753
1.17773
1.17792
1.17811
1.17828
1.17845
1.1786
1.17875
1.17888
1.17901
1.17913
1.17923
1.17933
1.17942
1.17949
1.17956
1.17962
1.17967
1.17972
1.17975
1.17979
1.17981
1.17983
1.17985
1.17986
1.17986
1.17986
1.17986
1.17986
1.17985
1.17985
1.17984
1.17982
1.17981
1.17979
1.17978
1.17976
1.17974
1.17972
1.17969
1.17967
1.17965
1.17962
1.17959
1.17957
1.17954
1.17951
1.17948
1.17945
1.17942
1.17938
1.17935
1.17931
1.17928
1.17924
1.17921
1.17917
1.17913
1.1791
1.17906
1.17902
1.17898
1.17894
1.1789
1.17886
1.17882
1.17879
1.17875
1.17871
1.17867
1.17864
1.1786
1.17857
1.17853
1.1785
1.17847
1.17843
1.1784
1.17838
1.17835
1.17832
1.1783
1.17827
1.17825
1.17823
1.17821
1.1782
1.17818
1.17817
1.17816
1.17815
1.17814
1.17814
1.17813
1.17813
1.17813
1.17813
1.17813
1.17814
1.17815
1.17816
1.17817
1.17818
1.17819
1.17821
1.17823
1.17825
1.17827
1.1783
1.17832
1.17835
1.17838
1.17842
1.17845
1.17849
1.17853
1.17857
1.17862
1.17867
1.17872
1.17877
1.17883
1.17889
1.17895
1.17902
1.17909
1.17917
1.17925
1.17933
1.17942
1.17951
1.17961
1.17971
1.17982
1.17994
1.18006
1.18019
1.18032
1.18046
1.18061
1.18076
1.18092
1.18109
1.18127
1.18146
1.18165
1.18185
1.18206
1.18228
1.1825
1.18273
1.18298
1.18323
1.18348
1.18375
1.18402
1.1843
1.18458
1.18487
1.18517
1.18547
1.18577
1.18608
1.18639
1.18671
1.18702
1.18733
1.18765
1.18796
1.18827
1.18858
1.18888
1.18918
1.18947
1.18975
1.19003
1.1903
1.19056
1.19082
1.19106
1.1913
1.19153
1.19175
1.19196
1.19216
1.19235
1.19253
1.19271
1.19287
1.19303
1.19318
1.19333
1.19347
1.1936
1.19372
1.19384
1.19396
1.19407
1.19417
1.19427
1.19437
1.19446
1.19455
1.19463
1.19471
1.19478
1.19485
1.19492
1.19497
1.19503
1.19508
1.19512
1.19516
1.1952
1.19523
1.19525
1.19527
1.19528
1.19529
1.1953
1.19529
1.19529
1.19528
1.19527
1.19526
1.19524
1.19522
1.1952
1.19518
1.19517
1.19515
1.19513
1.19512
1.19511
1.19511
1.19511
1.19512
1.19514
1.19516
1.1952
1.19525
1.1953
1.19537
1.19546
1.19556
1.19567
1.19581
1.19596
1.19613
1.19632
1.19653
1.19676
1.19702
1.1973
1.1976
1.19794
1.1983
1.19868
1.1991
1.19955
1.20002
1.20053
1.20108
1.20165
1.20227
1.20292
1.20361
1.20434
1.20511
1.20592
1.20678
1.20769
1.20866
1.20968
1.21076
1.21191
1.21313
1.21443
1.21583
1.21733
1.21895
1.22071
1.22262
1.2247
1.22699
1.22949
1.23222
1.23512
1.23809
1.24089
1.24305
1.24416
1.2439
1.15958
1.15908
1.15908
1.15948
1.16011
1.16088
1.16166
1.16241
1.16308
1.16369
1.16422
1.16468
1.16508
1.16543
1.16574
1.166
1.16624
1.16645
1.16663
1.1668
1.16694
1.16707
1.16719
1.1673
1.16739
1.16748
1.16756
1.16763
1.16769
1.16775
1.16781
1.16786
1.1679
1.16794
1.16798
1.16801
1.16805
1.16808
1.1681
1.16813
1.16815
1.16817
1.16819
1.16821
1.16823
1.16825
1.16827
1.16829
1.16831
1.16833
1.16835
1.16837
1.1684
1.16842
1.16845
1.16849
1.16852
1.16856
1.16861
1.16866
1.16871
1.16877
1.16884
1.16891
1.16898
1.16907
1.16916
1.16925
1.16936
1.16947
1.16959
1.16972
1.16985
1.16999
1.17014
1.1703
1.17046
1.17064
1.17082
1.171
1.1712
1.1714
1.17161
1.17182
1.17204
1.17227
1.1725
1.17274
1.17298
1.17322
1.17347
1.17372
1.17397
1.17423
1.17448
1.17473
1.17499
1.17524
1.17549
1.17573
1.17598
1.17622
1.17646
1.17669
1.17691
1.17713
1.17735
1.17755
1.17775
1.17794
1.17813
1.1783
1.17846
1.17862
1.17876
1.17889
1.17902
1.17913
1.17923
1.17933
1.17941
1.17948
1.17955
1.17961
1.17965
1.17969
1.17973
1.17976
1.17978
1.17979
1.17981
1.17981
1.17982
1.17982
1.17982
1.17981
1.1798
1.17979
1.17978
1.17977
1.17975
1.17974
1.17972
1.1797
1.17968
1.17966
1.17963
1.17961
1.17959
1.17956
1.17953
1.17951
1.17948
1.17945
1.17942
1.17939
1.17936
1.17932
1.17929
1.17926
1.17922
1.17919
1.17915
1.17911
1.17908
1.17904
1.179
1.17896
1.17893
1.17889
1.17885
1.17881
1.17877
1.17874
1.1787
1.17866
1.17863
1.17859
1.17855
1.17852
1.17849
1.17845
1.17842
1.17839
1.17836
1.17833
1.17831
1.17828
1.17826
1.17823
1.17821
1.17819
1.17818
1.17816
1.17815
1.17813
1.17812
1.17811
1.17811
1.1781
1.1781
1.17809
1.17809
1.1781
1.1781
1.1781
1.17811
1.17812
1.17813
1.17814
1.17816
1.17817
1.17819
1.17821
1.17824
1.17826
1.17829
1.17831
1.17835
1.17838
1.17841
1.17845
1.17849
1.17853
1.17858
1.17862
1.17867
1.17873
1.17878
1.17884
1.17891
1.17897
1.17904
1.17912
1.1792
1.17928
1.17937
1.17946
1.17956
1.17966
1.17977
1.17989
1.18001
1.18014
1.18027
1.18041
1.18056
1.18071
1.18087
1.18104
1.18122
1.18141
1.1816
1.1818
1.18201
1.18223
1.18246
1.18269
1.18294
1.18319
1.18345
1.18371
1.18399
1.18427
1.18456
1.18485
1.18515
1.18545
1.18576
1.18607
1.18638
1.1867
1.18702
1.18734
1.18765
1.18797
1.18828
1.18859
1.18889
1.18919
1.18949
1.18977
1.19005
1.19033
1.19059
1.19084
1.19109
1.19132
1.19155
1.19177
1.19198
1.19218
1.19237
1.19255
1.19272
1.19288
1.19304
1.19319
1.19333
1.19347
1.1936
1.19373
1.19384
1.19396
1.19407
1.19417
1.19427
1.19436
1.19445
1.19454
1.19462
1.1947
1.19477
1.19484
1.19491
1.19496
1.19502
1.19507
1.19511
1.19515
1.19518
1.19521
1.19524
1.19525
1.19527
1.19527
1.19528
1.19527
1.19527
1.19526
1.19525
1.19523
1.19521
1.19519
1.19517
1.19515
1.19513
1.19511
1.19509
1.19508
1.19507
1.19506
1.19506
1.19507
1.19509
1.19511
1.19514
1.19519
1.19524
1.19531
1.19539
1.19549
1.19561
1.19574
1.19589
1.19606
1.19624
1.19645
1.19669
1.19694
1.19722
1.19753
1.19786
1.19821
1.1986
1.19902
1.19946
1.19994
1.20045
1.20099
1.20156
1.20217
1.20282
1.2035
1.20423
1.20499
1.2058
1.20665
1.20755
1.2085
1.2095
1.21056
1.21169
1.21288
1.21414
1.21549
1.21693
1.21847
1.22013
1.22191
1.22382
1.22587
1.22806
1.23036
1.23269
1.23491
1.23685
1.23823
1.23877
1.23855
1.16097
1.16053
1.16045
1.16063
1.16103
1.16154
1.16211
1.16269
1.16324
1.16375
1.16421
1.16463
1.165
1.16533
1.16562
1.16588
1.16612
1.16632
1.16651
1.16667
1.16682
1.16696
1.16708
1.16719
1.16729
1.16738
1.16746
1.16753
1.1676
1.16766
1.16772
1.16777
1.16782
1.16786
1.1679
1.16794
1.16797
1.16801
1.16803
1.16806
1.16809
1.16811
1.16813
1.16815
1.16817
1.16819
1.16821
1.16823
1.16825
1.16827
1.16829
1.16831
1.16834
1.16837
1.1684
1.16843
1.16847
1.16851
1.16855
1.1686
1.16866
1.16872
1.16878
1.16885
1.16893
1.16901
1.16911
1.1692
1.16931
1.16942
1.16954
1.16967
1.1698
1.16995
1.1701
1.17026
1.17042
1.1706
1.17078
1.17097
1.17117
1.17137
1.17158
1.1718
1.17202
1.17225
1.17248
1.17272
1.17297
1.17321
1.17346
1.17372
1.17397
1.17423
1.17448
1.17474
1.17499
1.17525
1.1755
1.17575
1.17599
1.17623
1.17647
1.1767
1.17693
1.17715
1.17737
1.17757
1.17777
1.17796
1.17814
1.17832
1.17848
1.17863
1.17878
1.17891
1.17903
1.17914
1.17924
1.17933
1.17941
1.17948
1.17954
1.17959
1.17964
1.17967
1.1797
1.17973
1.17975
1.17976
1.17977
1.17977
1.17977
1.17977
1.17977
1.17976
1.17975
1.17974
1.17972
1.17971
1.17969
1.17967
1.17966
1.17964
1.17961
1.17959
1.17957
1.17955
1.17952
1.17949
1.17947
1.17944
1.17941
1.17938
1.17935
1.17932
1.17929
1.17926
1.17923
1.17919
1.17916
1.17912
1.17909
1.17905
1.17902
1.17898
1.17894
1.1789
1.17887
1.17883
1.17879
1.17875
1.17872
1.17868
1.17864
1.17861
1.17857
1.17854
1.1785
1.17847
1.17843
1.1784
1.17837
1.17834
1.17831
1.17829
1.17826
1.17823
1.17821
1.17819
1.17817
1.17815
1.17813
1.17812
1.1781
1.17809
1.17808
1.17807
1.17806
1.17806
1.17805
1.17805
1.17805
1.17805
1.17806
1.17806
1.17807
1.17808
1.17809
1.1781
1.17812
1.17813
1.17815
1.17817
1.17819
1.17822
1.17824
1.17827
1.1783
1.17833
1.17837
1.1784
1.17844
1.17848
1.17853
1.17857
1.17862
1.17868
1.17873
1.17879
1.17885
1.17892
1.17899
1.17906
1.17914
1.17922
1.17931
1.1794
1.1795
1.1796
1.17971
1.17983
1.17995
1.18007
1.18021
1.18035
1.18049
1.18065
1.18081
1.18098
1.18116
1.18135
1.18154
1.18174
1.18195
1.18217
1.1824
1.18264
1.18288
1.18314
1.1834
1.18367
1.18394
1.18423
1.18452
1.18481
1.18511
1.18542
1.18573
1.18605
1.18637
1.18669
1.18701
1.18733
1.18765
1.18797
1.18829
1.1886
1.18891
1.18921
1.18951
1.1898
1.19008
1.19035
1.19061
1.19087
1.19112
1.19135
1.19158
1.19179
1.192
1.1922
1.19239
1.19257
1.19274
1.1929
1.19305
1.1932
1.19334
1.19348
1.19361
1.19373
1.19385
1.19396
1.19407
1.19417
1.19427
1.19436
1.19445
1.19453
1.19462
1.19469
1.19477
1.19483
1.1949
1.19496
1.19501
1.19506
1.1951
1.19514
1.19517
1.1952
1.19522
1.19524
1.19525
1.19526
1.19526
1.19526
1.19525
1.19524
1.19522
1.1952
1.19518
1.19516
1.19514
1.19511
1.19509
1.19507
1.19505
1.19503
1.19502
1.19501
1.19501
1.19501
1.19503
1.19505
1.19508
1.19512
1.19517
1.19524
1.19532
1.19541
1.19553
1.19566
1.1958
1.19597
1.19615
1.19636
1.19659
1.19685
1.19712
1.19742
1.19775
1.19811
1.19849
1.19891
1.19935
1.19982
1.20033
1.20086
1.20143
1.20204
1.20268
1.20336
1.20407
1.20483
1.20562
1.20646
1.20735
1.20828
1.20926
1.2103
1.21139
1.21254
1.21376
1.21505
1.21642
1.21787
1.21941
1.22105
1.22278
1.2246
1.22648
1.22839
1.23023
1.23191
1.23326
1.23416
1.23446
1.23416
1.162
1.16163
1.1615
1.16158
1.16182
1.16217
1.16258
1.16302
1.16346
1.16388
1.16428
1.16465
1.16498
1.16528
1.16556
1.1658
1.16603
1.16623
1.16641
1.16657
1.16672
1.16686
1.16698
1.16709
1.16719
1.16728
1.16737
1.16744
1.16751
1.16758
1.16764
1.16769
1.16774
1.16779
1.16783
1.16787
1.1679
1.16794
1.16797
1.16799
1.16802
1.16804
1.16807
1.16809
1.16811
1.16813
1.16815
1.16817
1.16819
1.16821
1.16823
1.16825
1.16828
1.16831
1.16834
1.16837
1.16841
1.16845
1.16849
1.16854
1.1686
1.16866
1.16872
1.16879
1.16887
1.16896
1.16905
1.16915
1.16925
1.16937
1.16949
1.16962
1.16976
1.1699
1.17005
1.17021
1.17038
1.17056
1.17074
1.17093
1.17113
1.17134
1.17155
1.17177
1.172
1.17223
1.17246
1.17271
1.17295
1.1732
1.17346
1.17371
1.17397
1.17423
1.17449
1.17474
1.175
1.17526
1.17551
1.17576
1.17601
1.17625
1.17649
1.17672
1.17695
1.17717
1.17739
1.17759
1.17779
1.17798
1.17817
1.17834
1.1785
1.17865
1.17879
1.17892
1.17904
1.17915
1.17925
1.17933
1.17941
1.17947
1.17953
1.17958
1.17962
1.17965
1.17968
1.1797
1.17971
1.17972
1.17973
1.17973
1.17973
1.17972
1.17971
1.1797
1.17969
1.17968
1.17966
1.17964
1.17963
1.17961
1.17959
1.17957
1.17955
1.17952
1.1795
1.17947
1.17945
1.17942
1.1794
1.17937
1.17934
1.17931
1.17928
1.17925
1.17922
1.17919
1.17916
1.17912
1.17909
1.17905
1.17902
1.17898
1.17895
1.17891
1.17888
1.17884
1.1788
1.17876
1.17873
1.17869
1.17865
1.17862
1.17858
1.17855
1.17851
1.17848
1.17844
1.17841
1.17838
1.17835
1.17832
1.17829
1.17826
1.17823
1.17821
1.17818
1.17816
1.17814
1.17812
1.1781
1.17808
1.17807
1.17805
1.17804
1.17803
1.17802
1.17802
1.17801
1.17801
1.17801
1.17801
1.17801
1.17801
1.17802
1.17802
1.17803
1.17804
1.17805
1.17807
1.17808
1.1781
1.17812
1.17814
1.17817
1.17819
1.17822
1.17825
1.17828
1.17831
1.17835
1.17839
1.17843
1.17847
1.17852
1.17857
1.17862
1.17867
1.17873
1.17879
1.17886
1.17893
1.179
1.17908
1.17916
1.17925
1.17934
1.17943
1.17954
1.17964
1.17976
1.17988
1.18
1.18014
1.18028
1.18042
1.18058
1.18074
1.18091
1.18109
1.18127
1.18147
1.18167
1.18189
1.18211
1.18233
1.18257
1.18282
1.18307
1.18334
1.18361
1.18389
1.18417
1.18447
1.18477
1.18507
1.18538
1.1857
1.18602
1.18634
1.18667
1.18699
1.18732
1.18764
1.18797
1.18829
1.18861
1.18892
1.18922
1.18952
1.18982
1.1901
1.19038
1.19064
1.1909
1.19114
1.19138
1.19161
1.19182
1.19203
1.19222
1.19241
1.19259
1.19276
1.19292
1.19307
1.19322
1.19335
1.19349
1.19361
1.19373
1.19385
1.19396
1.19406
1.19417
1.19426
1.19436
1.19444
1.19453
1.19461
1.19469
1.19476
1.19483
1.19489
1.19495
1.195
1.19505
1.19509
1.19513
1.19516
1.19519
1.19521
1.19523
1.19524
1.19524
1.19524
1.19524
1.19523
1.19521
1.1952
1.19518
1.19515
1.19513
1.1951
1.19507
1.19505
1.19502
1.195
1.19498
1.19496
1.19495
1.19495
1.19495
1.19496
1.19498
1.195
1.19504
1.19509
1.19516
1.19523
1.19533
1.19544
1.19556
1.19571
1.19587
1.19605
1.19626
1.19648
1.19673
1.19701
1.19731
1.19763
1.19798
1.19836
1.19877
1.19921
1.19968
1.20018
1.20071
1.20128
1.20187
1.20251
1.20318
1.20388
1.20463
1.20541
1.20623
1.2071
1.20801
1.20896
1.20997
1.21102
1.21213
1.2133
1.21453
1.21582
1.21717
1.2186
1.22009
1.22164
1.22323
1.22483
1.2264
1.22787
1.22913
1.23011
1.2307
1.23086
1.23052
1.16279
1.16248
1.16234
1.16235
1.16249
1.16273
1.16303
1.16336
1.16371
1.16406
1.16439
1.16471
1.16501
1.16528
1.16553
1.16576
1.16597
1.16616
1.16634
1.1665
1.16664
1.16678
1.1669
1.16701
1.16711
1.1672
1.16729
1.16737
1.16744
1.1675
1.16756
1.16762
1.16767
1.16772
1.16776
1.1678
1.16784
1.16787
1.1679
1.16793
1.16796
1.16798
1.16801
1.16803
1.16805
1.16807
1.16809
1.16811
1.16813
1.16815
1.16817
1.1682
1.16822
1.16825
1.16828
1.16831
1.16835
1.16839
1.16843
1.16848
1.16854
1.1686
1.16866
1.16873
1.16881
1.1689
1.16899
1.16909
1.1692
1.16931
1.16943
1.16956
1.1697
1.16985
1.17
1.17016
1.17033
1.17051
1.1707
1.17089
1.17109
1.1713
1.17151
1.17173
1.17196
1.1722
1.17244
1.17268
1.17293
1.17318
1.17344
1.1737
1.17396
1.17422
1.17448
1.17474
1.17501
1.17526
1.17552
1.17577
1.17602
1.17626
1.1765
1.17674
1.17697
1.17719
1.17741
1.17761
1.17781
1.178
1.17819
1.17836
1.17852
1.17867
1.17881
1.17894
1.17905
1.17916
1.17925
1.17934
1.17941
1.17947
1.17952
1.17957
1.1796
1.17963
1.17965
1.17967
1.17968
1.17968
1.17968
1.17968
1.17968
1.17967
1.17966
1.17964
1.17963
1.17961
1.1796
1.17958
1.17956
1.17954
1.17952
1.17949
1.17947
1.17945
1.17942
1.1794
1.17937
1.17935
1.17932
1.17929
1.17926
1.17923
1.1792
1.17917
1.17914
1.17911
1.17908
1.17905
1.17901
1.17898
1.17894
1.17891
1.17887
1.17884
1.1788
1.17877
1.17873
1.17869
1.17866
1.17862
1.17859
1.17855
1.17851
1.17848
1.17845
1.17841
1.17838
1.17835