# vtk DataFile Version 2.0
LBE mesh
ASCII
DATASET STRUCTURED_POINTS
DIMENSIONS 400 100 1
ASPECT_RATIO 1 1 1
ORIGIN 0 0 0
POINT_DATA 40000
SCALARS rho double 1
LOOKUP_TABLE default
0.991881
1.03491
1.04816
1.05224
1.05456
1.05624
1.05738
1.05815
1.05869
1.05909
1.05939
1.05963
1.05982
1.05997
1.06009
1.06019
1.06028
1.06035
1.06041
1.06047
1.06052
1.06056
1.0606
1.06064
1.06068
1.06071
1.06074
1.06077
1.0608
1.06083
1.06085
1.06087
1.06089
1.06091
1.06093
1.06094
1.06095
1.06096
1.06096
1.06096
1.06096
1.06094
1.06093
1.06091
1.06088
1.06085
1.06081
1.06077
1.06072
1.06066
1.0606
1.06053
1.06045
1.06037
1.06029
1.06019
1.0601
1.06
1.05989
1.05978
1.05967
1.05955
1.05943
1.05931
1.0592
1.05908
1.05896
1.05884
1.05873
1.05863
1.05852
1.05843
1.05833
1.05825
1.05818
1.05811
1.05805
1.05801
1.05797
1.05795
1.05794
1.05794
1.05795
1.05798
1.05801
1.05806
1.05813
1.0582
1.05829
1.05839
1.05849
1.05861
1.05874
1.05888
1.05903
1.05919
1.05935
1.05952
1.05969
1.05987
1.06006
1.06025
1.06044
1.06063
1.06083
1.06102
1.06122
1.06141
1.06161
1.0618
1.06199
1.06218
1.06236
1.06255
1.06272
1.0629
1.06307
1.06324
1.0634
1.06356
1.06372
1.06388
1.06403
1.06418
1.06433
1.06447
1.06462
1.06477
1.06491
1.06506
1.0652
1.06535
1.06549
1.06564
1.06579
1.06593
1.06608
1.06623
1.06638
1.06653
1.06669
1.06684
1.06699
1.06714
1.06729
1.06744
1.06759
1.06774
1.06789
1.06804
1.06818
1.06833
1.06847
1.0686
1.06874
1.06887
1.069
1.06912
1.06924
1.06935
1.06946
1.06956
1.06966
1.06975
1.06984
1.06992
1.06999
1.07006
1.07011
1.07016
1.07021
1.07024
1.07026
1.07028
1.07029
1.07029
1.07029
1.07027
1.07025
1.07022
1.07018
1.07013
1.07008
1.07002
1.06996
1.06989
1.06982
1.06974
1.06966
1.06957
1.06949
1.0694
1.06932
1.06923
1.06915
1.06907
1.06899
1.06892
1.06885
1.06878
1.06872
1.06867
1.06862
1.06858
1.06855
1.06852
1.06851
1.0685
1.06849
1.0685
1.06851
1.06853
1.06855
1.06858
1.06862
1.06866
1.06871
1.06876
1.06881
1.06886
1.06892
1.06897
1.06903
1.06909
1.06914
1.06919
1.06924
1.06929
1.06934
1.06938
1.06941
1.06944
1.06947
1.06949
1.06951
1.06952
1.06953
1.06953
1.06953
1.06952
1.06951
1.06949
1.06947
1.06945
1.06942
1.06939
1.06936
1.06933
1.0693
1.06926
1.06923
1.0692
1.06916
1.06913
1.06911
1.06908
1.06906
1.06904
1.06903
1.06902
1.06901
1.06901
1.06902
1.06903
1.06905
1.06907
1.0691
1.06914
1.06918
1.06922
1.06928
1.06933
1.0694
1.06946
1.06954
1.06961
1.06969
1.06977
1.06986
1.06994
1.07003
1.07012
1.07021
1.0703
1.07039
1.07048
1.07057
1.07066
1.07075
1.07084
1.07093
1.07102
1.07111
1.0712
1.07128
1.07137
1.07147
1.07156
1.07165
1.07175
1.07185
1.07196
1.07206
1.07217
1.07228
1.0724
1.07252
1.07265
1.07277
1.07291
1.07304
1.07318
1.07332
1.07347
1.07362
1.07377
1.07392
1.07407
1.07422
1.07438
1.07454
1.07469
1.07485
1.075
1.07516
1.07531
1.07546
1.07561
1.07576
1.0759
1.07605
1.07619
1.07632
1.07646
1.07659
1.07672
1.07685
1.07697
1.07709
1.07721
1.07732
1.07744
1.07755
1.07765
1.07776
1.07787
1.07797
1.07808
1.07818
1.07829
1.0784
1.07852
1.07863
1.07876
1.07889
1.07902
1.07917
1.07933
1.07949
1.07967
1.07986
1.08007
1.0803
1.08054
1.0808
1.08108
1.08139
1.08172
1.08208
1.08247
1.08289
1.08334
1.08383
1.08436
1.08493
1.08554
1.0862
1.08691
1.08768
1.0885
1.08938
1.09033
1.09136
1.09246
1.09366
1.09495
1.09636
1.0979
1.0996
1.10147
1.10357
1.10595
1.10869
1.11192
1.11584
1.12089
1.12789
1.13775
1.15224
1.1816
1.01889
1.0317
1.04192
1.04881
1.05254
1.05467
1.05607
1.05708
1.05781
1.05836
1.05878
1.0591
1.05936
1.05957
1.05974
1.05988
1.06
1.0601
1.06018
1.06026
1.06033
1.06039
1.06044
1.06049
1.06054
1.06058
1.06062
1.06066
1.06069
1.06073
1.06076
1.06079
1.06081
1.06083
1.06085
1.06087
1.06088
1.06089
1.0609
1.0609
1.0609
1.06089
1.06088
1.06086
1.06083
1.0608
1.06076
1.06072
1.06067
1.06062
1.06056
1.06049
1.06042
1.06034
1.06025
1.06016
1.06006
1.05996
1.05986
1.05975
1.05964
1.05953
1.05941
1.05929
1.05918
1.05906
1.05895
1.05883
1.05872
1.05862
1.05852
1.05842
1.05834
1.05825
1.05818
1.05812
1.05806
1.05802
1.05799
1.05797
1.05796
1.05796
1.05797
1.058
1.05804
1.05809
1.05815
1.05823
1.05832
1.05842
1.05853
1.05864
1.05877
1.05891
1.05906
1.05921
1.05938
1.05954
1.05972
1.0599
1.06008
1.06027
1.06046
1.06065
1.06084
1.06103
1.06123
1.06142
1.06161
1.0618
1.06199
1.06217
1.06236
1.06254
1.06271
1.06288
1.06305
1.06322
1.06338
1.06354
1.0637
1.06385
1.064
1.06415
1.0643
1.06444
1.06459
1.06473
1.06488
1.06502
1.06517
1.06531
1.06546
1.06561
1.06575
1.0659
1.06605
1.0662
1.06635
1.0665
1.06665
1.0668
1.06696
1.06711
1.06726
1.06741
1.06756
1.06771
1.06786
1.06801
1.06815
1.06829
1.06843
1.06857
1.06871
1.06884
1.06896
1.06909
1.06921
1.06932
1.06943
1.06953
1.06963
1.06973
1.06981
1.06989
1.06996
1.07003
1.07009
1.07014
1.07018
1.07021
1.07024
1.07026
1.07027
1.07027
1.07026
1.07025
1.07023
1.0702
1.07016
1.07012
1.07006
1.07001
1.06994
1.06988
1.0698
1.06973
1.06965
1.06957
1.06948
1.0694
1.06931
1.06923
1.06915
1.06907
1.06899
1.06892
1.06885
1.06878
1.06872
1.06867
1.06863
1.06859
1.06855
1.06853
1.06851
1.0685
1.0685
1.0685
1.06851
1.06853
1.06856
1.06859
1.06862
1.06866
1.06871
1.06875
1.0688
1.06886
1.06891
1.06897
1.06902
1.06908
1.06913
1.06918
1.06923
1.06928
1.06932
1.06936
1.0694
1.06943
1.06945
1.06947
1.06949
1.0695
1.06951
1.06951
1.06951
1.0695
1.06949
1.06947
1.06945
1.06943
1.0694
1.06937
1.06934
1.06931
1.06928
1.06925
1.06921
1.06918
1.06915
1.06912
1.0691
1.06907
1.06905
1.06904
1.06903
1.06902
1.06901
1.06902
1.06902
1.06904
1.06906
1.06908
1.06911
1.06915
1.06919
1.06924
1.06929
1.06935
1.06941
1.06948
1.06955
1.06963
1.06971
1.06979
1.06988
1.06996
1.07005
1.07014
1.07023
1.07032
1.07041
1.0705
1.07059
1.07068
1.07076
1.07085
1.07094
1.07103
1.07112
1.0712
1.07129
1.07138
1.07147
1.07157
1.07166
1.07176
1.07186
1.07196
1.07207
1.07218
1.07229
1.07241
1.07253
1.07265
1.07278
1.07291
1.07304
1.07318
1.07332
1.07347
1.07361
1.07376
1.07391
1.07406
1.07421
1.07437
1.07452
1.07468
1.07483
1.07498
1.07514
1.07529
1.07544
1.07559
1.07573
1.07588
1.07602
1.07616
1.07629
1.07643
1.07656
1.07669
1.07681
1.07694
1.07706
1.07718
1.07729
1.0774
1.07751
1.07762
1.07773
1.07784
1.07794
1.07805
1.07816
1.07827
1.07838
1.07849
1.07861
1.07874
1.07887
1.07901
1.07916
1.07932
1.07949
1.07967
1.07986
1.08007
1.0803
1.08055
1.08082
1.0811
1.08142
1.08175
1.08212
1.08251
1.08294
1.0834
1.08389
1.08443
1.085
1.08563
1.08629
1.08701
1.08779
1.08862
1.08952
1.09048
1.09152
1.09265
1.09386
1.09519
1.09663
1.0982
1.09994
1.10188
1.10405
1.10654
1.10942
1.11286
1.11708
1.1224
1.12931
1.13941
1.15703
1.18478
1.03612
1.03768
1.04346
1.04815
1.05128
1.05351
1.0551
1.05625
1.05709
1.05773
1.05823
1.05862
1.05894
1.05919
1.0594
1.05958
1.05973
1.05985
1.05996
1.06005
1.06014
1.06021
1.06028
1.06034
1.0604
1.06045
1.0605
1.06054
1.06059
1.06062
1.06066
1.06069
1.06072
1.06075
1.06077
1.06079
1.06081
1.06082
1.06083
1.06083
1.06083
1.06082
1.06081
1.0608
1.06077
1.06074
1.06071
1.06067
1.06062
1.06056
1.0605
1.06044
1.06037
1.06029
1.0602
1.06011
1.06002
1.05992
1.05982
1.05971
1.0596
1.05949
1.05938
1.05926
1.05915
1.05903
1.05892
1.05881
1.0587
1.0586
1.0585
1.05841
1.05832
1.05825
1.05818
1.05812
1.05806
1.05802
1.05799
1.05797
1.05797
1.05797
1.05799
1.05802
1.05806
1.05811
1.05818
1.05825
1.05834
1.05844
1.05855
1.05867
1.0588
1.05894
1.05909
1.05924
1.0594
1.05957
1.05974
1.05992
1.0601
1.06029
1.06047
1.06066
1.06085
1.06105
1.06124
1.06143
1.06162
1.0618
1.06199
1.06217
1.06235
1.06253
1.0627
1.06287
1.06303
1.0632
1.06336
1.06351
1.06367
1.06382
1.06397
1.06411
1.06426
1.0644
1.06455
1.06469
1.06484
1.06498
1.06512
1.06527
1.06541
1.06556
1.06571
1.06585
1.066
1.06615
1.0663
1.06645
1.06661
1.06676
1.06691
1.06706
1.06721
1.06737
1.06752
1.06767
1.06781
1.06796
1.06811
1.06825
1.06839
1.06853
1.06866
1.06879
1.06892
1.06905
1.06917
1.06928
1.06939
1.0695
1.06959
1.06969
1.06977
1.06985
1.06993
1.06999
1.07005
1.0701
1.07015
1.07018
1.07021
1.07023
1.07024
1.07024
1.07024
1.07022
1.0702
1.07017
1.07014
1.07009
1.07004
1.06999
1.06992
1.06986
1.06979
1.06971
1.06963
1.06955
1.06947
1.06939
1.0693
1.06922
1.06914
1.06906
1.06898
1.06891
1.06884
1.06878
1.06872
1.06867
1.06862
1.06858
1.06855
1.06853
1.06851
1.0685
1.06849
1.0685
1.06851
1.06853
1.06855
1.06858
1.06861
1.06865
1.06869
1.06874
1.06879
1.06884
1.0689
1.06895
1.069
1.06906
1.06911
1.06916
1.06921
1.06925
1.0693
1.06933
1.06937
1.0694
1.06942
1.06944
1.06946
1.06947
1.06948
1.06948
1.06947
1.06946
1.06945
1.06944
1.06942
1.06939
1.06937
1.06934
1.06931
1.06928
1.06925
1.06922
1.06919
1.06916
1.06913
1.0691
1.06908
1.06905
1.06904
1.06902
1.06901
1.069
1.069
1.06901
1.06902
1.06903
1.06905
1.06908
1.06911
1.06915
1.06919
1.06924
1.0693
1.06936
1.06942
1.06949
1.06957
1.06964
1.06972
1.0698
1.06989
1.06998
1.07006
1.07015
1.07024
1.07033
1.07042
1.07051
1.0706
1.07069
1.07077
1.07086
1.07095
1.07104
1.07112
1.07121
1.0713
1.07139
1.07148
1.07157
1.07167
1.07176
1.07186
1.07196
1.07207
1.07218
1.07229
1.07241
1.07253
1.07265
1.07278
1.07291
1.07304
1.07318
1.07332
1.07346
1.07361
1.07376
1.07391
1.07406
1.07421
1.07436
1.07451
1.07466
1.07482
1.07497
1.07512
1.07527
1.07542
1.07556
1.07571
1.07585
1.07599
1.07613
1.07626
1.0764
1.07653
1.07665
1.07678
1.0769
1.07702
1.07714
1.07725
1.07736
1.07747
1.07758
1.07769
1.0778
1.07791
1.07801
1.07812
1.07823
1.07834
1.07846
1.07858
1.07871
1.07884
1.07898
1.07913
1.07929
1.07946
1.07965
1.07984
1.08006
1.08029
1.08053
1.0808
1.08109
1.08141
1.08175
1.08211
1.08251
1.08294
1.0834
1.0839
1.08444
1.08502
1.08565
1.08632
1.08705
1.08783
1.08867
1.08957
1.09054
1.09159
1.09273
1.09395
1.09528
1.09673
1.09832
1.10008
1.10203
1.10421
1.10671
1.10959
1.11298
1.11707
1.12217
1.12877
1.13705
1.14603
1.15448
1.04466
1.04411
1.04621
1.04876
1.05121
1.05314
1.05459
1.05571
1.05658
1.05726
1.05779
1.05823
1.05858
1.05887
1.05911
1.05931
1.05948
1.05962
1.05975
1.05986
1.05996
1.06005
1.06013
1.0602
1.06026
1.06032
1.06038
1.06043
1.06048
1.06052
1.06056
1.0606
1.06063
1.06066
1.06069
1.06071
1.06073
1.06074
1.06075
1.06076
1.06076
1.06075
1.06074
1.06073
1.06071
1.06068
1.06064
1.0606
1.06056
1.0605
1.06044
1.06038
1.06031
1.06023
1.06015
1.06006
1.05996
1.05987
1.05976
1.05966
1.05955
1.05944
1.05933
1.05922
1.0591
1.05899
1.05888
1.05877
1.05867
1.05857
1.05847
1.05838
1.0583
1.05822
1.05816
1.0581
1.05805
1.05801
1.05799
1.05797
1.05796
1.05797
1.05799
1.05802
1.05807
1.05812
1.05819
1.05827
1.05836
1.05846
1.05857
1.05869
1.05882
1.05896
1.05911
1.05926
1.05942
1.05959
1.05976
1.05994
1.06012
1.0603
1.06049
1.06068
1.06087
1.06106
1.06125
1.06143
1.06162
1.0618
1.06199
1.06217
1.06234
1.06251
1.06268
1.06285
1.06301
1.06317
1.06333
1.06348
1.06363
1.06378
1.06393
1.06407
1.06422
1.06436
1.0645
1.06464
1.06478
1.06493
1.06507
1.06521
1.06536
1.0655
1.06565
1.0658
1.06594
1.06609
1.06624
1.06639
1.06655
1.0667
1.06685
1.067
1.06715
1.06731
1.06746
1.06761
1.06776
1.0679
1.06805
1.06819
1.06833
1.06847
1.06861
1.06874
1.06887
1.06899
1.06911
1.06923
1.06934
1.06945
1.06955
1.06964
1.06973
1.06981
1.06988
1.06995
1.07001
1.07006
1.0701
1.07014
1.07017
1.07019
1.0702
1.0702
1.0702
1.07019
1.07017
1.07014
1.0701
1.07006
1.07001
1.06996
1.0699
1.06983
1.06976
1.06969
1.06961
1.06953
1.06945
1.06937
1.06928
1.0692
1.06912
1.06904
1.06897
1.0689
1.06883
1.06876
1.06871
1.06866
1.06861
1.06857
1.06854
1.06851
1.06849
1.06848
1.06848
1.06848
1.06849
1.06851
1.06853
1.06856
1.06859
1.06863
1.06867
1.06872
1.06877
1.06882
1.06887
1.06892
1.06897
1.06902
1.06908
1.06912
1.06917
1.06922
1.06926
1.06929
1.06933
1.06936
1.06938
1.0694
1.06942
1.06943
1.06943
1.06943
1.06943
1.06942
1.06941
1.06939
1.06937
1.06935
1.06933
1.0693
1.06927
1.06924
1.06921
1.06918
1.06915
1.06912
1.06909
1.06907
1.06904
1.06902
1.069
1.06899
1.06898
1.06898
1.06898
1.06898
1.069
1.06901
1.06904
1.06906
1.0691
1.06914
1.06919
1.06924
1.06929
1.06936
1.06942
1.06949
1.06957
1.06965
1.06973
1.06981
1.0699
1.06998
1.07007
1.07016
1.07025
1.07034
1.07043
1.07052
1.07061
1.07069
1.07078
1.07087
1.07095
1.07104
1.07113
1.07121
1.0713
1.07139
1.07148
1.07157
1.07167
1.07176
1.07186
1.07197
1.07207
1.07218
1.07229
1.07241
1.07253
1.07265
1.07278
1.07291
1.07305
1.07318
1.07332
1.07346
1.07361
1.07376
1.0739
1.07405
1.0742
1.07435
1.0745
1.07465
1.0748
1.07495
1.0751
1.07525
1.07539
1.07554
1.07568
1.07582
1.07596
1.0761
1.07623
1.07636
1.07649
1.07662
1.07674
1.07686
1.07698
1.0771
1.07721
1.07732
1.07743
1.07754
1.07765
1.07775
1.07786
1.07797
1.07808
1.07819
1.0783
1.07842
1.07854
1.07867
1.0788
1.07894
1.07909
1.07925
1.07942
1.0796
1.0798
1.08001
1.08024
1.08049
1.08076
1.08105
1.08137
1.08171
1.08207
1.08247
1.0829
1.08336
1.08386
1.0844
1.08499
1.08561
1.08629
1.08701
1.0878
1.08864
1.08954
1.09051
1.09156
1.09269
1.09392
1.09525
1.09669
1.09827
1.1
1.10192
1.10406
1.10648
1.10924
1.11244
1.11617
1.12054
1.1256
1.1312
1.13576
1.1359
1.04862
1.04812
1.04885
1.05023
1.05181
1.05323
1.05445
1.05546
1.05627
1.05693
1.05747
1.05792
1.05828
1.05859
1.05885
1.05907
1.05925
1.05942
1.05956
1.05968
1.05979
1.05989
1.05997
1.06005
1.06013
1.06019
1.06026
1.06031
1.06037
1.06041
1.06046
1.0605
1.06054
1.06057
1.0606
1.06063
1.06065
1.06066
1.06067
1.06068
1.06068
1.06068
1.06067
1.06065
1.06063
1.0606
1.06057
1.06053
1.06049
1.06043
1.06037
1.06031
1.06024
1.06016
1.06008
1.05999
1.0599
1.0598
1.0597
1.0596
1.05949
1.05938
1.05927
1.05916
1.05905
1.05894
1.05883
1.05873
1.05862
1.05853
1.05843
1.05835
1.05827
1.05819
1.05813
1.05807
1.05803
1.05799
1.05797
1.05796
1.05795
1.05796
1.05799
1.05802
1.05807
1.05812
1.05819
1.05827
1.05837
1.05847
1.05858
1.05871
1.05884
1.05898
1.05913
1.05928
1.05944
1.05961
1.05978
1.05996
1.06014
1.06032
1.06051
1.06069
1.06088
1.06107
1.06125
1.06144
1.06162
1.0618
1.06198
1.06216
1.06233
1.0625
1.06267
1.06283
1.06299
1.06314
1.0633
1.06345
1.06359
1.06374
1.06388
1.06402
1.06416
1.0643
1.06444
1.06458
1.06472
1.06486
1.065
1.06515
1.06529
1.06543
1.06558
1.06573
1.06587
1.06602
1.06617
1.06632
1.06647
1.06663
1.06678
1.06693
1.06708
1.06724
1.06739
1.06754
1.06769
1.06784
1.06798
1.06813
1.06827
1.06841
1.06854
1.06868
1.06881
1.06893
1.06905
1.06917
1.06928
1.06939
1.06949
1.06958
1.06967
1.06975
1.06983
1.0699
1.06996
1.07001
1.07006
1.07009
1.07012
1.07014
1.07016
1.07016
1.07016
1.07015
1.07013
1.0701
1.07007
1.07003
1.06998
1.06992
1.06986
1.0698
1.06973
1.06966
1.06958
1.0695
1.06942
1.06934
1.06926
1.06918
1.0691
1.06902
1.06895
1.06887
1.06881
1.06874
1.06869
1.06864
1.06859
1.06855
1.06852
1.06849
1.06847
1.06846
1.06846
1.06846
1.06847
1.06848
1.0685
1.06853
1.06856
1.0686
1.06864
1.06868
1.06873
1.06878
1.06883
1.06888
1.06893
1.06898
1.06903
1.06908
1.06913
1.06917
1.06921
1.06924
1.06928
1.06931
1.06933
1.06935
1.06936
1.06937
1.06938
1.06938
1.06937
1.06937
1.06935
1.06934
1.06932
1.0693
1.06927
1.06925
1.06922
1.06919
1.06916
1.06913
1.0691
1.06907
1.06904
1.06902
1.069
1.06898
1.06896
1.06895
1.06894
1.06894
1.06894
1.06895
1.06896
1.06898
1.06901
1.06904
1.06908
1.06912
1.06917
1.06922
1.06928
1.06934
1.06941
1.06949
1.06956
1.06964
1.06973
1.06981
1.0699
1.06999
1.07007
1.07016
1.07025
1.07034
1.07043
1.07052
1.07061
1.0707
1.07078
1.07087
1.07096
1.07104
1.07113
1.07121
1.0713
1.07139
1.07148
1.07157
1.07167
1.07176
1.07186
1.07196
1.07207
1.07218
1.07229
1.07241
1.07253
1.07265
1.07278
1.07291
1.07305
1.07318
1.07332
1.07347
1.07361
1.07375
1.0739
1.07405
1.0742
1.07435
1.0745
1.07464
1.07479
1.07494
1.07509
1.07523
1.07537
1.07552
1.07566
1.07579
1.07593
1.07606
1.0762
1.07633
1.07645
1.07658
1.0767
1.07682
1.07694
1.07705
1.07716
1.07728
1.07738
1.07749
1.0776
1.07771
1.07781
1.07792
1.07803
1.07814
1.07825
1.07837
1.07849
1.07861
1.07875
1.07889
1.07904
1.07919
1.07936
1.07955
1.07974
1.07995
1.08018
1.08043
1.08069
1.08098
1.0813
1.08163
1.082
1.08239
1.08282
1.08328
1.08378
1.08432
1.0849
1.08552
1.08619
1.08692
1.08769
1.08853
1.08943
1.0904
1.09144
1.09256
1.09377
1.09508
1.09649
1.09804
1.09972
1.10158
1.10362
1.1059
1.10845
1.11131
1.11452
1.11805
1.12167
1.12491
1.12714
1.12656
1.0511
1.0507
1.05093
1.05167
1.05264
1.05365
1.0546
1.05544
1.05615
1.05676
1.05727
1.0577
1.05807
1.05838
1.05864
1.05887
1.05906
1.05923
1.05938
1.05952
1.05963
1.05974
1.05984
1.05992
1.06
1.06007
1.06014
1.0602
1.06026
1.06031
1.06036
1.0604
1.06044
1.06048
1.06051
1.06054
1.06056
1.06058
1.06059
1.0606
1.0606
1.0606
1.06059
1.06057
1.06055
1.06053
1.06049
1.06045
1.06041
1.06036
1.0603
1.06023
1.06016
1.06009
1.06
1.05992
1.05983
1.05973
1.05963
1.05953
1.05942
1.05931
1.0592
1.05909
1.05899
1.05888
1.05877
1.05867
1.05857
1.05847
1.05838
1.0583
1.05822
1.05815
1.05809
1.05804
1.05799
1.05796
1.05794
1.05793
1.05793
1.05794
1.05797
1.05801
1.05806
1.05812
1.05819
1.05827
1.05837
1.05847
1.05859
1.05871
1.05885
1.05899
1.05914
1.05929
1.05945
1.05962
1.05979
1.05997
1.06015
1.06033
1.06052
1.0607
1.06089
1.06107
1.06126
1.06144
1.06162
1.0618
1.06198
1.06215
1.06232
1.06249
1.06265
1.06281
1.06296
1.06312
1.06326
1.06341
1.06355
1.06369
1.06383
1.06397
1.06411
1.06424
1.06438
1.06452
1.06465
1.06479
1.06493
1.06507
1.06521
1.06535
1.0655
1.06564
1.06579
1.06594
1.06609
1.06624
1.06639
1.06654
1.0667
1.06685
1.067
1.06715
1.06731
1.06746
1.06761
1.06776
1.0679
1.06805
1.06819
1.06833
1.06847
1.0686
1.06873
1.06886
1.06898
1.0691
1.06921
1.06932
1.06942
1.06952
1.06961
1.06969
1.06977
1.06983
1.0699
1.06995
1.07
1.07004
1.07007
1.07009
1.0701
1.07011
1.07011
1.0701
1.07008
1.07005
1.07002
1.06998
1.06993
1.06988
1.06982
1.06976
1.06969
1.06962
1.06955
1.06947
1.06939
1.06931
1.06923
1.06915
1.06907
1.06899
1.06892
1.06884
1.06878
1.06872
1.06866
1.06861
1.06856
1.06852
1.06849
1.06846
1.06844
1.06843
1.06842
1.06842
1.06843
1.06845
1.06847
1.06849
1.06852
1.06856
1.06859
1.06864
1.06868
1.06873
1.06878
1.06883
1.06888
1.06893
1.06898
1.06902
1.06907
1.06911
1.06915
1.06918
1.06921
1.06924
1.06927
1.06928
1.0693
1.06931
1.06931
1.06931
1.06931
1.0693
1.06929
1.06927
1.06926
1.06923
1.06921
1.06918
1.06916
1.06913
1.0691
1.06907
1.06904
1.06901
1.06899
1.06896
1.06894
1.06892
1.06891
1.0689
1.06889
1.06889
1.06889
1.0689
1.06892
1.06894
1.06897
1.069
1.06904
1.06908
1.06914
1.06919
1.06925
1.06932
1.06939
1.06947
1.06955
1.06963
1.06971
1.0698
1.06989
1.06998
1.07007
1.07016
1.07025
1.07034
1.07043
1.07052
1.07061
1.07069
1.07078
1.07087
1.07095
1.07104
1.07112
1.07121
1.0713
1.07138
1.07147
1.07157
1.07166
1.07176
1.07186
1.07196
1.07206
1.07217
1.07229
1.07241
1.07253
1.07265
1.07278
1.07291
1.07305
1.07318
1.07332
1.07347
1.07361
1.07376
1.0739
1.07405
1.0742
1.07434
1.07449
1.07464
1.07478
1.07493
1.07507
1.07521
1.07535
1.07549
1.07563
1.07577
1.0759
1.07603
1.07616
1.07629
1.07641
1.07654
1.07666
1.07677
1.07689
1.077
1.07712
1.07723
1.07733
1.07744
1.07755
1.07765
1.07776
1.07786
1.07797
1.07808
1.07819
1.07831
1.07843
1.07855
1.07868
1.07882
1.07897
1.07912
1.07929
1.07947
1.07966
1.07987
1.0801
1.08034
1.0806
1.08089
1.08119
1.08153
1.08189
1.08228
1.0827
1.08316
1.08365
1.08418
1.08475
1.08537
1.08604
1.08675
1.08752
1.08835
1.08923
1.09019
1.09121
1.09231
1.0935
1.09477
1.09615
1.09764
1.09925
1.10101
1.10293
1.10502
1.10731
1.10979
1.11243
1.11512
1.11767
1.11963
1.12063
1.12041
1.05284
1.05245
1.05249
1.05288
1.05348
1.05419
1.0549
1.05556
1.05617
1.0567
1.05717
1.05757
1.05792
1.05822
1.05848
1.05871
1.0589
1.05908
1.05923
1.05937
1.05949
1.0596
1.05971
1.0598
1.05988
1.05996
1.06003
1.06009
1.06015
1.06021
1.06026
1.06031
1.06035
1.06039
1.06042
1.06045
1.06047
1.06049
1.06051
1.06052
1.06052
1.06052
1.06051
1.06049
1.06047
1.06045
1.06041
1.06037
1.06033
1.06028
1.06022
1.06015
1.06008
1.06001
1.05993
1.05984
1.05975
1.05965
1.05955
1.05945
1.05935
1.05924
1.05913
1.05902
1.05892
1.05881
1.05871
1.0586
1.05851
1.05841
1.05832
1.05824
1.05817
1.0581
1.05804
1.05799
1.05795
1.05792
1.05791
1.0579
1.0579
1.05792
1.05795
1.05799
1.05804
1.0581
1.05818
1.05826
1.05836
1.05847
1.05859
1.05871
1.05885
1.05899
1.05914
1.0593
1.05946
1.05963
1.0598
1.05998
1.06016
1.06034
1.06052
1.06071
1.06089
1.06108
1.06126
1.06144
1.06162
1.0618
1.06197
1.06214
1.06231
1.06247
1.06263
1.06278
1.06293
1.06308
1.06322
1.06337
1.0635
1.06364
1.06378
1.06391
1.06404
1.06417
1.06431
1.06444
1.06458
1.06471
1.06485
1.06499
1.06513
1.06527
1.06541
1.06555
1.0657
1.06585
1.066
1.06615
1.0663
1.06645
1.0666
1.06676
1.06691
1.06706
1.06722
1.06737
1.06752
1.06767
1.06782
1.06796
1.0681
1.06825
1.06838
1.06852
1.06865
1.06878
1.0689
1.06902
1.06914
1.06924
1.06935
1.06944
1.06953
1.06962
1.0697
1.06977
1.06983
1.06989
1.06993
1.06997
1.07001
1.07003
1.07004
1.07005
1.07005
1.07004
1.07003
1.07
1.06997
1.06993
1.06989
1.06983
1.06978
1.06972
1.06965
1.06958
1.0695
1.06943
1.06935
1.06927
1.06919
1.06911
1.06903
1.06895
1.06888
1.06881
1.06874
1.06868
1.06862
1.06857
1.06852
1.06848
1.06845
1.06842
1.0684
1.06839
1.06838
1.06838
1.06839
1.0684
1.06842
1.06844
1.06847
1.0685
1.06854
1.06858
1.06863
1.06867
1.06872
1.06877
1.06881
1.06886
1.06891
1.06896
1.069
1.06904
1.06908
1.06911
1.06914
1.06917
1.06919
1.06921
1.06923
1.06923
1.06924
1.06924
1.06924
1.06923
1.06922
1.0692
1.06918
1.06916
1.06914
1.06911
1.06908
1.06906
1.06903
1.069
1.06897
1.06894
1.06892
1.06889
1.06887
1.06886
1.06884
1.06883
1.06883
1.06883
1.06884
1.06885
1.06887
1.06889
1.06892
1.06895
1.069
1.06904
1.0691
1.06916
1.06922
1.06929
1.06936
1.06944
1.06952
1.06961
1.0697
1.06979
1.06988
1.06997
1.07006
1.07015
1.07024
1.07033
1.07042
1.07051
1.0706
1.07069
1.07077
1.07086
1.07094
1.07103
1.07111
1.0712
1.07129
1.07137
1.07146
1.07155
1.07165
1.07174
1.07184
1.07195
1.07206
1.07217
1.07228
1.0724
1.07252
1.07265
1.07278
1.07291
1.07304
1.07318
1.07332
1.07347
1.07361
1.07375
1.0739
1.07405
1.07419
1.07434
1.07448
1.07463
1.07477
1.07492
1.07506
1.0752
1.07534
1.07547
1.07561
1.07574
1.07587
1.076
1.07613
1.07625
1.07637
1.07649
1.07661
1.07673
1.07684
1.07695
1.07707
1.07717
1.07728
1.07739
1.07749
1.0776
1.0777
1.0778
1.07791
1.07802
1.07813
1.07824
1.07836
1.07848
1.07861
1.07875
1.07889
1.07904
1.07921
1.07938
1.07957
1.07978
1.07999
1.08023
1.08049
1.08077
1.08107
1.0814
1.08175
1.08213
1.08255
1.083
1.08348
1.084
1.08457
1.08517
1.08583
1.08653
1.08729
1.0881
1.08897
1.0899
1.0909
1.09197
1.09312
1.09436
1.09568
1.0971
1.09862
1.10027
1.10203
1.10392
1.10592
1.10802
1.11015
1.11218
1.11394
1.1152
1.1157
1.1155
1.05408
1.05373
1.05368
1.05389
1.05426
1.05475
1.05527
1.05579
1.05629
1.05674
1.05715
1.05751
1.05783
1.05812
1.05837
1.05859
1.05878
1.05896
1.05911
1.05925
1.05938
1.05949
1.05959
1.05969
1.05977
1.05985
1.05993
1.06
1.06006
1.06012
1.06017
1.06022
1.06026
1.0603
1.06034
1.06036
1.06039
1.06041
1.06042
1.06043
1.06044
1.06043
1.06043
1.06041
1.06039
1.06036
1.06033
1.06029
1.06024
1.06019
1.06013
1.06007
1.06
1.05992
1.05984
1.05975
1.05966
1.05957
1.05947
1.05937
1.05926
1.05916
1.05905
1.05894
1.05884
1.05873
1.05863
1.05853
1.05843
1.05834
1.05826
1.05818
1.05811
1.05804
1.05799
1.05794
1.0579
1.05788
1.05786
1.05786
1.05786
1.05788
1.05791
1.05796
1.05801
1.05808
1.05816
1.05825
1.05835
1.05846
1.05858
1.0587
1.05884
1.05899
1.05914
1.0593
1.05946
1.05963
1.0598
1.05998
1.06016
1.06034
1.06052
1.06071
1.06089
1.06107
1.06126
1.06143
1.06161
1.06179
1.06196
1.06213
1.06229
1.06245
1.0626
1.06275
1.0629
1.06304
1.06318
1.06332
1.06345
1.06358
1.06371
1.06384
1.06397
1.0641
1.06423
1.06436
1.06449
1.06462
1.06476
1.06489
1.06503
1.06517
1.06531
1.06546
1.0656
1.06575
1.0659
1.06605
1.0662
1.06635
1.0665
1.06665
1.06681
1.06696
1.06711
1.06727
1.06742
1.06757
1.06772
1.06786
1.06801
1.06815
1.06829
1.06843
1.06856
1.06869
1.06881
1.06893
1.06905
1.06916
1.06926
1.06936
1.06945
1.06954
1.06962
1.06969
1.06975
1.06981
1.06986
1.0699
1.06994
1.06996
1.06998
1.06999
1.06999
1.06998
1.06996
1.06994
1.06991
1.06987
1.06983
1.06978
1.06972
1.06966
1.0696
1.06953
1.06945
1.06938
1.0693
1.06922
1.06914
1.06906
1.06898
1.06891
1.06883
1.06876
1.0687
1.06863
1.06857
1.06852
1.06848
1.06843
1.0684
1.06837
1.06835
1.06834
1.06833
1.06833
1.06833
1.06834
1.06836
1.06838
1.06841
1.06844
1.06848
1.06852
1.06856
1.0686
1.06865
1.06869
1.06874
1.06879
1.06883
1.06888
1.06892
1.06896
1.069
1.06903
1.06906
1.06909
1.06911
1.06913
1.06914
1.06915
1.06916
1.06916
1.06915
1.06914
1.06913
1.06912
1.0691
1.06908
1.06905
1.06903
1.069
1.06897
1.06895
1.06892
1.06889
1.06886
1.06884
1.06882
1.0688
1.06878
1.06877
1.06876
1.06876
1.06876
1.06877
1.06878
1.0688
1.06882
1.06886
1.06889
1.06894
1.06899
1.06904
1.06911
1.06917
1.06925
1.06932
1.06941
1.06949
1.06958
1.06967
1.06976
1.06985
1.06995
1.07004
1.07013
1.07023
1.07032
1.07041
1.0705
1.07059
1.07067
1.07076
1.07085
1.07093
1.07101
1.0711
1.07118
1.07127
1.07136
1.07145
1.07154
1.07163
1.07173
1.07183
1.07193
1.07204
1.07215
1.07227
1.07239
1.07251
1.07264
1.07277
1.0729
1.07304
1.07318
1.07332
1.07346
1.07361
1.07375
1.0739
1.07405
1.07419
1.07434
1.07448
1.07462
1.07477
1.07491
1.07505
1.07518
1.07532
1.07545
1.07558
1.07571
1.07584
1.07597
1.07609
1.07621
1.07633
1.07645
1.07657
1.07668
1.07679
1.0769
1.07701
1.07712
1.07722
1.07733
1.07743
1.07753
1.07764
1.07774
1.07785
1.07795
1.07806
1.07817
1.07829
1.07841
1.07853
1.07866
1.0788
1.07895
1.07911
1.07928
1.07946
1.07966
1.07987
1.0801
1.08035
1.08062
1.08092
1.08124
1.08158
1.08195
1.08236
1.0828
1.08327
1.08378
1.08433
1.08493
1.08556
1.08625
1.08699
1.08778
1.08863
1.08954
1.09051
1.09154
1.09265
1.09383
1.09509
1.09643
1.09786
1.09937
1.10097
1.10265
1.10439
1.10614
1.10784
1.10938
1.11063
1.11145
1.11173
1.11145
1.05499
1.05469
1.0546
1.0547
1.05494
1.05527
1.05566
1.05606
1.05646
1.05684
1.05719
1.05751
1.0578
1.05806
1.05829
1.0585
1.05869
1.05886
1.05901
1.05915
1.05928
1.05939
1.05949
1.05959
1.05968
1.05976
1.05983
1.0599
1.05997
1.06003
1.06008
1.06013
1.06018
1.06022
1.06025
1.06028
1.06031
1.06033
1.06034
1.06035
1.06035
1.06035
1.06034
1.06033
1.06031
1.06028
1.06025
1.06021
1.06016
1.06011
1.06005
1.05999
1.05991
1.05984
1.05976
1.05967
1.05958
1.05948
1.05939
1.05928
1.05918
1.05908
1.05897
1.05886
1.05876
1.05865
1.05855
1.05845
1.05836
1.05827
1.05819
1.05811
1.05804
1.05798
1.05793
1.05788
1.05785
1.05782
1.05781
1.05781
1.05782
1.05784
1.05788
1.05792
1.05798
1.05805
1.05813
1.05822
1.05833
1.05844
1.05856
1.05869
1.05883
1.05898
1.05913
1.05929
1.05945
1.05962
1.0598
1.05997
1.06015
1.06033
1.06052
1.0607
1.06088
1.06106
1.06124
1.06142
1.0616
1.06177
1.06194
1.0621
1.06226
1.06242
1.06257
1.06272
1.06286
1.063
1.06313
1.06326
1.06339
1.06352
1.06365
1.06377
1.0639
1.06402
1.06415
1.06427
1.0644
1.06453
1.06466
1.0648
1.06493
1.06507
1.06521
1.06535
1.0655
1.06564
1.06579
1.06594
1.06609
1.06624
1.06639
1.06655
1.0667
1.06685
1.06701
1.06716
1.06731
1.06746
1.06761
1.06776
1.06791
1.06805
1.06819
1.06833
1.06846
1.06859
1.06872
1.06884
1.06896
1.06907
1.06917
1.06927
1.06937
1.06945
1.06953
1.06961
1.06967
1.06973
1.06978
1.06983
1.06986
1.06989
1.0699
1.06991
1.06992
1.06991
1.0699
1.06987
1.06985
1.06981
1.06977
1.06972
1.06966
1.0696
1.06954
1.06947
1.0694
1.06932
1.06924
1.06917
1.06909
1.06901
1.06893
1.06885
1.06878
1.06871
1.06864
1.06858
1.06852
1.06847
1.06842
1.06838
1.06834
1.06831
1.06829
1.06828
1.06827
1.06826
1.06827
1.06828
1.06829
1.06831
1.06834
1.06837
1.0684
1.06844
1.06848
1.06852
1.06857
1.06861
1.06866
1.0687
1.06875
1.06879
1.06883
1.06887
1.06891
1.06894
1.06897
1.069
1.06902
1.06904
1.06905
1.06906
1.06906
1.06906
1.06906
1.06905
1.06904
1.06903
1.06901
1.06899
1.06897
1.06894
1.06891
1.06889
1.06886
1.06883
1.0688
1.06878
1.06875
1.06873
1.06871
1.0687
1.06869
1.06868
1.06868
1.06868
1.06869
1.0687
1.06873
1.06875
1.06879
1.06883
1.06887
1.06893
1.06899
1.06905
1.06912
1.0692
1.06928
1.06936
1.06945
1.06954
1.06963
1.06973
1.06982
1.06992
1.07002
1.07011
1.0702
1.0703
1.07039
1.07048
1.07057
1.07065
1.07074
1.07082
1.07091
1.07099
1.07108
1.07116
1.07125
1.07133
1.07142
1.07151
1.07161
1.0717
1.07181
1.07191
1.07202
1.07213
1.07225
1.07237
1.0725
1.07263
1.07276
1.07289
1.07303
1.07317
1.07332
1.07346
1.07361
1.07375
1.0739
1.07404
1.07419
1.07433
1.07448
1.07462
1.07476
1.0749
1.07503
1.07517
1.0753
1.07543
1.07556
1.07569
1.07581
1.07594
1.07606
1.07618
1.07629
1.07641
1.07652
1.07664
1.07675
1.07685
1.07696
1.07707
1.07717
1.07727
1.07737
1.07747
1.07758
1.07768
1.07778
1.07788
1.07799
1.0781
1.07821
1.07833
1.07845
1.07858
1.07871
1.07885
1.07901
1.07917
1.07935
1.07954
1.07974
1.07997
1.08021
1.08047
1.08075
1.08106
1.08139
1.08175
1.08215
1.08257
1.08303
1.08353
1.08406
1.08464
1.08526
1.08593
1.08665
1.08741
1.08824
1.08911
1.09005
1.09104
1.0921
1.09322
1.09441
1.09567
1.09699
1.09837
1.09982
1.1013
1.10279
1.10425
1.10561
1.10679
1.10769
1.10825
1.10839
1.10808
1.05568
1.05544
1.05534
1.05537
1.05552
1.05575
1.05604
1.05635
1.05666
1.05698
1.05728
1.05755
1.05781
1.05805
1.05826
1.05846
1.05864
1.0588
1.05894
1.05908
1.0592
1.05931
1.05942
1.05951
1.0596
1.05968
1.05976
1.05983
1.05989
1.05995
1.06
1.06005
1.0601
1.06014
1.06018
1.06021
1.06023
1.06025
1.06027
1.06027
1.06028
1.06027
1.06027
1.06025
1.06023
1.0602
1.06017
1.06013
1.06008
1.06003
1.05997
1.0599
1.05983
1.05975
1.05967
1.05958
1.05949
1.0594
1.0593
1.0592
1.05909
1.05899
1.05888
1.05878
1.05867
1.05857
1.05847
1.05837
1.05828
1.05819
1.05811
1.05803
1.05797
1.05791
1.05786
1.05782
1.05778
1.05776
1.05775
1.05775
1.05777
1.05779
1.05783
1.05788
1.05794
1.05801
1.05809
1.05819
1.05829
1.05841
1.05853
1.05867
1.05881
1.05895
1.05911
1.05927
1.05944
1.05961
1.05978
1.05996
1.06014
1.06032
1.0605
1.06068
1.06087
1.06105
1.06123
1.0614
1.06158
1.06175
1.06191
1.06208
1.06223
1.06239
1.06253
1.06268
1.06282
1.06295
1.06308
1.06321
1.06333
1.06346
1.06358
1.0637
1.06382
1.06394
1.06406
1.06418
1.06431
1.06443
1.06456
1.06469
1.06483
1.06496
1.0651
1.06524
1.06538
1.06553
1.06567
1.06582
1.06597
1.06612
1.06628
1.06643
1.06658
1.06674
1.06689
1.06705
1.0672
1.06735
1.0675
1.06765
1.0678
1.06794
1.06808
1.06822
1.06836
1.06849
1.06861
1.06874
1.06885
1.06897
1.06907
1.06918
1.06927
1.06936
1.06944
1.06952
1.06958
1.06964
1.0697
1.06974
1.06978
1.0698
1.06982
1.06983
1.06984
1.06983
1.06982
1.0698
1.06977