# vtk DataFile Version 2.0
LBE mesh
ASCII
DATASET STRUCTURED_POINTS
DIMENSIONS 400 100 1
ASPECT_RATIO 1 1 1
ORIGIN 0 0 0
POINT_DATA 40000
SCALARS rho double 1
LOOKUP_TABLE default
0.957693
0.991808
1.00259
1.00658
1.00896
1.01058
1.01165
1.01237
1.01287
1.01324
1.01352
1.01372
1.01389
1.01401
1.01411
1.0142
1.01427
1.01432
1.01437
1.01442
1.01446
1.01451
1.01455
1.01459
1.01463
1.01467
1.01471
1.01476
1.01481
1.01486
1.01491
1.01496
1.01502
1.01508
1.01514
1.0152
1.01527
1.01534
1.01542
1.0155
1.01558
1.01567
1.01577
1.01587
1.01598
1.01609
1.01621
1.01634
1.01648
1.01663
1.01678
1.01695
1.01712
1.0173
1.0175
1.0177
1.01792
1.01814
1.01838
1.01862
1.01888
1.01914
1.01942
1.01971
1.02001
1.02032
1.02063
1.02096
1.0213
1.02165
1.02201
1.02237
1.02275
1.02314
1.02353
1.02393
1.02434
1.02476
1.02518
1.02561
1.02605
1.02649
1.02694
1.02739
1.02785
1.02831
1.02877
1.02924
1.0297
1.03017
1.03063
1.0311
1.03156
1.03201
1.03247
1.03291
1.03335
1.03378
1.03421
1.03462
1.03502
1.03541
1.03578
1.03615
1.03649
1.03682
1.03714
1.03743
1.03771
1.03797
1.03821
1.03843
1.03863
1.03881
1.03897
1.03911
1.03923
1.03933
1.03942
1.03949
1.03954
1.03958
1.0396
1.03961
1.03961
1.0396
1.03958
1.03955
1.03951
1.03947
1.03943
1.03938
1.03933
1.03929
1.03924
1.03919
1.03915
1.03911
1.03907
1.03904
1.03902
1.039
1.03899
1.03898
1.03899
1.039
1.03902
1.03905
1.03909
1.03914
1.03919
1.03926
1.03933
1.03941
1.0395
1.03959
1.03969
1.0398
1.03991
1.04002
1.04014
1.04027
1.04039
1.04052
1.04065
1.04078
1.04091
1.04104
1.04117
1.0413
1.04143
1.04156
1.04168
1.04181
1.04193
1.04205
1.04218
1.0423
1.04242
1.04254
1.04267
1.04279
1.04292
1.04305
1.04319
1.04333
1.04348
1.04363
1.04379
1.04395
1.04413
1.04431
1.0445
1.0447
1.04491
1.04513
1.04536
1.0456
1.04584
1.0461
1.04636
1.04663
1.04691
1.04719
1.04748
1.04777
1.04806
1.04835
1.04865
1.04894
1.04923
1.04952
1.0498
1.05007
1.05034
1.05059
1.05084
1.05108
1.0513
1.05151
1.05171
1.05189
1.05206
1.05222
1.05236
1.05248
1.05259
1.05268
1.05276
1.05282
1.05287
1.0529
1.05293
1.05294
1.05294
1.05293
1.05291
1.05288
1.05285
1.05281
1.05277
1.05273
1.05268
1.05264
1.0526
1.05256
1.05253
1.0525
1.05248
1.05247
1.05248
1.05249
1.05251
1.05255
1.05261
1.05267
1.05276
1.05286
1.05298
1.05311
1.05326
1.05343
1.05362
1.05382
1.05405
1.05428
1.05454
1.05481
1.0551
1.0554
1.05571
1.05604
1.05638
1.05673
1.05709
1.05745
1.05783
1.05821
1.0586
1.059
1.05939
1.05979
1.06019
1.0606
1.061
1.0614
1.06179
1.06219
1.06258
1.06296
1.06335
1.06372
1.0641
1.06446
1.06482
1.06517
1.06552
1.06586
1.06619
1.06652
1.06684
1.06715
1.06745
1.06775
1.06803
1.06832
1.06859
1.06886
1.06911
1.06937
1.06961
1.06985
1.07008
1.0703
1.07052
1.07073
1.07094
1.07114
1.07134
1.07153
1.07172
1.07191
1.07209
1.07227
1.07245
1.07263
1.0728
1.07297
1.07314
1.07331
1.07348
1.07364
1.0738
1.07396
1.07412
1.07427
1.07442
1.07456
1.0747
1.07483
1.07496
1.07508
1.0752
1.07531
1.07542
1.07552
1.07562
1.07572
1.07581
1.0759
1.07599
1.07608
1.07617
1.07627
1.07637
1.07648
1.07659
1.07671
1.07685
1.077
1.07716
1.07734
1.07754
1.07777
1.07801
1.07828
1.07858
1.07892
1.07928
1.07968
1.08011
1.08059
1.08111
1.08167
1.08229
1.08295
1.08367
1.08444
1.08528
1.08618
1.08714
1.08818
1.0893
1.0905
1.0918
1.0932
1.09471
1.09635
1.09815
1.10013
1.10232
1.10478
1.10761
1.1109
1.11484
1.11986
1.12698
1.13708
1.14938
1.16912
0.974127
0.987934
0.99772
1.00379
1.00712
1.00911
1.01045
1.01139
1.01208
1.01258
1.01296
1.01325
1.01348
1.01366
1.0138
1.01392
1.01402
1.01411
1.01418
1.01425
1.01431
1.01437
1.01442
1.01447
1.01452
1.01457
1.01463
1.01468
1.01473
1.01479
1.01484
1.0149
1.01496
1.01503
1.01509
1.01516
1.01523
1.0153
1.01538
1.01547
1.01555
1.01565
1.01574
1.01585
1.01596
1.01607
1.0162
1.01633
1.01647
1.01662
1.01677
1.01694
1.01712
1.0173
1.0175
1.0177
1.01792
1.01814
1.01838
1.01863
1.01888
1.01915
1.01943
1.01972
1.02002
1.02033
1.02065
1.02098
1.02132
1.02167
1.02202
1.02239
1.02277
1.02316
1.02355
1.02395
1.02436
1.02478
1.02521
1.02564
1.02608
1.02652
1.02697
1.02742
1.02788
1.02834
1.0288
1.02927
1.02974
1.0302
1.03067
1.03113
1.03159
1.03205
1.0325
1.03294
1.03338
1.03381
1.03423
1.03464
1.03504
1.03543
1.0358
1.03616
1.0365
1.03683
1.03714
1.03744
1.03771
1.03797
1.0382
1.03842
1.03862
1.0388
1.03895
1.03909
1.03921
1.03932
1.0394
1.03947
1.03952
1.03956
1.03958
1.03959
1.03959
1.03958
1.03956
1.03953
1.0395
1.03946
1.03941
1.03937
1.03932
1.03927
1.03923
1.03918
1.03914
1.0391
1.03907
1.03904
1.03902
1.039
1.03899
1.03899
1.03899
1.03901
1.03903
1.03906
1.0391
1.03915
1.0392
1.03927
1.03934
1.03942
1.0395
1.0396
1.0397
1.0398
1.03991
1.04003
1.04015
1.04027
1.04039
1.04052
1.04065
1.04078
1.04091
1.04104
1.04117
1.0413
1.04143
1.04156
1.04168
1.04181
1.04193
1.04206
1.04218
1.04231
1.04243
1.04255
1.04268
1.04281
1.04294
1.04307
1.04321
1.04335
1.0435
1.04365
1.04382
1.04398
1.04416
1.04434
1.04454
1.04474
1.04495
1.04517
1.0454
1.04563
1.04588
1.04614
1.0464
1.04667
1.04694
1.04722
1.04751
1.0478
1.04809
1.04838
1.04867
1.04896
1.04925
1.04953
1.04981
1.05008
1.05035
1.0506
1.05085
1.05108
1.0513
1.05151
1.05171
1.05189
1.05206
1.05221
1.05235
1.05247
1.05258
1.05267
1.05275
1.05281
1.05286
1.05289
1.05291
1.05293
1.05292
1.05292
1.0529
1.05287
1.05284
1.0528
1.05276
1.05272
1.05268
1.05264
1.0526
1.05256
1.05253
1.05251
1.05249
1.05249
1.05249
1.0525
1.05253
1.05257
1.05263
1.0527
1.05278
1.05289
1.05301
1.05314
1.0533
1.05347
1.05366
1.05386
1.05408
1.05432
1.05458
1.05485
1.05514
1.05544
1.05575
1.05608
1.05642
1.05677
1.05713
1.0575
1.05787
1.05825
1.05864
1.05903
1.05943
1.05983
1.06023
1.06063
1.06103
1.06143
1.06182
1.06222
1.06261
1.06299
1.06337
1.06375
1.06412
1.06448
1.06484
1.06519
1.06554
1.06588
1.06621
1.06653
1.06685
1.06716
1.06746
1.06776
1.06805
1.06833
1.0686
1.06886
1.06912
1.06937
1.06962
1.06985
1.07008
1.07031
1.07052
1.07073
1.07094
1.07114
1.07134
1.07153
1.07172
1.0719
1.07209
1.07227
1.07244
1.07262
1.07279
1.07296
1.07313
1.0733
1.07347
1.07363
1.07379
1.07395
1.0741
1.07425
1.0744
1.07454
1.07468
1.07481
1.07494
1.07506
1.07518
1.07529
1.0754
1.0755
1.0756
1.0757
1.07579
1.07588
1.07597
1.07607
1.07616
1.07626
1.07636
1.07647
1.07659
1.07671
1.07685
1.077
1.07717
1.07735
1.07756
1.07778
1.07803
1.07831
1.07861
1.07895
1.07932
1.07972
1.08016
1.08065
1.08117
1.08174
1.08236
1.08304
1.08376
1.08455
1.08539
1.0863
1.08728
1.08834
1.08947
1.09069
1.09201
1.09343
1.09498
1.09666
1.0985
1.10054
1.10281
1.10537
1.10833
1.11182
1.11608
1.12142
1.12816
1.13767
1.15494
1.18361
0.990756
0.993351
0.998766
1.00308
1.00602
1.00811
1.00959
1.01066
1.01144
1.01203
1.01249
1.01284
1.01312
1.01334
1.01353
1.01368
1.01381
1.01391
1.01401
1.01409
1.01417
1.01424
1.0143
1.01436
1.01443
1.01448
1.01454
1.0146
1.01466
1.01472
1.01478
1.01485
1.01491
1.01498
1.01505
1.01512
1.01519
1.01527
1.01535
1.01544
1.01553
1.01562
1.01572
1.01583
1.01594
1.01606
1.01618
1.01632
1.01646
1.01661
1.01677
1.01693
1.01711
1.0173
1.01749
1.0177
1.01792
1.01814
1.01838
1.01863
1.01889
1.01915
1.01943
1.01972
1.02002
1.02033
1.02065
1.02098
1.02132
1.02167
1.02203
1.0224
1.02278
1.02317
1.02356
1.02397
1.02438
1.0248
1.02523
1.02566
1.0261
1.02654
1.02699
1.02745
1.02791
1.02837
1.02883
1.0293
1.02976
1.03023
1.0307
1.03116
1.03162
1.03207
1.03253
1.03297
1.03341
1.03384
1.03426
1.03467
1.03507
1.03545
1.03582
1.03618
1.03652
1.03685
1.03716
1.03745
1.03772
1.03797
1.03821
1.03842
1.03862
1.0388
1.03895
1.03909
1.03921
1.03931
1.03939
1.03946
1.03951
1.03955
1.03957
1.03958
1.03958
1.03957
1.03955
1.03952
1.03949
1.03945
1.03941
1.03937
1.03932
1.03927
1.03923
1.03919
1.03915
1.03911
1.03908
1.03905
1.03903
1.03901
1.03901
1.039
1.03901
1.03903
1.03905
1.03908
1.03912
1.03917
1.03923
1.03929
1.03936
1.03944
1.03953
1.03962
1.03972
1.03982
1.03993
1.04005
1.04017
1.04029
1.04041
1.04054
1.04067
1.04079
1.04093
1.04106
1.04119
1.04132
1.04144
1.04157
1.0417
1.04183
1.04196
1.04208
1.04221
1.04233
1.04246
1.04259
1.04271
1.04284
1.04298
1.04311
1.04325
1.0434
1.04355
1.0437
1.04387
1.04404
1.04421
1.0444
1.04459
1.04479
1.04501
1.04523
1.04545
1.04569
1.04594
1.04619
1.04645
1.04672
1.047
1.04728
1.04756
1.04784
1.04813
1.04842
1.04871
1.049
1.04928
1.04956
1.04984
1.05011
1.05037
1.05062
1.05086
1.05109
1.05131
1.05152
1.05171
1.05189
1.05206
1.05221
1.05235
1.05247
1.05257
1.05266
1.05274
1.0528
1.05285
1.05288
1.05291
1.05292
1.05292
1.05291
1.05289
1.05287
1.05284
1.0528
1.05276
1.05272
1.05268
1.05264
1.05261
1.05257
1.05254
1.05252
1.05251
1.0525
1.05251
1.05253
1.05256
1.0526
1.05266
1.05273
1.05282
1.05292
1.05304
1.05318
1.05333
1.05351
1.05369
1.0539
1.05412
1.05436
1.05462
1.05489
1.05518
1.05548
1.0558
1.05612
1.05646
1.05681
1.05717
1.05754
1.05791
1.0583
1.05868
1.05908
1.05947
1.05987
1.06027
1.06067
1.06107
1.06146
1.06186
1.06225
1.06264
1.06302
1.0634
1.06378
1.06415
1.06451
1.06487
1.06522
1.06556
1.0659
1.06623
1.06655
1.06687
1.06718
1.06748
1.06777
1.06806
1.06834
1.06861
1.06888
1.06914
1.06938
1.06963
1.06986
1.07009
1.07032
1.07053
1.07074
1.07095
1.07115
1.07134
1.07153
1.07172
1.07191
1.07209
1.07227
1.07244
1.07262
1.07279
1.07296
1.07313
1.0733
1.07346
1.07362
1.07378
1.07394
1.07409
1.07424
1.07439
1.07453
1.07467
1.0748
1.07493
1.07505
1.07517
1.07528
1.07539
1.07549
1.07559
1.07569
1.07578
1.07587
1.07596
1.07606
1.07615
1.07625
1.07636
1.07647
1.07658
1.07671
1.07685
1.07701
1.07718
1.07736
1.07757
1.0778
1.07805
1.07833
1.07863
1.07897
1.07934
1.07975
1.0802
1.08068
1.08121
1.08179
1.08241
1.08309
1.08382
1.08461
1.08546
1.08637
1.08736
1.08842
1.08956
1.09079
1.09212
1.09355
1.09511
1.0968
1.09866
1.10071
1.10299
1.10557
1.10852
1.11197
1.11608
1.12118
1.12776
1.13585
1.14459
1.15417
0.999527
0.999135
1.00122
1.00373
1.00602
1.00781
1.00917
1.01021
1.01102
1.01164
1.01213
1.01252
1.01284
1.01309
1.0133
1.01348
1.01362
1.01375
1.01386
1.01396
1.01405
1.01413
1.0142
1.01427
1.01434
1.01441
1.01447
1.01453
1.0146
1.01466
1.01473
1.0148
1.01486
1.01493
1.01501
1.01508
1.01516
1.01524
1.01532
1.01541
1.0155
1.0156
1.0157
1.01581
1.01592
1.01604
1.01617
1.0163
1.01645
1.0166
1.01676
1.01693
1.0171
1.01729
1.01749
1.0177
1.01791
1.01814
1.01838
1.01863
1.01888
1.01915
1.01943
1.01972
1.02002
1.02033
1.02065
1.02099
1.02133
1.02168
1.02204
1.02241
1.02279
1.02317
1.02357
1.02397
1.02439
1.02481
1.02523
1.02567
1.02611
1.02655
1.02701
1.02746
1.02792
1.02838
1.02885
1.02932
1.02978
1.03025
1.03072
1.03118
1.03164
1.0321
1.03255
1.033
1.03344
1.03386
1.03429
1.03469
1.03509
1.03548
1.03585
1.0362
1.03655
1.03687
1.03718
1.03747
1.03774
1.03799
1.03823
1.03844
1.03863
1.03881
1.03896
1.0391
1.03922
1.03932
1.0394
1.03946
1.03951
1.03955
1.03957
1.03958
1.03958
1.03957
1.03955
1.03952
1.03949
1.03946
1.03942
1.03937
1.03933
1.03929
1.03924
1.0392
1.03916
1.03913
1.0391
1.03907
1.03905
1.03904
1.03903
1.03903
1.03904
1.03906
1.03908
1.03912
1.03916
1.0392
1.03926
1.03933
1.0394
1.03948
1.03956
1.03965
1.03975
1.03986
1.03997
1.04008
1.0402
1.04032
1.04044
1.04057
1.0407
1.04082
1.04096
1.04109
1.04122
1.04135
1.04148
1.04161
1.04174
1.04186
1.04199
1.04212
1.04225
1.04238
1.0425
1.04263
1.04277
1.0429
1.04303
1.04317
1.04332
1.04346
1.04362
1.04377
1.04394
1.04411
1.04429
1.04447
1.04467
1.04487
1.04508
1.0453
1.04553
1.04577
1.04601
1.04627
1.04653
1.04679
1.04706
1.04734
1.04762
1.0479
1.04819
1.04848
1.04876
1.04905
1.04933
1.0496
1.04987
1.05014
1.0504
1.05065
1.05088
1.05111
1.05133
1.05153
1.05172
1.0519
1.05207
1.05221
1.05235
1.05247
1.05257
1.05266
1.05274
1.0528
1.05284
1.05288
1.0529
1.05291
1.05291
1.05291
1.05289
1.05287
1.05284
1.0528
1.05277
1.05273
1.05269
1.05265
1.05262
1.05259
1.05256
1.05254
1.05253
1.05253
1.05254
1.05255
1.05259
1.05263
1.05269
1.05276
1.05285
1.05296
1.05308
1.05322
1.05337
1.05355
1.05374
1.05394
1.05417
1.05441
1.05466
1.05494
1.05522
1.05553
1.05584
1.05617
1.05651
1.05686
1.05722
1.05758
1.05796
1.05834
1.05873
1.05912
1.05952
1.05991
1.06031
1.06071
1.06111
1.0615
1.0619
1.06229
1.06267
1.06306
1.06344
1.06381
1.06418
1.06454
1.06489
1.06524
1.06559
1.06592
1.06625
1.06658
1.06689
1.0672
1.0675
1.06779
1.06808
1.06836
1.06863
1.0689
1.06915
1.0694
1.06964
1.06988
1.07011
1.07033
1.07055
1.07076
1.07096
1.07116
1.07135
1.07155
1.07173
1.07192
1.0721
1.07227
1.07245
1.07262
1.07279
1.07296
1.07313
1.0733
1.07346
1.07362
1.07378
1.07394
1.07409
1.07424
1.07438
1.07453
1.07466
1.07479
1.07492
1.07504
1.07516
1.07527
1.07538
1.07548
1.07558
1.07568
1.07577
1.07587
1.07596
1.07605
1.07615
1.07625
1.07636
1.07647
1.07659
1.07672
1.07686
1.07701
1.07718
1.07737
1.07758
1.07781
1.07806
1.07834
1.07865
1.07899
1.07936
1.07976
1.08021
1.0807
1.08122
1.0818
1.08242
1.0831
1.08383
1.08462
1.08547
1.08638
1.08737
1.08843
1.08957
1.09079
1.09212
1.09355
1.09509
1.09678
1.09861
1.10064
1.10288
1.10538
1.10822
1.11148
1.11526
1.11963
1.12468
1.13035
1.13495
1.13531
1.00347
1.00298
1.00378
1.00513
1.00663
1.00798
1.00912
1.01005
1.01081
1.01142
1.01191
1.01231
1.01263
1.0129
1.01313
1.01332
1.01348
1.01362
1.01374
1.01385
1.01395
1.01403
1.01412
1.01419
1.01427
1.01434
1.01441
1.01448
1.01455
1.01461
1.01468
1.01475
1.01482
1.0149
1.01497
1.01505
1.01513
1.01521
1.0153
1.01539
1.01548
1.01558
1.01568
1.01579
1.01591
1.01603
1.01616
1.0163
1.01644
1.01659
1.01675
1.01692
1.0171
1.01729
1.01749
1.01769
1.01791
1.01814
1.01838
1.01862
1.01888
1.01915
1.01943
1.01972
1.02002
1.02033
1.02065
1.02098
1.02132
1.02167
1.02203
1.0224
1.02278
1.02317
1.02357
1.02397
1.02439
1.02481
1.02524
1.02567
1.02611
1.02656
1.02701
1.02747
1.02793
1.02839
1.02886
1.02933
1.0298
1.03027
1.03073
1.0312
1.03166
1.03212
1.03257
1.03302
1.03346
1.03389
1.03431
1.03472
1.03512
1.0355
1.03588
1.03623
1.03657
1.0369
1.03721
1.03749
1.03777
1.03802
1.03825
1.03846
1.03866
1.03883
1.03898
1.03912
1.03923
1.03933
1.03941
1.03948
1.03953
1.03956
1.03958
1.03959
1.03959
1.03958
1.03956
1.03954
1.03951
1.03947
1.03943
1.03939
1.03935
1.03931
1.03927
1.03923
1.03919
1.03916
1.03913
1.03911
1.03909
1.03908
1.03908
1.03908
1.03909
1.03911
1.03913
1.03917
1.03921
1.03926
1.03931
1.03938
1.03945
1.03953
1.03961
1.03971
1.0398
1.03991
1.04002
1.04013
1.04025
1.04037
1.04049
1.04061
1.04074
1.04087
1.041
1.04113
1.04126
1.04139
1.04153
1.04166
1.04179
1.04192
1.04205
1.04218
1.04231
1.04244
1.04257
1.0427
1.04284
1.04297
1.04311
1.04325
1.0434
1.04355
1.0437
1.04386
1.04403
1.0442
1.04438
1.04457
1.04477
1.04497
1.04518
1.0454
1.04563
1.04587
1.04611
1.04636
1.04662
1.04688
1.04715
1.04742
1.0477
1.04798
1.04826
1.04854
1.04882
1.0491
1.04938
1.04965
1.04992
1.05018
1.05044
1.05068
1.05092
1.05114
1.05135
1.05155
1.05174
1.05192
1.05208
1.05222
1.05236
1.05247
1.05258
1.05266
1.05274
1.0528
1.05285
1.05288
1.0529
1.05292
1.05292
1.05291
1.0529
1.05287
1.05285
1.05282
1.05278
1.05274
1.05271
1.05267
1.05264
1.05261
1.05259
1.05257
1.05256
1.05256
1.05257
1.05259
1.05262
1.05267
1.05273
1.0528
1.05289
1.053
1.05312
1.05326
1.05342
1.05359
1.05378
1.05399
1.05421
1.05445
1.05471
1.05498
1.05527
1.05557
1.05589
1.05622
1.05656
1.05691
1.05727
1.05763
1.05801
1.05839
1.05878
1.05917
1.05956
1.05996
1.06036
1.06076
1.06115
1.06155
1.06194
1.06233
1.06271
1.0631
1.06347
1.06385
1.06421
1.06457
1.06493
1.06528
1.06562
1.06595
1.06628
1.0666
1.06692
1.06722
1.06752
1.06782
1.0681
1.06838
1.06865
1.06892
1.06917
1.06942
1.06966
1.0699
1.07013
1.07035
1.07057
1.07077
1.07098
1.07118
1.07137
1.07156
1.07175
1.07193
1.07211
1.07229
1.07246
1.07264
1.07281
1.07298
1.07314
1.07331
1.07347
1.07363
1.07379
1.07394
1.07409
1.07424
1.07439
1.07453
1.07466
1.07479
1.07492
1.07504
1.07516
1.07527
1.07538
1.07548
1.07558
1.07568
1.07578
1.07587
1.07597
1.07606
1.07616
1.07626
1.07637
1.07648
1.0766
1.07673
1.07687
1.07703
1.0772
1.07739
1.07759
1.07782
1.07807
1.07835
1.07866
1.07899
1.07936
1.07977
1.08021
1.08069
1.08122
1.08179
1.08241
1.08308
1.0838
1.08459
1.08543
1.08634
1.08731
1.08836
1.08949
1.09071
1.09202
1.09343
1.09495
1.0966
1.09839
1.10035
1.10249
1.10486
1.1075
1.11043
1.1137
1.11728
1.12093
1.12422
1.12656
1.12598
1.0059
1.00557
1.00584
1.00656
1.0075
1.00846
1.00936
1.01013
1.0108
1.01135
1.01182
1.0122
1.01252
1.0128
1.01302
1.01322
1.01339
1.01353
1.01366
1.01377
1.01388
1.01397
1.01406
1.01414
1.01422
1.01429
1.01436
1.01444
1.01451
1.01458
1.01465
1.01472
1.01479
1.01487
1.01495
1.01502
1.01511
1.01519
1.01528
1.01537
1.01547
1.01557
1.01567
1.01578
1.0159
1.01602
1.01615
1.01629
1.01644
1.01659
1.01675
1.01692
1.0171
1.01728
1.01748
1.01769
1.01791
1.01813
1.01837
1.01862
1.01887
1.01914
1.01942
1.01971
1.02001
1.02032
1.02064
1.02097
1.02131
1.02166
1.02202
1.02239
1.02277
1.02316
1.02356
1.02396
1.02438
1.0248
1.02523
1.02566
1.02611
1.02655
1.02701
1.02747
1.02793
1.02839
1.02886
1.02933
1.0298
1.03027
1.03074
1.03121
1.03168
1.03214
1.03259
1.03304
1.03348
1.03391
1.03434
1.03475
1.03515
1.03553
1.03591
1.03626
1.0366
1.03693
1.03724
1.03753
1.0378
1.03805
1.03828
1.03849
1.03869
1.03886
1.03901
1.03915
1.03926
1.03936
1.03944
1.0395
1.03955
1.03959
1.03961
1.03962
1.03962
1.03961
1.03959
1.03957
1.03954
1.0395
1.03946
1.03943
1.03939
1.03935
1.03931
1.03927
1.03924
1.03921
1.03918
1.03916
1.03914
1.03913
1.03913
1.03914
1.03915
1.03917
1.03919
1.03923
1.03927
1.03932
1.03938
1.03944
1.03951
1.03959
1.03968
1.03977
1.03987
1.03997
1.04008
1.04019
1.04031
1.04043
1.04055
1.04067
1.0408
1.04093
1.04106
1.04119
1.04133
1.04146
1.04159
1.04172
1.04186
1.04199
1.04212
1.04225
1.04239
1.04252
1.04265
1.04279
1.04293
1.04307
1.04321
1.04335
1.0435
1.04365
1.04381
1.04397
1.04414
1.04432
1.0445
1.04469
1.04488
1.04509
1.0453
1.04552
1.04574
1.04598
1.04622
1.04647
1.04672
1.04698
1.04725
1.04752
1.04779
1.04807
1.04835
1.04862
1.0489
1.04918
1.04945
1.04972
1.04998
1.05023
1.05048
1.05072
1.05095
1.05117
1.05138
1.05158
1.05177
1.05194
1.05209
1.05224
1.05237
1.05248
1.05258
1.05267
1.05274
1.0528
1.05285
1.05289
1.05291
1.05292
1.05293
1.05292
1.05291
1.05289
1.05286
1.05283
1.0528
1.05277
1.05273
1.0527
1.05267
1.05264
1.05262
1.05261
1.0526
1.0526
1.05261
1.05263
1.05267
1.05271
1.05277
1.05285
1.05294
1.05305
1.05317
1.05331
1.05347
1.05364
1.05383
1.05404
1.05426
1.0545
1.05476
1.05503
1.05532
1.05562
1.05594
1.05627
1.05661
1.05696
1.05732
1.05768
1.05806
1.05844
1.05883
1.05922
1.05961
1.06001
1.06041
1.0608
1.0612
1.06159
1.06199
1.06237
1.06276
1.06314
1.06351
1.06388
1.06425
1.06461
1.06496
1.06531
1.06565
1.06598
1.06631
1.06663
1.06694
1.06725
1.06755
1.06784
1.06813
1.06841
1.06868
1.06894
1.0692
1.06945
1.06969
1.06992
1.07015
1.07037
1.07059
1.0708
1.071
1.0712
1.0714
1.07159
1.07177
1.07196
1.07214
1.07231
1.07249
1.07266
1.07283
1.073
1.07316
1.07332
1.07349
1.07365
1.0738
1.07396
1.07411
1.07425
1.0744
1.07454
1.07467
1.0748
1.07493
1.07505
1.07517
1.07528
1.07539
1.07549
1.07559
1.07569
1.07579
1.07588
1.07598
1.07607
1.07617
1.07627
1.07638
1.07649
1.07661
1.07675
1.07689
1.07704
1.07721
1.0774
1.07761
1.07783
1.07808
1.07836
1.07866
1.07899
1.07936
1.07976
1.0802
1.08067
1.08119
1.08175
1.08236
1.08302
1.08374
1.08451
1.08534
1.08624
1.0872
1.08823
1.08934
1.09054
1.09182
1.09319
1.09467
1.09627
1.09799
1.09985
1.10187
1.10407
1.10645
1.10901
1.11172
1.11449
1.1171
1.11912
1.1202
1.11999
1.00768
1.00736
1.00743
1.00783
1.00842
1.00909
1.00975
1.01038
1.01093
1.01142
1.01183
1.01219
1.0125
1.01276
1.01298
1.01317
1.01334
1.01349
1.01362
1.01373
1.01384
1.01393
1.01402
1.0141
1.01419
1.01426
1.01434
1.01441
1.01448
1.01456
1.01463
1.0147
1.01478
1.01485
1.01493
1.01501
1.0151
1.01518
1.01527
1.01536
1.01546
1.01556
1.01567
1.01578
1.0159
1.01602
1.01615
1.01629
1.01644
1.01659
1.01675
1.01692
1.0171
1.01729
1.01748
1.01769
1.0179
1.01813
1.01837
1.01861
1.01887
1.01914
1.01941
1.0197
1.02
1.02031
1.02063
1.02096
1.0213
1.02165
1.02201
1.02238
1.02276
1.02315
1.02354
1.02395
1.02436
1.02479
1.02522
1.02565
1.02609
1.02654
1.027
1.02746
1.02792
1.02839
1.02886
1.02933
1.0298
1.03028
1.03075
1.03122
1.03169
1.03215
1.03261
1.03306
1.0335
1.03393
1.03436
1.03477
1.03517
1.03556
1.03594
1.03629
1.03664
1.03696
1.03727
1.03756
1.03784
1.03809
1.03832
1.03853
1.03873
1.0389
1.03905
1.03919
1.0393
1.0394
1.03948
1.03954
1.03959
1.03962
1.03965
1.03966
1.03966
1.03965
1.03963
1.0396
1.03958
1.03954
1.03951
1.03947
1.03943
1.0394
1.03936
1.03932
1.03929
1.03927
1.03924
1.03922
1.03921
1.0392
1.0392
1.03921
1.03922
1.03924
1.03927
1.03931
1.03935
1.0394
1.03946
1.03952
1.03959
1.03967
1.03976
1.03985
1.03995
1.04005
1.04016
1.04027
1.04038
1.0405
1.04063
1.04075
1.04088
1.04101
1.04114
1.04127
1.04141
1.04154
1.04167
1.04181
1.04194
1.04208
1.04221
1.04235
1.04248
1.04262
1.04276
1.0429
1.04304
1.04318
1.04332
1.04347
1.04362
1.04378
1.04394
1.0441
1.04427
1.04445
1.04463
1.04482
1.04502
1.04522
1.04543
1.04565
1.04588
1.04611
1.04635
1.0466
1.04685
1.04711
1.04737
1.04763
1.0479
1.04817
1.04845
1.04872
1.04899
1.04926
1.04953
1.04979
1.05005
1.0503
1.05054
1.05078
1.051
1.05122
1.05142
1.05162
1.0518
1.05197
1.05212
1.05226
1.05239
1.0525
1.0526
1.05269
1.05276
1.05282
1.05287
1.0529
1.05293
1.05294
1.05294
1.05294
1.05293
1.05291
1.05289
1.05286
1.05283
1.0528
1.05277
1.05274
1.05271
1.05268
1.05266
1.05265
1.05264
1.05265
1.05266
1.05268
1.05272
1.05277
1.05283
1.0529
1.053
1.0531
1.05322
1.05336
1.05352
1.05369
1.05388
1.05409
1.05432
1.05456
1.05481
1.05509
1.05537
1.05567
1.05599
1.05632
1.05666
1.05701
1.05737
1.05774
1.05811
1.05849
1.05888
1.05927
1.05967
1.06006
1.06046
1.06086
1.06125
1.06164
1.06203
1.06242
1.06281
1.06318
1.06356
1.06393
1.06429
1.06465
1.065
1.06535
1.06568
1.06602
1.06634
1.06666
1.06698
1.06728
1.06758
1.06787
1.06816
1.06843
1.0687
1.06897
1.06922
1.06947
1.06972
1.06995
1.07018
1.0704
1.07062
1.07083
1.07104
1.07123
1.07143
1.07162
1.07181
1.07199
1.07217
1.07234
1.07252
1.07269
1.07286
1.07302
1.07319
1.07335
1.07351
1.07367
1.07382
1.07398
1.07413
1.07427
1.07442
1.07456
1.07469
1.07482
1.07495
1.07507
1.07518
1.0753
1.0754
1.07551
1.07561
1.07571
1.07581
1.0759
1.076
1.0761
1.07619
1.0763
1.0764
1.07652
1.07664
1.07677
1.07691
1.07707
1.07724
1.07742
1.07763
1.07785
1.0781
1.07837
1.07867
1.07899
1.07935
1.07974
1.08017
1.08064
1.08115
1.0817
1.0823
1.08295
1.08365
1.08441
1.08522
1.0861
1.08704
1.08805
1.08913
1.0903
1.09154
1.09287
1.0943
1.09583
1.09746
1.09921
1.10108
1.10307
1.10518
1.10738
1.10959
1.11171
1.11355
1.11487
1.11541
1.11524
1.00902
1.00873
1.00872
1.00893
1.0093
1.00976
1.01025
1.01074
1.01119
1.0116
1.01196
1.01228
1.01255
1.01279
1.013
1.01319
1.01335
1.01349
1.01362
1.01373
1.01383
1.01393
1.01402
1.0141
1.01418
1.01426
1.01433
1.01441
1.01448
1.01455
1.01463
1.0147
1.01477
1.01485
1.01493
1.01501
1.0151
1.01518
1.01527
1.01537
1.01546
1.01557
1.01567
1.01579
1.0159
1.01603
1.01616
1.0163
1.01644
1.01659
1.01675
1.01692
1.0171
1.01729
1.01748
1.01769
1.0179
1.01813
1.01836
1.01861
1.01886
1.01913
1.0194
1.01969
1.01999
1.0203
1.02061
1.02094
1.02128
1.02163
1.02199
1.02236
1.02274
1.02312
1.02352
1.02393
1.02434
1.02476
1.02519
1.02563
1.02607
1.02652
1.02698
1.02744
1.0279
1.02837
1.02884
1.02932
1.02979
1.03027
1.03074
1.03122
1.03169
1.03215
1.03261
1.03306
1.03351
1.03395
1.03438
1.03479
1.0352
1.03559
1.03596
1.03633
1.03667
1.037
1.03731
1.0376
1.03788
1.03813
1.03837
1.03858
1.03877
1.03895
1.0391
1.03923
1.03935
1.03945
1.03953
1.03959
1.03964
1.03967
1.03969
1.0397
1.0397
1.03969
1.03968
1.03966
1.03963
1.0396
1.03956
1.03953
1.03949
1.03946
1.03942
1.03939
1.03936
1.03934
1.03932
1.0393
1.03929
1.03929
1.03929
1.0393
1.03931
1.03933
1.03936
1.0394
1.03944
1.03949
1.03955
1.03962
1.03969
1.03977
1.03985
1.03994
1.04004
1.04014
1.04025
1.04036
1.04048
1.04059
1.04072
1.04084
1.04097
1.0411
1.04123
1.04137
1.0415
1.04164
1.04177
1.04191
1.04205
1.04218
1.04232
1.04246
1.0426
1.04274
1.04288
1.04302
1.04316
1.04331
1.04346
1.04361
1.04376
1.04392
1.04408
1.04425
1.04442
1.0446
1.04478
1.04497
1.04517
1.04538
1.04559
1.0458
1.04603
1.04626
1.0465
1.04674
1.04699
1.04724
1.0475
1.04776
1.04802
1.04829
1.04856
1.04883
1.04909
1.04936
1.04962
1.04987
1.05013
1.05037
1.05061
1.05084
1.05106
1.05127
1.05147
1.05166
1.05184
1.052
1.05215
1.05229
1.05242
1.05253
1.05263
1.05271
1.05278
1.05284
1.05289
1.05292
1.05295
1.05296
1.05297
1.05297
1.05296
1.05294
1.05292
1.05289
1.05287
1.05284
1.05281
1.05278
1.05275
1.05273
1.05271
1.0527
1.0527
1.0527
1.05272
1.05274
1.05278
1.05283
1.05289
1.05296
1.05305
1.05316
1.05328
1.05342
1.05358
1.05375
1.05394
1.05415
1.05437
1.05461
1.05487
1.05514
1.05542
1.05573
1.05604
1.05637
1.05671
1.05706
1.05742
1.05779
1.05816
1.05855
1.05893
1.05933
1.05972
1.06011
1.06051
1.06091
1.0613
1.06169
1.06208
1.06247
1.06285
1.06323
1.0636
1.06397
1.06433
1.06469
1.06504
1.06538
1.06572
1.06605
1.06638
1.0667
1.06701
1.06731
1.06761
1.0679
1.06819
1.06846
1.06873
1.069
1.06925
1.0695
1.06975
1.06998
1.07021
1.07044
1.07066
1.07087
1.07107
1.07127
1.07147
1.07166
1.07184
1.07203
1.0722
1.07238
1.07255
1.07272
1.07289
1.07306
1.07322
1.07338
1.07354
1.0737
1.07386
1.07401
1.07416
1.0743
1.07444
1.07458
1.07472
1.07485
1.07497
1.07509
1.07521
1.07532
1.07543
1.07554
1.07564
1.07574
1.07584
1.07593
1.07603
1.07613
1.07623
1.07633
1.07644
1.07655
1.07667
1.0768
1.07694
1.0771
1.07726
1.07745
1.07765
1.07787
1.07811
1.07838
1.07867
1.07899
1.07934
1.07972
1.08014
1.0806
1.08109
1.08163
1.08222
1.08285
1.08353
1.08427
1.08506
1.08591
1.08683
1.08781
1.08886
1.08999
1.09119
1.09247
1.09383
1.09528
1.09681
1.09844
1.10015
1.10195
1.10379
1.10565
1.10746
1.10909
1.11042
1.11131
1.11162
1.11136
1.01008
1.00983
1.00977
1.00987
1.01011
1.01042
1.01078
1.01115
1.01151
1.01185
1.01215
1.01243
1.01267
1.01289
1.01308
1.01325
1.0134
1.01354
1.01366
1.01377
1.01387
1.01396
1.01404
1.01412
1.0142
1.01428
1.01435
1.01442
1.0145
1.01457
1.01464
1.01471
1.01479
1.01487
1.01494
1.01503
1.01511
1.0152
1.01529
1.01538
1.01548
1.01558
1.01569
1.0158
1.01592
1.01604
1.01617
1.01631
1.01646
1.01661
1.01677
1.01693
1.01711
1.0173
1.01749
1.01769
1.01791
1.01813
1.01836
1.0186
1.01886
1.01912
1.0194
1.01968
1.01998
1.02028
1.0206
1.02093
1.02126
1.02161
1.02197
1.02234
1.02271
1.0231
1.0235
1.0239
1.02432
1.02474
1.02517
1.0256
1.02605
1.0265
1.02695
1.02741
1.02788
1.02835
1.02883
1.0293
1.02978
1.03026
1.03073
1.03121
1.03168
1.03215
1.03261
1.03307
1.03352
1.03396
1.03439
1.03481
1.03522
1.03561
1.03599
1.03636
1.03671
1.03704
1.03735
1.03765
1.03792
1.03818
1.03841
1.03863
1.03882
1.039
1.03915
1.03929
1.0394
1.0395
1.03958
1.03964
1.03969
1.03973
1.03975
1.03976
1.03976
1.03975
1.03974
1.03972
1.03969
1.03966
1.03963
1.0396
1.03957
1.03953
1.0395
1.03947
1.03945
1.03943
1.03941
1.0394
1.03939
1.03939
1.03939
1.0394
1.03942
1.03944
1.03947
1.03951
1.03955
1.03961
1.03966
1.03973
1.0398
1.03988
1.03996
1.04006
1.04015
1.04025
1.04036
1.04047
1.04059
1.0407
1.04083
1.04095
1.04108
1.04121
1.04134
1.04148
1.04161
1.04175
1.04189
1.04203
1.04217
1.04231
1.04245
1.04259
1.04273
1.04287
1.04302
1.04316
1.04331
1.04346
1.04361
1.04376
1.04392
1.04408
1.04425
1.04442
1.04459
1.04477
1.04496
1.04515
1.04535
1.04555
1.04576
1.04598
1.0462
1.04643
1.04666
1.0469
1.04715
1.0474
1.04765
1.04791
1.04816
1.04843
1.04869
1.04895
1.04921
1.04947
1.04972
1.04997
1.05022
1.05046
1.05069
1.05092
1.05113
1.05134
1.05153
1.05172
1.05189
1.05205
1.0522
1.05233
1.05246
1.05256
1.05266
1.05274
1.05281
1.05287
1.05292
1.05296
1.05298
1.053
1.053
1.053
1.053
1.05298
1.05296
1.05294
1.05292
1.05289
1.05286
1.05284
1.05281
1.05279
1.05278
1.05277
1.05277
1.05277
1.05279
1.05281
1.05285
1.0529
1.05296
1.05303
1.05312
1.05323
1.05335
1.05349
1.05364
1.05382
1.054
1.05421
1.05443
1.05467
1.05493
1.0552
1.05548
1.05578
1.0561
1.05643
1.05677
1.05712
1.05748
1.05784
1.05822
1.0586
1.05899
1.05938
1.05978
1.06017
1.06057
1.06096
1.06136
1.06175
1.06214
1.06252
1.0629
1.06328
1.06365
1.06402
1.06438
1.06473
1.06508
1.06542
1.06576
1.06609
1.06641
1.06673
1.06704
1.06735
1.06764
1.06793
1.06822
1.0685
1.06877
1.06903
1.06929
1.06954
1.06978
1.07002
1.07025
1.07048
1.07069
1.07091
1.07111
1.07131
1.07151
1.0717
1.07189
1.07207
1.07225
1.07243
1.0726
1.07277
1.07294
1.0731
1.07327
1.07343
1.07359
1.07374
1.0739
1.07405
1.0742
1.07434
1.07448
1.07462
1.07475
1.07488
1.07501
1.07513
1.07525
1.07536
1.07547
1.07557
1.07568
1.07578
1.07588
1.07597
1.07607
1.07617
1.07627
1.07637
1.07648
1.07659
1.07671
1.07684
1.07698
1.07714
1.0773
1.07748
1.07768
1.07789
1.07813
1.07839
1.07867
1.07899
1.07933
1.0797
1.08011
1.08055
1.08103
1.08156
1.08212
1.08274
1.0834
1.08412
1.08488
1.08571
1.0866
1.08755
1.08856
1.08964
1.09079
1.09201
1.0933
1.09467
1.0961
1.09761
1.09917
1.10077
1.10238
1.10395
1.10543
1.10671
1.1077
1.10831
1.10848
1.10817
1.01095
1.01074
1.01067
1.01071
1.01086
1.01108
1.01134
1.01161
1.0119
1.01217
1.01242
1.01265
1.01286
1.01305
1.01322
1.01338
1.01351
1.01364
1.01375
1.01385
1.01394
1.01402
1.01411
1.01418
1.01426
1.01433
1.0144
1.01447
1.01454
1.01461
1.01468
1.01475
1.01482
1.0149
1.01497
1.01505
1.01514
1.01522
1.01531
1.01541
1.01551
1.01561
1.01571
1.01583
1.01594
1.01607
1.0162
1.01633
1.01648
1.01663
1.01678
1.01695
1.01712
1.01731
1.0175
1.0177
1.01791
1.01813
1.01836
1.0186
1.01885
1.01911
1.01939
1.01967
1.01996
1.02026
1.02058
1.0209
1.02124
1.02159
1.02194
1.02231
1.02268
1.02307
1.02346
1.02387
1.02428
1.0247
1.02513
1.02557
1.02601
1.02646
1.02692
1.02738
1.02785
1.02832
1.0288
1.02927
1.02975
1.03023
1.03071
1.03119
1.03167
1.03214
1.03261
1.03307
1.03352
1.03396
1.0344
1.03482
1.03523
1.03563
1.03602
1.03638
1.03674
1.03707
1.03739
1.03769
1.03797
1.03823
1.03847
1.03868
1.03888
1.03906
1.03921
1.03935
1.03947
1.03957
1.03965
1.03971
1.03976
1.0398
1.03982
1.03983
1.03983
1.03983
1.03981
1.03979
1.03977
1.03974
1.03971
1.03968
1.03965
1.03962
1.03959
1.03957
1.03955
1.03953
1.03951
1.0395
1.0395
1.0395
1.0395
1.03952
1.03954
1.03956
1.03959
1.03963
1.03968
1.03973
1.03979
1.03986
1.03993
1.04001
1.04009
1.04018
1.04028
1.04038
1.04048
1.04059
1.04071
1.04083
1.04095
1.04108
1.04121
1.04134
1.04147
1.0416
1.04174
1.04188
1.04202
1.04216
1.0423
1.04244
1.04259
1.04273
1.04288
1.04302
1.04317
1.04332
1.04347