# vtk DataFile Version 2.0
LBE mesh
ASCII
DATASET STRUCTURED_POINTS
DIMENSIONS 400 100 1
ASPECT_RATIO 1 1 1
ORIGIN 0 0 0
POINT_DATA 40000
SCALARS rho double 1
LOOKUP_TABLE default
0.943897
0.974304
0.983946
0.987741
0.990011
0.99148
0.992395
0.992956
0.993303
0.99351
0.993622
0.993665
0.993659
0.993615
0.993547
0.993458
0.993356
0.993243
0.993125
0.993001
0.992874
0.992745
0.992617
0.992487
0.992359
0.992231
0.992106
0.991982
0.99186
0.99174
0.991624
0.99151
0.991401
0.991294
0.991193
0.991096
0.991005
0.990919
0.990842
0.990771
0.99071
0.990659
0.990619
0.990591
0.990578
0.990578
0.990596
0.99063
0.990685
0.990758
0.990853
0.990969
0.99111
0.991273
0.991461
0.991673
0.99191
0.99217
0.992455
0.992762
0.993093
0.993443
0.993815
0.994203
0.99461
0.995032
0.995468
0.995915
0.996374
0.99684
0.997315
0.997794
0.998279
0.998766
0.999256
0.999746
1.00024
1.00073
1.00122
1.00171
1.0022
1.00269
1.00318
1.00366
1.00415
1.00463
1.00511
1.0056
1.00608
1.00656
1.00705
1.00753
1.00801
1.0085
1.00898
1.00946
1.00994
1.01042
1.0109
1.01137
1.01184
1.01231
1.01277
1.01323
1.01367
1.01411
1.01454
1.01495
1.01536
1.01575
1.01612
1.01647
1.01681
1.01713
1.01742
1.01769
1.01794
1.01816
1.01836
1.01853
1.01868
1.0188
1.0189
1.01898
1.01903
1.01906
1.01906
1.01905
1.01903
1.01898
1.01892
1.01885
1.01877
1.01868
1.01859
1.01848
1.01838
1.01827
1.01816
1.01806
1.01795
1.01786
1.01777
1.01768
1.01761
1.01756
1.01751
1.01748
1.01747
1.01748
1.01751
1.01756
1.01764
1.01774
1.01787
1.01802
1.0182
1.01841
1.01864
1.0189
1.01918
1.01949
1.01983
1.02018
1.02055
1.02095
1.02136
1.02178
1.02222
1.02267
1.02312
1.02358
1.02405
1.02452
1.02498
1.02545
1.02591
1.02636
1.0268
1.02723
1.02765
1.02805
1.02843
1.0288
1.02914
1.02947
1.02977
1.03005
1.03031
1.03054
1.03076
1.03095
1.03113
1.03128
1.03142
1.03155
1.03166
1.03176
1.03185
1.03194
1.03202
1.0321
1.03218
1.03226
1.03234
1.03242
1.0325
1.03259
1.03269
1.03278
1.03288
1.03299
1.0331
1.03321
1.03333
1.03345
1.03358
1.03371
1.03384
1.03398
1.03412
1.03426
1.03441
1.03455
1.0347
1.03485
1.035
1.03515
1.03529
1.03544
1.03558
1.03572
1.03585
1.03598
1.0361
1.03621
1.03632
1.03642
1.03652
1.0366
1.03668
1.03675
1.03681
1.03687
1.03691
1.03696
1.03699
1.03703
1.03706
1.03708
1.03711
1.03714
1.03716
1.03719
1.03723
1.03726
1.0373
1.03735
1.0374
1.03747
1.03754
1.03762
1.03771
1.03782
1.03794
1.03807
1.03821
1.03838
1.03855
1.03874
1.03895
1.03918
1.03942
1.03969
1.03996
1.04026
1.04057
1.04091
1.04125
1.04162
1.042
1.04239
1.0428
1.04322
1.04365
1.0441
1.04455
1.04502
1.04549
1.04597
1.04645
1.04694
1.04744
1.04793
1.04842
1.04892
1.04941
1.0499
1.05038
1.05087
1.05134
1.05181
1.05227
1.05272
1.05316
1.05359
1.054
1.0544
1.05479
1.05516
1.05551
1.05585
1.05616
1.05646
1.05673
1.05698
1.05721
1.05742
1.0576
1.05777
1.05791
1.05803
1.05814
1.05823
1.0583
1.05837
1.05843
1.05848
1.05853
1.05858
1.05864
1.0587
1.05877
1.05885
1.05895
1.05906
1.05918
1.05933
1.05949
1.05967
1.05988
1.0601
1.06033
1.06059
1.06086
1.06114
1.06143
1.06173
1.06204
1.06236
1.06267
1.06299
1.0633
1.06361
1.06391
1.0642
1.06449
1.06476
1.06503
1.06528
1.06553
1.06576
1.06599
1.06621
1.06643
1.06664
1.06685
1.06705
1.06726
1.06747
1.06768
1.06789
1.06812
1.06834
1.06858
1.06884
1.06911
1.0694
1.06971
1.07006
1.07046
1.0709
1.0714
1.07198
1.07265
1.07342
1.07432
1.07537
1.0766
1.07803
1.07972
1.08171
1.08411
1.087
1.09058
1.09526
1.10201
1.11168
1.12371
1.14359
0.955961
0.970033
0.979516
0.985134
0.988189
0.989998
0.991172
0.991956
0.992478
0.992817
0.993032
0.993155
0.993216
0.993227
0.993205
0.993154
0.993086
0.993002
0.992909
0.992806
0.992699
0.992587
0.992473
0.992357
0.992241
0.992124
0.992008
0.991892
0.991779
0.991666
0.991557
0.991449
0.991345
0.991243
0.991148
0.991055
0.990969
0.990887
0.990815
0.990748
0.990692
0.990645
0.99061
0.990586
0.990578
0.990582
0.990605
0.990643
0.990702
0.990779
0.990879
0.990999
0.991144
0.99131
0.991502
0.991715
0.991955
0.992216
0.992503
0.99281
0.993142
0.993492
0.993864
0.994251
0.994658
0.995078
0.995513
0.995958
0.996416
0.99688
0.997354
0.997831
0.998316
0.9988
0.99929
0.999779
1.00027
1.00076
1.00125
1.00174
1.00223
1.00272
1.0032
1.00369
1.00417
1.00466
1.00514
1.00562
1.00611
1.00659
1.00707
1.00755
1.00804
1.00852
1.009
1.00948
1.00996
1.01044
1.01091
1.01139
1.01186
1.01232
1.01278
1.01323
1.01367
1.01411
1.01454
1.01495
1.01535
1.01573
1.0161
1.01645
1.01679
1.0171
1.01739
1.01766
1.01791
1.01813
1.01833
1.0185
1.01864
1.01877
1.01887
1.01894
1.01899
1.01902
1.01903
1.01902
1.019
1.01895
1.0189
1.01883
1.01875
1.01866
1.01857
1.01847
1.01837
1.01826
1.01816
1.01805
1.01795
1.01786
1.01777
1.01769
1.01762
1.01757
1.01752
1.0175
1.01749
1.0175
1.01753
1.01758
1.01766
1.01776
1.01789
1.01804
1.01822
1.01843
1.01866
1.01892
1.0192
1.01951
1.01984
1.02019
1.02057
1.02096
1.02137
1.02179
1.02223
1.02268
1.02313
1.02359
1.02406
1.02452
1.02499
1.02545
1.02591
1.02636
1.0268
1.02723
1.02764
1.02804
1.02843
1.02879
1.02913
1.02946
1.02976
1.03004
1.0303
1.03053
1.03075
1.03094
1.03112
1.03127
1.03142
1.03154
1.03166
1.03176
1.03186
1.03194
1.03203
1.03211
1.03219
1.03227
1.03235
1.03243
1.03251
1.0326
1.03269
1.03278
1.03288
1.03299
1.0331
1.03321
1.03332
1.03345
1.03357
1.0337
1.03383
1.03397
1.03411
1.03425
1.03439
1.03454
1.03468
1.03483
1.03498
1.03513
1.03527
1.03542
1.03556
1.03569
1.03583
1.03595
1.03607
1.03619
1.0363
1.0364
1.03649
1.03658
1.03665
1.03672
1.03679
1.03684
1.03689
1.03694
1.03698
1.03701
1.03705
1.03708
1.03711
1.03714
1.03717
1.0372
1.03724
1.03728
1.03732
1.03737
1.03743
1.0375
1.03757
1.03766
1.03775
1.03786
1.03798
1.03812
1.03826
1.03843
1.0386
1.0388
1.03901
1.03924
1.03948
1.03974
1.04002
1.04032
1.04063
1.04096
1.04131
1.04167
1.04205
1.04245
1.04286
1.04328
1.04371
1.04415
1.04461
1.04507
1.04554
1.04602
1.0465
1.04699
1.04748
1.04797
1.04846
1.04895
1.04944
1.04993
1.05041
1.05089
1.05136
1.05182
1.05228
1.05273
1.05316
1.05359
1.054
1.0544
1.05478
1.05515
1.0555
1.05583
1.05615
1.05644
1.05671
1.05696
1.05719
1.05739
1.05758
1.05774
1.05788
1.05801
1.05812
1.05821
1.05829
1.05836
1.05842
1.05847
1.05853
1.05858
1.05864
1.0587
1.05878
1.05886
1.05896
1.05907
1.0592
1.05935
1.05951
1.0597
1.0599
1.06012
1.06035
1.06061
1.06087
1.06115
1.06144
1.06174
1.06205
1.06236
1.06267
1.06298
1.06329
1.06359
1.06389
1.06418
1.06446
1.06473
1.06499
1.06525
1.06549
1.06572
1.06595
1.06617
1.06639
1.0666
1.06681
1.06702
1.06723
1.06745
1.06766
1.06788
1.06811
1.06834
1.06859
1.06885
1.06913
1.06943
1.06976
1.07012
1.07053
1.07099
1.07152
1.07212
1.07282
1.07363
1.07457
1.07566
1.07694
1.07844
1.08022
1.08232
1.08485
1.08795
1.09185
1.09684
1.10325
1.11242
1.12919
1.15704
0.972178
0.975092
0.980258
0.984317
0.987065
0.988965
0.99027
0.991166
0.991784
0.99221
0.992499
0.992685
0.992799
0.992857
0.992874
0.992858
0.99282
0.992763
0.992693
0.992612
0.992524
0.992429
0.992331
0.992228
0.992125
0.992019
0.991914
0.991807
0.991703
0.991598
0.991496
0.991395
0.991298
0.991202
0.991112
0.991024
0.990944
0.990867
0.9908
0.990738
0.990687
0.990645
0.990615
0.990596
0.990593
0.990603
0.990631
0.990674
0.990738
0.99082
0.990924
0.991049
0.991197
0.991366
0.991561
0.991777
0.992019
0.992282
0.992569
0.992877
0.993208
0.993558
0.993929
0.994316
0.994721
0.995139
0.995572
0.996015
0.996471
0.996933
0.997405
0.99788
0.998361
0.998844
0.999332
0.999819
1.00031
1.0008
1.00129
1.00177
1.00226
1.00275
1.00323
1.00371
1.0042
1.00468
1.00517
1.00565
1.00613
1.00661
1.00709
1.00758
1.00806
1.00854
1.00902
1.0095
1.00998
1.01046
1.01093
1.0114
1.01187
1.01233
1.01279
1.01324
1.01368
1.01411
1.01454
1.01495
1.01534
1.01573
1.01609
1.01644
1.01677
1.01708
1.01737
1.01764
1.01788
1.0181
1.0183
1.01847
1.01862
1.01874
1.01884
1.01891
1.01896
1.01899
1.019
1.019
1.01897
1.01893
1.01888
1.01881
1.01873
1.01865
1.01856
1.01846
1.01836
1.01826
1.01815
1.01805
1.01796
1.01787
1.01778
1.0177
1.01764
1.01758
1.01754
1.01752
1.01751
1.01752
1.01755
1.01761
1.01769
1.01779
1.01792
1.01807
1.01825
1.01845
1.01869
1.01894
1.01923
1.01954
1.01987
1.02022
1.02059
1.02099
1.02139
1.02182
1.02225
1.0227
1.02315
1.02361
1.02408
1.02454
1.02501
1.02547
1.02592
1.02637
1.02681
1.02724
1.02765
1.02805
1.02843
1.02879
1.02913
1.02945
1.02975
1.03003
1.03029
1.03053
1.03074
1.03094
1.03111
1.03127
1.03141
1.03154
1.03166
1.03176
1.03186
1.03195
1.03204
1.03212
1.0322
1.03227
1.03235
1.03243
1.03252
1.0326
1.03269
1.03278
1.03288
1.03298
1.03309
1.0332
1.03331
1.03343
1.03355
1.03368
1.03381
1.03395
1.03409
1.03423
1.03437
1.03452
1.03466
1.03481
1.03496
1.0351
1.03525
1.03539
1.03553
1.03567
1.0358
1.03593
1.03605
1.03616
1.03627
1.03637
1.03647
1.03655
1.03663
1.0367
1.03677
1.03683
1.03688
1.03693
1.03697
1.03701
1.03705
1.03708
1.03712
1.03715
1.03719
1.03722
1.03726
1.03731
1.03736
1.03741
1.03747
1.03754
1.03762
1.03771
1.03781
1.03792
1.03804
1.03817
1.03832
1.03848
1.03866
1.03886
1.03907
1.0393
1.03954
1.0398
1.04008
1.04038
1.0407
1.04103
1.04137
1.04174
1.04211
1.04251
1.04291
1.04333
1.04376
1.04421
1.04466
1.04512
1.04559
1.04606
1.04655
1.04703
1.04752
1.04801
1.0485
1.04898
1.04947
1.04996
1.05044
1.05091
1.05138
1.05184
1.05229
1.05274
1.05317
1.05359
1.054
1.0544
1.05478
1.05514
1.05549
1.05582
1.05613
1.05642
1.05669
1.05694
1.05716
1.05737
1.05755
1.05772
1.05786
1.05799
1.0581
1.05819
1.05827
1.05834
1.05841
1.05846
1.05852
1.05858
1.05864
1.05871
1.05878
1.05887
1.05897
1.05909
1.05922
1.05936
1.05953
1.05971
1.05992
1.06013
1.06037
1.06062
1.06088
1.06116
1.06145
1.06174
1.06204
1.06235
1.06266
1.06296
1.06326
1.06356
1.06386
1.06414
1.06442
1.06469
1.06495
1.0652
1.06544
1.06567
1.0659
1.06612
1.06634
1.06656
1.06677
1.06698
1.0672
1.06741
1.06763
1.06785
1.06808
1.06832
1.06857
1.06884
1.06912
1.06942
1.06976
1.07013
1.07055
1.07102
1.07155
1.07217
1.07288
1.07371
1.07467
1.07578
1.07709
1.07861
1.08041
1.08254
1.08508
1.08814
1.0919
1.09668
1.10292
1.1107
1.11914
1.12832
0.980873
0.980477
0.982465
0.984858
0.98697
0.988584
0.989771
0.990644
0.991281
0.99174
0.992064
0.992288
0.992436
0.992526
0.992572
0.992584
0.99257
0.992535
0.992486
0.992424
0.992353
0.992274
0.992191
0.992102
0.992011
0.991917
0.991822
0.991726
0.99163
0.991534
0.99144
0.991346
0.991256
0.991166
0.991082
0.991001
0.990926
0.990855
0.990793
0.990737
0.990692
0.990655
0.990631
0.990618
0.990621
0.990636
0.99067
0.990719
0.990788
0.990875
0.990984
0.991113
0.991265
0.991438
0.991635
0.991854
0.992097
0.992361
0.99265
0.992958
0.993289
0.993637
0.994007
0.994392
0.994795
0.995211
0.995642
0.996082
0.996535
0.996994
0.997463
0.997935
0.998414
0.998894
0.999379
0.999863
1.00035
1.00083
1.00132
1.00181
1.00229
1.00277
1.00326
1.00374
1.00422
1.00471
1.00519
1.00567
1.00615
1.00663
1.00712
1.0076
1.00808
1.00856
1.00904
1.00952
1.01
1.01048
1.01095
1.01142
1.01189
1.01235
1.0128
1.01325
1.01369
1.01412
1.01454
1.01495
1.01535
1.01573
1.01609
1.01644
1.01676
1.01707
1.01736
1.01762
1.01787
1.01808
1.01828
1.01845
1.01859
1.01871
1.01881
1.01888
1.01894
1.01897
1.01898
1.01897
1.01895
1.01891
1.01886
1.01879
1.01872
1.01864
1.01855
1.01845
1.01835
1.01825
1.01815
1.01806
1.01796
1.01787
1.01779
1.01772
1.01765
1.0176
1.01756
1.01754
1.01753
1.01755
1.01758
1.01763
1.01771
1.01782
1.01794
1.0181
1.01828
1.01848
1.01872
1.01898
1.01926
1.01957
1.0199
1.02025
1.02063
1.02102
1.02143
1.02185
1.02229
1.02273
1.02318
1.02364
1.02411
1.02457
1.02503
1.02549
1.02595
1.02639
1.02683
1.02725
1.02766
1.02806
1.02843
1.02879
1.02913
1.02945
1.02975
1.03003
1.03029
1.03052
1.03074
1.03094
1.03111
1.03127
1.03142
1.03155
1.03166
1.03177
1.03187
1.03196
1.03204
1.03213
1.0322
1.03228
1.03236
1.03244
1.03252
1.0326
1.03268
1.03277
1.03287
1.03297
1.03307
1.03318
1.03329
1.03341
1.03353
1.03365
1.03379
1.03392
1.03406
1.0342
1.03434
1.03449
1.03463
1.03478
1.03493
1.03507
1.03522
1.03536
1.0355
1.03564
1.03577
1.0359
1.03602
1.03614
1.03624
1.03635
1.03644
1.03653
1.03661
1.03668
1.03675
1.03681
1.03687
1.03692
1.03697
1.03701
1.03705
1.03709
1.03713
1.03717
1.03721
1.03725
1.0373
1.03735
1.0374
1.03746
1.03752
1.03759
1.03768
1.03777
1.03787
1.03798
1.0381
1.03824
1.03839
1.03855
1.03873
1.03892
1.03914
1.03936
1.03961
1.03987
1.04015
1.04045
1.04076
1.04109
1.04144
1.0418
1.04217
1.04257
1.04297
1.04339
1.04382
1.04426
1.04471
1.04517
1.04564
1.04611
1.04659
1.04707
1.04756
1.04804
1.04853
1.04902
1.0495
1.04998
1.05046
1.05093
1.0514
1.05186
1.05231
1.05275
1.05318
1.0536
1.05401
1.0544
1.05478
1.05514
1.05548
1.05581
1.05612
1.05641
1.05667
1.05692
1.05714
1.05735
1.05753
1.0577
1.05784
1.05797
1.05808
1.05817
1.05825
1.05833
1.05839
1.05845
1.05851
1.05857
1.05864
1.05871
1.05879
1.05888
1.05898
1.0591
1.05923
1.05938
1.05954
1.05973
1.05993
1.06015
1.06038
1.06063
1.06089
1.06116
1.06144
1.06173
1.06203
1.06233
1.06263
1.06293
1.06323
1.06352
1.06381
1.06409
1.06436
1.06463
1.06489
1.06514
1.06538
1.06561
1.06584
1.06607
1.06628
1.0665
1.06672
1.06693
1.06715
1.06736
1.06758
1.06781
1.06804
1.06828
1.06853
1.06879
1.06908
1.06938
1.06972
1.07009
1.07051
1.07098
1.07151
1.07213
1.07284
1.07367
1.07462
1.07574
1.07703
1.07854
1.0803
1.08237
1.08481
1.0877
1.09115
1.09522
1.09999
1.1054
1.10979
1.11004
0.984633
0.984095
0.984832
0.986075
0.987431
0.988628
0.989611
0.990381
0.990971
0.991413
0.991739
0.991974
0.992139
0.992247
0.992312
0.992343
0.992348
0.992332
0.9923
0.992254
0.992199
0.992134
0.992065
0.991989
0.99191
0.991827
0.991743
0.991657
0.99157
0.991483
0.991396
0.99131
0.991227
0.991144
0.991066
0.990991
0.990922
0.990858
0.990802
0.990752
0.990712
0.990682
0.990664
0.990657
0.990665
0.990687
0.990727
0.990781
0.990856
0.990949
0.991063
0.991196
0.991352
0.991528
0.991729
0.991949
0.992194
0.992459
0.992748
0.993056
0.993386
0.993733
0.994101
0.994483
0.994884
0.995297
0.995725
0.996162
0.996611
0.997067
0.997532
0.998001
0.998476
0.998953
0.999434
0.999914
1.0004
1.00088
1.00136
1.00184
1.00233
1.00281
1.00329
1.00377
1.00425
1.00473
1.00521
1.00569
1.00617
1.00666
1.00714
1.00762
1.0081
1.00858
1.00907
1.00954
1.01002
1.0105
1.01097
1.01144
1.01191
1.01237
1.01283
1.01327
1.01371
1.01414
1.01456
1.01496
1.01536
1.01573
1.0161
1.01644
1.01677
1.01707
1.01736
1.01762
1.01786
1.01807
1.01827
1.01843
1.01858
1.0187
1.01879
1.01887
1.01892
1.01895
1.01896
1.01896
1.01893
1.0189
1.01884
1.01878
1.01871
1.01863
1.01854
1.01845
1.01835
1.01826
1.01816
1.01806
1.01797
1.01788
1.0178
1.01773
1.01767
1.01762
1.01759
1.01756
1.01756
1.01758
1.01761
1.01767
1.01775
1.01785
1.01798
1.01813
1.01832
1.01852
1.01876
1.01902
1.0193
1.01961
1.01994
1.0203
1.02067
1.02106
1.02147
1.0219
1.02233
1.02278
1.02323
1.02369
1.02415
1.02461
1.02507
1.02553
1.02598
1.02642
1.02686
1.02728
1.02768
1.02808
1.02845
1.02881
1.02915
1.02946
1.02976
1.03004
1.03029
1.03053
1.03075
1.03094
1.03112
1.03128
1.03143
1.03156
1.03168
1.03179
1.03188
1.03197
1.03206
1.03214
1.03222
1.03229
1.03237
1.03244
1.03252
1.0326
1.03268
1.03277
1.03286
1.03295
1.03305
1.03316
1.03327
1.03338
1.0335
1.03363
1.03375
1.03389
1.03402
1.03417
1.03431
1.03445
1.0346
1.03475
1.0349
1.03504
1.03519
1.03533
1.03547
1.03561
1.03574
1.03587
1.03599
1.03611
1.03622
1.03632
1.03642
1.03651
1.03659
1.03667
1.03674
1.0368
1.03686
1.03692
1.03697
1.03702
1.03707
1.03711
1.03716
1.0372
1.03725
1.0373
1.03734
1.0374
1.03746
1.03752
1.03759
1.03766
1.03774
1.03784
1.03794
1.03805
1.03818
1.03831
1.03846
1.03863
1.03881
1.039
1.03921
1.03944
1.03968
1.03994
1.04022
1.04052
1.04083
1.04116
1.0415
1.04186
1.04224
1.04263
1.04303
1.04345
1.04388
1.04432
1.04477
1.04522
1.04569
1.04616
1.04664
1.04712
1.0476
1.04809
1.04857
1.04906
1.04954
1.05002
1.05049
1.05096
1.05143
1.05188
1.05233
1.05277
1.0532
1.05361
1.05402
1.05441
1.05478
1.05514
1.05548
1.05581
1.05611
1.0564
1.05666
1.05691
1.05713
1.05733
1.05752
1.05768
1.05782
1.05795
1.05806
1.05816
1.05824
1.05832
1.05838
1.05845
1.05851
1.05857
1.05864
1.05871
1.05879
1.05889
1.05899
1.05911
1.05924
1.05939
1.05956
1.05974
1.05994
1.06015
1.06038
1.06063
1.06089
1.06115
1.06143
1.06171
1.062
1.0623
1.06259
1.06289
1.06318
1.06347
1.06375
1.06403
1.0643
1.06456
1.06482
1.06507
1.06531
1.06555
1.06578
1.066
1.06622
1.06644
1.06666
1.06687
1.06709
1.06731
1.06753
1.06775
1.06798
1.06822
1.06847
1.06873
1.06901
1.06931
1.06965
1.07001
1.07042
1.07089
1.07142
1.07203
1.07273
1.07353
1.07447
1.07555
1.07681
1.07826
1.07994
1.08189
1.08414
1.08673
1.0897
1.09301
1.09643
1.09954
1.10172
1.10106
0.986867
0.986495
0.986707
0.987331
0.98815
0.988977
0.98972
0.990341
0.990842
0.991235
0.991535
0.991759
0.991921
0.992034
0.992107
0.992148
0.992164
0.992159
0.992139
0.992106
0.992062
0.99201
0.991952
0.991887
0.991819
0.991746
0.991672
0.991594
0.991517
0.991437
0.991359
0.99128
0.991203
0.991128
0.991057
0.990988
0.990925
0.990867
0.990817
0.990774
0.990741
0.990717
0.990705
0.990705
0.99072
0.990748
0.990794
0.990855
0.990936
0.991034
0.991153
0.991291
0.991451
0.991631
0.991834
0.992057
0.992303
0.992569
0.992857
0.993165
0.993493
0.993839
0.994204
0.994584
0.994982
0.995391
0.995816
0.996249
0.996695
0.997147
0.997607
0.998072
0.998543
0.999015
0.999492
0.999968
1.00045
1.00093
1.00141
1.00188
1.00236
1.00284
1.00332
1.0038
1.00428
1.00476
1.00524
1.00571
1.0062
1.00668
1.00716
1.00764
1.00812
1.00861
1.00909
1.00957
1.01005
1.01053
1.011
1.01147
1.01194
1.0124
1.01285
1.0133
1.01373
1.01416
1.01458
1.01498
1.01537
1.01575
1.01611
1.01645
1.01677
1.01708
1.01736
1.01762
1.01786
1.01807
1.01826
1.01843
1.01857
1.01869
1.01878
1.01885
1.01891
1.01894
1.01895
1.01894
1.01892
1.01888
1.01883
1.01877
1.0187
1.01862
1.01854
1.01845
1.01835
1.01826
1.01816
1.01807
1.01798
1.0179
1.01782
1.01775
1.01769
1.01764
1.01761
1.01759
1.01759
1.0176
1.01764
1.0177
1.01778
1.01789
1.01802
1.01817
1.01836
1.01856
1.0188
1.01906
1.01935
1.01966
1.01999
1.02035
1.02072
1.02111
1.02152
1.02195
1.02238
1.02283
1.02328
1.02374
1.0242
1.02466
1.02512
1.02557
1.02602
1.02646
1.02689
1.02731
1.02771
1.0281
1.02847
1.02882
1.02916
1.02948
1.02977
1.03005
1.0303
1.03054
1.03075
1.03095
1.03113
1.03129
1.03144
1.03157
1.03169
1.0318
1.0319
1.03199
1.03207
1.03215
1.03223
1.0323
1.03237
1.03244
1.03252
1.03259
1.03267
1.03275
1.03284
1.03293
1.03303
1.03313
1.03324
1.03335
1.03347
1.03359
1.03372
1.03385
1.03399
1.03413
1.03427
1.03441
1.03456
1.03471
1.03486
1.03501
1.03515
1.0353
1.03544
1.03558
1.03571
1.03584
1.03596
1.03608
1.03619
1.03629
1.03639
1.03648
1.03657
1.03665
1.03672
1.0368
1.03686
1.03692
1.03698
1.03704
1.03709
1.03714
1.03719
1.03724
1.03729
1.03735
1.0374
1.03746
1.03752
1.03759
1.03766
1.03774
1.03782
1.03791
1.03802
1.03813
1.03826
1.03839
1.03854
1.03871
1.03888
1.03908
1.03929
1.03951
1.03976
1.04002
1.04029
1.04059
1.0409
1.04122
1.04157
1.04193
1.0423
1.04269
1.04309
1.04351
1.04393
1.04437
1.04482
1.04528
1.04574
1.04621
1.04668
1.04716
1.04764
1.04813
1.04861
1.04909
1.04958
1.05005
1.05053
1.05099
1.05146
1.05191
1.05236
1.05279
1.05322
1.05363
1.05403
1.05442
1.05479
1.05515
1.05549
1.05581
1.05611
1.05639
1.05665
1.0569
1.05712
1.05732
1.0575
1.05766
1.05781
1.05793
1.05804
1.05814
1.05823
1.0583
1.05837
1.05844
1.0585
1.05857
1.05864
1.05871
1.0588
1.05889
1.059
1.05912
1.05925
1.0594
1.05956
1.05975
1.05994
1.06016
1.06038
1.06062
1.06087
1.06114
1.06141
1.06169
1.06197
1.06226
1.06254
1.06283
1.06312
1.0634
1.06368
1.06396
1.06422
1.06449
1.06474
1.06499
1.06523
1.06547
1.0657
1.06593
1.06615
1.06637
1.06659
1.06681
1.06702
1.06724
1.06746
1.06769
1.06791
1.06815
1.06839
1.06865
1.06892
1.06922
1.06954
1.0699
1.07029
1.07075
1.07126
1.07185
1.07252
1.0733
1.0742
1.07524
1.07643
1.0778
1.07937
1.08116
1.08318
1.08543
1.08787
1.09042
1.09284
1.09471
1.09566
1.09535
0.988452
0.988102
0.988107
0.988418
0.988898
0.98944
0.989969
0.990442
0.990844
0.991171
0.99143
0.991629
0.991778
0.991884
0.991957
0.992001
0.992022
0.992025
0.992013
0.991989
0.991955
0.991912
0.991863
0.991808
0.991749
0.991686
0.99162
0.991551
0.991481
0.99141
0.991339
0.991267
0.991197
0.991129
0.991064
0.991002
0.990945
0.990894
0.99085
0.990813
0.990787
0.990769
0.990764
0.990771
0.990793
0.990828
0.99088
0.990948
0.991034
0.991138
0.991262
0.991405
0.991569
0.991753
0.991958
0.992183
0.992431
0.992697
0.992985
0.993291
0.993618
0.993962
0.994324
0.994702
0.995095
0.995501
0.995921
0.996351
0.996792
0.997239
0.997695
0.998155
0.998621
0.999088
0.99956
1.00003
1.00051
1.00098
1.00146
1.00193
1.00241
1.00288
1.00336
1.00383
1.00431
1.00478
1.00526
1.00574
1.00622
1.0067
1.00719
1.00767
1.00815
1.00864
1.00912
1.0096
1.01008
1.01056
1.01104
1.01151
1.01197
1.01243
1.01289
1.01333
1.01377
1.0142
1.01461
1.01502
1.0154
1.01578
1.01614
1.01647
1.0168
1.0171
1.01738
1.01763
1.01787
1.01808
1.01827
1.01843
1.01857
1.01869
1.01878
1.01885
1.0189
1.01893
1.01894
1.01894
1.01892
1.01888
1.01883
1.01877
1.0187
1.01862
1.01854
1.01845
1.01836
1.01827
1.01818
1.01809
1.018
1.01792
1.01784
1.01778
1.01772
1.01767
1.01764
1.01762
1.01762
1.01764
1.01768
1.01774
1.01782
1.01793
1.01806
1.01822
1.0184
1.01861
1.01885
1.01911
1.0194
1.01971
1.02005
1.02041
1.02078
1.02118
1.02159
1.02201
1.02245
1.02289
1.02334
1.0238
1.02426
1.02472
1.02517
1.02562
1.02607
1.02651
1.02693
1.02735
1.02775
1.02813
1.0285
1.02885
1.02919
1.0295
1.02979
1.03007
1.03032
1.03056
1.03077
1.03097
1.03115
1.03131
1.03146
1.03159
1.03171
1.03182
1.03192
1.03201
1.03209
1.03217
1.03224
1.03231
1.03238
1.03245
1.03252
1.03259
1.03267
1.03275
1.03283
1.03291
1.03301
1.0331
1.03321
1.03332
1.03343
1.03355
1.03368
1.03381
1.03395
1.03409
1.03423
1.03438
1.03452
1.03467
1.03482
1.03497
1.03512
1.03526
1.0354
1.03554
1.03568
1.03581
1.03593
1.03605
1.03616
1.03627
1.03637
1.03646
1.03655
1.03664
1.03672
1.03679
1.03687
1.03693
1.037
1.03706
1.03712
1.03718
1.03724
1.03729
1.03735
1.03741
1.03747
1.03753
1.0376
1.03767
1.03774
1.03782
1.03791
1.03801
1.03811
1.03822
1.03835
1.03848
1.03863
1.0388
1.03897
1.03916
1.03937
1.0396
1.03984
1.0401
1.04037
1.04066
1.04097
1.0413
1.04164
1.042
1.04237
1.04276
1.04316
1.04357
1.04399
1.04443
1.04488
1.04533
1.04579
1.04626
1.04674
1.04721
1.04769
1.04818
1.04866
1.04914
1.04962
1.0501
1.05057
1.05103
1.05149
1.05195
1.05239
1.05282
1.05325
1.05366
1.05406
1.05444
1.05481
1.05516
1.0555
1.05581
1.05611
1.05639
1.05665
1.05689
1.05711
1.05731
1.05749
1.05765
1.0578
1.05792
1.05803
1.05813
1.05822
1.05829
1.05837
1.05843
1.0585
1.05857
1.05864
1.05872
1.0588
1.0589
1.059
1.05913
1.05926
1.05941
1.05957
1.05975
1.05995
1.06016
1.06038
1.06062
1.06086
1.06112
1.06138
1.06166
1.06193
1.06221
1.06249
1.06278
1.06306
1.06334
1.06361
1.06388
1.06415
1.06441
1.06466
1.06491
1.06515
1.06539
1.06562
1.06585
1.06608
1.0663
1.06652
1.06674
1.06696
1.06718
1.0674
1.06762
1.06784
1.06807
1.06831
1.06856
1.06883
1.06911
1.06942
1.06976
1.07015
1.07058
1.07107
1.07164
1.07228
1.07302
1.07388
1.07486
1.07597
1.07725
1.07868
1.08029
1.08206
1.08397
1.08596
1.08788
1.08957
1.09076
1.09118
1.09089
0.989604
0.989277
0.989202
0.989336
0.989606
0.989949
0.99031
0.990652
0.990956
0.991212
0.991422
0.991587
0.991713
0.991804
0.991868
0.991908
0.991928
0.991933
0.991924
0.991904
0.991875
0.991838
0.991796
0.991748
0.991696
0.991639
0.991581
0.991519
0.991456
0.991391
0.991327
0.991261
0.991198
0.991136
0.991077
0.991022
0.990971
0.990926
0.990889
0.990859
0.990839
0.990829
0.990831
0.990845
0.990873
0.990915
0.990974
0.991049
0.991142
0.991252
0.991381
0.991529
0.991697
0.991884
0.992092
0.992319
0.992568
0.992834
0.993122
0.993427
0.993752
0.994093
0.994453
0.994827
0.995216
0.995618
0.996034
0.996458
0.996894
0.997336
0.997787
0.998241
0.998702
0.999164
0.999631
1.0001
1.00057
1.00104
1.00151
1.00198
1.00245
1.00292
1.00339
1.00386
1.00434
1.00481
1.00529
1.00577
1.00625
1.00673
1.00721
1.0077
1.00818
1.00867
1.00915
1.00964
1.01012
1.0106
1.01108
1.01155
1.01201
1.01248
1.01293
1.01337
1.01381
1.01424
1.01465
1.01505
1.01544
1.01581
1.01617
1.0165
1.01682
1.01712
1.0174
1.01765
1.01788
1.01809
1.01828
1.01844
1.01858
1.01869
1.01878
1.01885
1.0189
1.01893
1.01894
1.01894
1.01891
1.01888
1.01883
1.01877
1.0187
1.01863
1.01854
1.01846
1.01837
1.01828
1.01819
1.0181
1.01802
1.01794
1.01787
1.0178
1.01775
1.0177
1.01767
1.01766
1.01766
1.01768
1.01772
1.01778
1.01787
1.01797
1.01811
1.01827
1.01845
1.01866
1.0189
1.01917
1.01946
1.01977
1.02011
1.02047
1.02084
1.02124
1.02165
1.02208
1.02251
1.02296
1.02341
1.02386
1.02432
1.02478
1.02523
1.02568
1.02612
1.02655
1.02698
1.02739
1.02779
1.02817
1.02853
1.02888
1.02921
1.02952
1.02981
1.03009
1.03034
1.03058
1.03079
1.03099
1.03117
1.03133
1.03148
1.03161
1.03173
1.03184
1.03194
1.03203
1.03211
1.03219
1.03226
1.03233
1.03239
1.03246
1.03252
1.03259
1.03266
1.03273
1.03281
1.03289
1.03298
1.03307
1.03317
1.03328
1.03339
1.03351
1.03364
1.03377
1.0339
1.03404
1.03419
1.03433
1.03448
1.03463
1.03478
1.03493
1.03507
1.03522
1.03536
1.0355
1.03564
1.03577
1.03589
1.03601
1.03613
1.03624
1.03634
1.03644
1.03654
1.03663
1.03671
1.03679
1.03687
1.03694
1.03702
1.03708
1.03715
1.03722
1.03728
1.03735
1.03741
1.03748
1.03754
1.03761
1.03768
1.03776
1.03783
1.03792
1.03801
1.0381
1.03821
1.03832
1.03844
1.03858
1.03873
1.03889
1.03906
1.03925
1.03946
1.03968
1.03992
1.04018
1.04045
1.04074
1.04104
1.04137
1.04171
1.04206
1.04243
1.04282
1.04322
1.04363
1.04405
1.04449
1.04493
1.04539
1.04585
1.04632
1.04679
1.04727
1.04774
1.04823
1.04871
1.04919
1.04967
1.05014
1.05061
1.05108
1.05154
1.05199
1.05243
1.05286
1.05328
1.05369
1.05408
1.05446
1.05483
1.05518
1.05551
1.05583
1.05612
1.0564
1.05666
1.05689
1.05711
1.05731
1.05748
1.05764
1.05778
1.05791
1.05802
1.05812
1.05821
1.05828
1.05836
1.05843
1.05849
1.05856
1.05864
1.05871
1.0588
1.0589
1.05901
1.05913
1.05926
1.05941
1.05958
1.05975
1.05995
1.06015
1.06037
1.0606
1.06084
1.06109
1.06135
1.06162
1.06189
1.06216
1.06243
1.06271
1.06298
1.06326
1.06353
1.0638
1.06406
1.06432
1.06457
1.06482
1.06506
1.0653
1.06554
1.06577
1.066
1.06622
1.06645
1.06667
1.06689
1.0671
1.06732
1.06754
1.06776
1.06799
1.06822
1.06846
1.06871
1.06899
1.06928
1.06961
1.06997
1.07038
1.07085
1.07138
1.07199
1.07269
1.07349
1.0744
1.07544
1.0766
1.0779
1.07933
1.08087
1.08248
1.08408
1.08555
1.08675
1.08751
1.0877
1.08731
0.990463
0.99017
0.990054
0.990084
0.990224
0.990431
0.990667
0.990904
0.991123
0.991315
0.991475
0.991604
0.991704
0.991778
0.991829
0.991861
0.991877
0.99188
0.991872
0.991854
0.991828
0.991795
0.991758
0.991715
0.991668
0.991618
0.991565
0.991509
0.991452
0.991394
0.991335
0.991276
0.991219
0.991162
0.99111
0.99106
0.991016
0.990978
0.990947
0.990923
0.99091
0.990907
0.990916
0.990937
0.990973
0.991022
0.991088
0.99117
0.991269
0.991385
0.99152
0.991673
0.991845
0.992035
0.992246
0.992475
0.992724
0.992991
0.993278
0.993582
0.993905
0.994243
0.994599
0.994969
0.995354
0.995752
0.996162
0.996581
0.997011
0.997448
0.997893
0.998342
0.998797
0.999253
0.999714
1.00018
1.00064
1.0011
1.00157
1.00203
1.0025
1.00297
1.00344
1.00391
1.00438
1.00485
1.00533
1.00581
1.00629
1.00677
1.00725
1.00774
1.00823
1.00871
1.0092
1.00969
1.01017
1.01065
1.01113
1.0116
1.01207
1.01253
1.01299
1.01343
1.01387
1.01429
1.01471
1.01511
1.01549
1.01586
1.01622
1.01655
1.01687
1.01716
1.01743
1.01769
1.01791
1.01812
1.0183
1.01846
1.0186
1.01871
1.0188
1.01887
1.01891
1.01894
1.01895
1.01895
1.01892
1.01889
1.01884
1.01878
1.01871
1.01864
1.01856
1.01848
1.01839
1.0183
1.01822
1.01813
1.01805
1.01797
1.0179
1.01784
1.01779
1.01774
1.01772
1.0177
1.01771
1.01773
1.01777
1.01783
1.01792
1.01803
1.01816
1.01832
1.01851
1.01873
1.01897
1.01923
1.01952
1.01984
1.02018
1.02054
1.02092
1.02132
1.02173
1.02215
1.02259
1.02304
1.02349
1.02394
1.02439
1.02485
1.0253
1.02575
1.02619
1.02662
1.02704
1.02744
1.02784
1.02821
1.02858
1.02892
1.02925
1.02956
1.02985
1.03012
1.03037
1.03061
1.03082
1.03102
1.0312
1.03136
1.03151
1.03165
1.03177
1.03188
1.03197
1.03206
1.03214
1.03222
1.03229
1.03235
1.03241
1.03247
1.03253
1.0326
1.03266
1.03273
1.0328
1.03288
1.03296
1.03305
1.03315
1.03325
1.03336
1.03348
1.0336
1.03373
1.03386
1.034
1.03415
1.03429
1.03444
1.03459
1.03474
1.03489
1.03504
1.03518
1.03533
1.03547
1.0356
1.03573
1.03586
1.03598
1.0361
1.03622
1.03632
1.03643
1.03653
1.03662
1.03671
1.0368
1.03688
1.03697
1.03705
1.03712
1.0372
1.03727
1.03734
1.03742
1.03749
1.03756
1.03763
1.0377
1.03778
1.03786
1.03794
1.03802
1.03812
1.03821
1.03832
1.03843
1.03855
1.03869
1.03883
1.03899
1.03917
1.03935
1.03956
1.03978
1.04001
1.04027
1.04054
1.04082
1.04113
1.04145
1.04179
1.04214
1.04251
1.04289
1.04329
1.0437
1.04412
1.04456
1.045
1.04545
1.04591
1.04638
1.04685
1.04733
1.04781
1.04829
1.04877
1.04925
1.04973
1.0502
1.05067
1.05113
1.05159
1.05204
1.05248
1.05291
1.05333
1.05373
1.05412
1.0545
1.05486
1.05521
1.05554
1.05585
1.05614
1.05642
1.05667
1.0569
1.05712
1.05731
1.05749
1.05764
1.05778
1.05791
1.05802
1.05811
1.0582
1.05828
1.05835
1.05842
1.05849
1.05856
1.05864
1.05872
1.05881
1.05891
1.05902
1.05914
1.05927
1.05942
1.05958
1.05976
1.05995
1.06015
1.06036
1.06059
1.06082
1.06107
1.06132
1.06158
1.06184
1.06211
1.06237
1.06264
1.06291
1.06318
1.06345
1.06371
1.06397
1.06423
1.06449
1.06474
1.06498
1.06522
1.06546
1.06569
1.06593
1.06615
1.06638
1.0666
1.06682
1.06704
1.06725
1.06747
1.06769
1.06791
1.06813
1.06837
1.06861
1.06887
1.06915
1.06946
1.06981
1.07019
1.07063
1.07113
1.07171
1.07236
1.07311
1.07395
1.0749
1.07597
1.07714
1.0784
1.07973
1.08107
1.08236
1.0835
1.08436
1.08485
1.08489
1.08445
0.99113
0.990878
0.990747
0.990721
0.990779
0.990893
0.991038
0.991193
0.991342
0.991476
0.991591
0.991684
0.991755
0.991808
0.991843
0.991864
0.991871
0.991868
0.991856
0.991836
0.99181
0.991779
0.991743
0.991702
0.991659
0.991612
0.991563
0.991512
0.991459
0.991405
0.991352
0.991298
0.991246
0.991195
0.991148
0.991104
0.991066
0.991034
0.99101
0.990993
0.990987
0.990991
0.991007
0.991036
0.991079
0.991136
0.991209
0.991298
0.991403
0.991526
0.991666
0.991824
0.992
0.992194
0.992408
0.992638
0.992888
0.993155
0.993441
0.993744
0.994064
0.9944
0.994752
0.995118
0.995498
0.995891
0.996295
0.99671
0.997134
0.997565
0.998003
0.998446
0.998894
0.999345
0.9998
1.00026
1.00071
1.00117