# vtk DataFile Version 2.0
LBE mesh
ASCII
DATASET STRUCTURED_POINTS
DIMENSIONS 400 100 1
ASPECT_RATIO 1 1 1
ORIGIN 0 0 0
POINT_DATA 40000
SCALARS rho double 1
LOOKUP_TABLE default
1.20179
1.30205
1.33035
1.33498
1.33703
1.3391
1.34066
1.34167
1.34234
1.34283
1.34322
1.34353
1.34377
1.34397
1.34413
1.34427
1.34438
1.34446
1.34454
1.34459
1.34464
1.34467
1.34469
1.34471
1.34471
1.34471
1.3447
1.34468
1.34466
1.34463
1.3446
1.34456
1.34452
1.34448
1.34443
1.34438
1.34433
1.34427
1.34422
1.34416
1.3441
1.34404
1.34398
1.34393
1.34387
1.34382
1.34377
1.34372
1.34367
1.34363
1.34359
1.34355
1.34352
1.3435
1.34348
1.34347
1.34346
1.34346
1.34347
1.34349
1.34351
1.34355
1.34359
1.34364
1.3437
1.34377
1.34384
1.34393
1.34403
1.34414
1.34425
1.34438
1.34451
1.34466
1.34481
1.34498
1.34515
1.34533
1.34552
1.34572
1.34593
1.34615
1.34637
1.34661
1.34685
1.3471
1.34735
1.34761
1.34788
1.34815
1.34843
1.34871
1.349
1.34929
1.34958
1.34988
1.35018
1.35047
1.35077
1.35107
1.35137
1.35166
1.35195
1.35224
1.35253
1.35281
1.35309
1.35336
1.35362
1.35388
1.35413
1.35437
1.3546
1.35482
1.35503
1.35524
1.35543
1.35561
1.35578
1.35594
1.35609
1.35622
1.35635
1.35647
1.35657
1.35666
1.35675
1.35682
1.35689
1.35695
1.357
1.35704
1.35707
1.3571
1.35712
1.35713
1.35714
1.35715
1.35715
1.35714
1.35713
1.35712
1.35711
1.35709
1.35707
1.35705
1.35703
1.357
1.35697
1.35694
1.35691
1.35688
1.35685
1.35682
1.35679
1.35676
1.35672
1.35669
1.35665
1.35662
1.35659
1.35655
1.35652
1.35649
1.35645
1.35642
1.35639
1.35636
1.35633
1.35629
1.35626
1.35623
1.3562
1.35617
1.35614
1.35611
1.35608
1.35606
1.35603
1.356
1.35597
1.35595
1.35592
1.3559
1.35587
1.35585
1.35583
1.3558
1.35578
1.35576
1.35574
1.35572
1.3557
1.35569
1.35567
1.35565
1.35564
1.35563
1.35562
1.35561
1.3556
1.35559
1.35559
1.35559
1.35559
1.35559
1.35559
1.3556
1.35561
1.35562
1.35563
1.35565
1.35567
1.35569
1.35572
1.35575
1.35579
1.35582
1.35587
1.35592
1.35597
1.35602
1.35609
1.35615
1.35622
1.3563
1.35639
1.35648
1.35657
1.35667
1.35678
1.3569
1.35702
1.35715
1.35729
1.35743
1.35758
1.35774
1.35791
1.35809
1.35827
1.35847
1.35867
1.35888
1.3591
1.35932
1.35956
1.35981
1.36006
1.36032
1.36059
1.36087
1.36116
1.36146
1.36177
1.36208
1.3624
1.36273
1.36307
1.36341
1.36376
1.36412
1.36448
1.36485
1.36523
1.3656
1.36598
1.36637
1.36675
1.36714
1.36753
1.36791
1.3683
1.36869
1.36907
1.36945
1.36982
1.37019
1.37055
1.37091
1.37126
1.3716
1.37193
1.37225
1.37256
1.37286
1.37315
1.37343
1.3737
1.37396
1.3742
1.37444
1.37466
1.37488
1.37508
1.37527
1.37546
1.37563
1.3758
1.37595
1.3761
1.37624
1.37637
1.3765
1.37662
1.37673
1.37684
1.37694
1.37704
1.37713
1.37722
1.37731
1.37739
1.37747
1.37754
1.37761
1.37768
1.37775
1.37781
1.37787
1.37793
1.37799
1.37805
1.37811
1.37816
1.37821
1.37827
1.37832
1.37837
1.37843
1.37848
1.37854
1.37859
1.37865
1.37871
1.37878
1.37885
1.37892
1.379
1.37909
1.37918
1.37928
1.37938
1.3795
1.37962
1.37976
1.3799
1.38006
1.38023
1.38042
1.38062
1.38083
1.38106
1.38131
1.38158
1.38186
1.38217
1.38249
1.38284
1.38321
1.38361
1.38403
1.38447
1.38494
1.38544
1.38597
1.38653
1.38712
1.38774
1.3884
1.38909
1.38981
1.39058
1.39138
1.39223
1.39312
1.39407
1.39506
1.39611
1.39721
1.39838
1.39963
1.40095
1.40237
1.40388
1.40551
1.40727
1.4092
1.41131
1.41365
1.41627
1.41925
1.42269
1.42677
1.43172
1.43813
1.44706
1.45963
1.47792
1.51477
1.29471
1.30227
1.31564
1.32784
1.33403
1.33701
1.33881
1.34013
1.34111
1.34184
1.34239
1.34282
1.34316
1.34344
1.34366
1.34385
1.344
1.34413
1.34423
1.34431
1.34438
1.34443
1.34447
1.3445
1.34452
1.34453
1.34453
1.34453
1.34451
1.34449
1.34447
1.34444
1.3444
1.34437
1.34432
1.34428
1.34423
1.34418
1.34413
1.34407
1.34402
1.34397
1.34391
1.34386
1.34381
1.34376
1.34371
1.34366
1.34362
1.34358
1.34354
1.34351
1.34348
1.34346
1.34345
1.34344
1.34343
1.34344
1.34345
1.34347
1.34349
1.34353
1.34357
1.34363
1.34369
1.34376
1.34384
1.34393
1.34403
1.34413
1.34425
1.34438
1.34452
1.34466
1.34482
1.34499
1.34516
1.34534
1.34554
1.34574
1.34595
1.34617
1.34639
1.34663
1.34687
1.34711
1.34737
1.34763
1.3479
1.34817
1.34845
1.34873
1.34902
1.34931
1.3496
1.3499
1.35019
1.35049
1.35079
1.35109
1.35138
1.35168
1.35197
1.35226
1.35254
1.35282
1.35309
1.35336
1.35362
1.35388
1.35413
1.35437
1.3546
1.35482
1.35503
1.35523
1.35542
1.3556
1.35577
1.35592
1.35607
1.3562
1.35633
1.35644
1.35655
1.35664
1.35672
1.3568
1.35686
1.35692
1.35697
1.35701
1.35704
1.35707
1.35709
1.3571
1.35711
1.35712
1.35712
1.35711
1.35711
1.3571
1.35708
1.35707
1.35705
1.35702
1.357
1.35698
1.35695
1.35692
1.35689
1.35686
1.35683
1.3568
1.35677
1.35674
1.3567
1.35667
1.35664
1.3566
1.35657
1.35654
1.35651
1.35647
1.35644
1.35641
1.35638
1.35634
1.35631
1.35628
1.35625
1.35622
1.35619
1.35616
1.35613
1.3561
1.35607
1.35605
1.35602
1.35599
1.35597
1.35594
1.35591
1.35589
1.35587
1.35584
1.35582
1.3558
1.35578
1.35575
1.35573
1.35572
1.3557
1.35568
1.35567
1.35565
1.35564
1.35563
1.35561
1.35561
1.3556
1.35559
1.35559
1.35559
1.35559
1.35559
1.35559
1.3556
1.35561
1.35562
1.35563
1.35565
1.35567
1.3557
1.35573
1.35576
1.35579
1.35583
1.35588
1.35592
1.35598
1.35603
1.3561
1.35616
1.35624
1.35631
1.3564
1.35649
1.35659
1.35669
1.3568
1.35691
1.35704
1.35717
1.35731
1.35745
1.3576
1.35777
1.35793
1.35811
1.3583
1.35849
1.35869
1.3589
1.35912
1.35935
1.35959
1.35984
1.36009
1.36035
1.36063
1.36091
1.3612
1.3615
1.3618
1.36212
1.36244
1.36277
1.36311
1.36345
1.3638
1.36416
1.36452
1.36489
1.36526
1.36564
1.36602
1.3664
1.36679
1.36717
1.36756
1.36794
1.36833
1.36871
1.36909
1.36947
1.36984
1.37021
1.37057
1.37092
1.37127
1.37161
1.37194
1.37226
1.37257
1.37286
1.37315
1.37343
1.3737
1.37395
1.3742
1.37443
1.37466
1.37487
1.37507
1.37526
1.37544
1.37562
1.37578
1.37594
1.37608
1.37622
1.37636
1.37648
1.3766
1.37672
1.37682
1.37693
1.37702
1.37712
1.37721
1.37729
1.37737
1.37745
1.37753
1.3776
1.37767
1.37774
1.3778
1.37786
1.37792
1.37798
1.37804
1.3781
1.37815
1.3782
1.37826
1.37831
1.37836
1.37842
1.37847
1.37853
1.37859
1.37865
1.37871
1.37878
1.37885
1.37892
1.379
1.37909
1.37918
1.37928
1.37939
1.37951
1.37963
1.37977
1.37992
1.38008
1.38025
1.38044
1.38064
1.38086
1.38109
1.38134
1.38161
1.3819
1.38221
1.38254
1.38289
1.38327
1.38367
1.38409
1.38454
1.38501
1.38552
1.38605
1.38661
1.38721
1.38783
1.38849
1.38919
1.38992
1.39069
1.3915
1.39236
1.39326
1.39421
1.39521
1.39627
1.39739
1.39857
1.39983
1.40117
1.40261
1.40415
1.40581
1.40761
1.40958
1.41175
1.41417
1.41689
1.42
1.42363
1.42797
1.43333
1.44009
1.44888
1.46173
1.48425
1.51991
1.31664
1.31208
1.3205
1.32766
1.33199
1.33511
1.33738
1.33897
1.34011
1.34097
1.34164
1.34217
1.34259
1.34294
1.34322
1.34345
1.34364
1.3438
1.34393
1.34404
1.34413
1.34421
1.34426
1.34431
1.34434
1.34436
1.34437
1.34437
1.34437
1.34436
1.34434
1.34432
1.34429
1.34426
1.34422
1.34418
1.34413
1.34409
1.34404
1.34399
1.34394
1.34389
1.34384
1.34379
1.34374
1.34369
1.34365
1.3436
1.34356
1.34352
1.34349
1.34346
1.34344
1.34342
1.3434
1.3434
1.3434
1.3434
1.34342
1.34344
1.34347
1.3435
1.34355
1.3436
1.34367
1.34374
1.34382
1.34391
1.34401
1.34412
1.34424
1.34437
1.34451
1.34466
1.34482
1.34499
1.34516
1.34535
1.34554
1.34574
1.34595
1.34617
1.3464
1.34664
1.34688
1.34713
1.34738
1.34765
1.34791
1.34819
1.34847
1.34875
1.34904
1.34933
1.34962
1.34992
1.35021
1.35051
1.35081
1.3511
1.3514
1.35169
1.35198
1.35227
1.35255
1.35283
1.35311
1.35337
1.35363
1.35389
1.35413
1.35437
1.3546
1.35482
1.35503
1.35523
1.35542
1.35559
1.35576
1.35592
1.35606
1.35619
1.35632
1.35643
1.35653
1.35662
1.35671
1.35678
1.35684
1.3569
1.35695
1.35699
1.35702
1.35705
1.35707
1.35708
1.35709
1.35709
1.35709
1.35709
1.35708
1.35707
1.35706
1.35704
1.35702
1.357
1.35698
1.35695
1.35693
1.3569
1.35687
1.35684
1.35681
1.35678
1.35675
1.35672
1.35669
1.35665
1.35662
1.35659
1.35656
1.35652
1.35649
1.35646
1.35643
1.35639
1.35636
1.35633
1.3563
1.35627
1.35624
1.35621
1.35618
1.35615
1.35612
1.35609
1.35606
1.35604
1.35601
1.35598
1.35596
1.35593
1.35591
1.35588
1.35586
1.35583
1.35581
1.35579
1.35577
1.35575
1.35573
1.35571
1.35569
1.35568
1.35566
1.35565
1.35563
1.35562
1.35561
1.3556
1.35559
1.35559
1.35558
1.35558
1.35558
1.35559
1.35559
1.3556
1.35561
1.35562
1.35563
1.35565
1.35567
1.3557
1.35573
1.35576
1.35579
1.35583
1.35588
1.35593
1.35598
1.35604
1.3561
1.35617
1.35624
1.35632
1.35641
1.3565
1.35659
1.3567
1.35681
1.35693
1.35705
1.35718
1.35732
1.35747
1.35762
1.35778
1.35795
1.35813
1.35831
1.35851
1.35871
1.35892
1.35914
1.35937
1.35961
1.35986
1.36011
1.36038
1.36065
1.36093
1.36122
1.36152
1.36183
1.36215
1.36247
1.3628
1.36314
1.36348
1.36383
1.36419
1.36455
1.36492
1.36529
1.36567
1.36605
1.36643
1.36682
1.3672
1.36759
1.36798
1.36836
1.36874
1.36912
1.3695
1.36987
1.37023
1.37059
1.37095
1.37129
1.37163
1.37195
1.37227
1.37258
1.37288
1.37316
1.37344
1.37371
1.37396
1.3742
1.37443
1.37466
1.37487
1.37507
1.37526
1.37544
1.37561
1.37577
1.37593
1.37608
1.37621
1.37635
1.37647
1.37659
1.37671
1.37681
1.37692
1.37701
1.37711
1.3772
1.37728
1.37736
1.37744
1.37752
1.37759
1.37766
1.37773
1.37779
1.37785
1.37791
1.37797
1.37803
1.37809
1.37814
1.3782
1.37825
1.3783
1.37836
1.37841
1.37847
1.37852
1.37858
1.37864
1.37871
1.37877
1.37884
1.37892
1.379
1.37909
1.37918
1.37928
1.37939
1.37951
1.37964
1.37978
1.37992
1.38009
1.38026
1.38045
1.38065
1.38087
1.38111
1.38136
1.38163
1.38192
1.38224
1.38257
1.38292
1.3833
1.3837
1.38413
1.38458
1.38506
1.38556
1.3861
1.38666
1.38726
1.38789
1.38855
1.38925
1.38999
1.39076
1.39158
1.39244
1.39335
1.3943
1.39531
1.39637
1.39749
1.39869
1.39995
1.4013
1.40275
1.40429
1.40597
1.40778
1.40977
1.41195
1.41439
1.41713
1.42026
1.42389
1.42817
1.43335
1.43985
1.44826
1.45881
1.47027
1.48116
1.32436
1.32307
1.32553
1.32842
1.33186
1.33466
1.33669
1.33821
1.33939
1.34032
1.34105
1.34164
1.34211
1.3425
1.34283
1.34309
1.34332
1.3435
1.34366
1.34379
1.3439
1.34399
1.34406
1.34412
1.34416
1.34419
1.34422
1.34423
1.34423
1.34423
1.34422
1.3442
1.34418
1.34415
1.34412
1.34408
1.34404
1.344
1.34395
1.34391
1.34386
1.34381
1.34376
1.34372
1.34367
1.34362
1.34358
1.34354
1.3435
1.34347
1.34343
1.34341
1.34339
1.34337
1.34336
1.34335
1.34335
1.34336
1.34338
1.3434
1.34343
1.34347
1.34352
1.34357
1.34364
1.34371
1.3438
1.34389
1.34399
1.34411
1.34423
1.34436
1.3445
1.34465
1.34481
1.34498
1.34516
1.34534
1.34554
1.34574
1.34595
1.34617
1.3464
1.34664
1.34688
1.34713
1.34739
1.34765
1.34792
1.3482
1.34848
1.34876
1.34905
1.34934
1.34964
1.34993
1.35023
1.35053
1.35082
1.35112
1.35142
1.35171
1.352
1.35229
1.35257
1.35285
1.35312
1.35339
1.35365
1.3539
1.35415
1.35439
1.35461
1.35483
1.35504
1.35524
1.35542
1.3556
1.35576
1.35592
1.35606
1.35619
1.35631
1.35642
1.35652
1.35661
1.35669
1.35677
1.35683
1.35688
1.35693
1.35697
1.357
1.35703
1.35705
1.35706
1.35707
1.35707
1.35707
1.35707
1.35706
1.35705
1.35704
1.35702
1.357
1.35698
1.35696
1.35693
1.35691
1.35688
1.35685
1.35682
1.35679
1.35676
1.35673
1.3567
1.35667
1.35664
1.3566
1.35657
1.35654
1.35651
1.35647
1.35644
1.35641
1.35638
1.35635
1.35632
1.35629
1.35626
1.35623
1.3562
1.35617
1.35614
1.35611
1.35608
1.35605
1.35603
1.356
1.35597
1.35595
1.35592
1.3559
1.35587
1.35585
1.35583
1.3558
1.35578
1.35576
1.35574
1.35572
1.3557
1.35569
1.35567
1.35565
1.35564
1.35563
1.35562
1.3556
1.3556
1.35559
1.35558
1.35558
1.35558
1.35558
1.35558
1.35559
1.35559
1.3556
1.35562
1.35563
1.35565
1.35567
1.3557
1.35572
1.35576
1.35579
1.35583
1.35588
1.35593
1.35598
1.35604
1.3561
1.35617
1.35624
1.35632
1.35641
1.3565
1.3566
1.3567
1.35681
1.35693
1.35705
1.35719
1.35732
1.35747
1.35763
1.35779
1.35796
1.35814
1.35832
1.35852
1.35872
1.35894
1.35916
1.35939
1.35963
1.35987
1.36013
1.3604
1.36067
1.36095
1.36124
1.36154
1.36185
1.36217
1.36249
1.36282
1.36316
1.36351
1.36386
1.36422
1.36458
1.36495
1.36532
1.3657
1.36608
1.36646
1.36685
1.36723
1.36762
1.36801
1.36839
1.36877
1.36915
1.36953
1.3699
1.37027
1.37062
1.37098
1.37132
1.37166
1.37198
1.3723
1.3726
1.3729
1.37319
1.37346
1.37372
1.37398
1.37422
1.37445
1.37467
1.37488
1.37507
1.37526
1.37544
1.37561
1.37577
1.37593
1.37607
1.37621
1.37634
1.37647
1.37659
1.3767
1.37681
1.37691
1.37701
1.3771
1.37719
1.37727
1.37736
1.37743
1.37751
1.37758
1.37765
1.37772
1.37778
1.37785
1.37791
1.37797
1.37802
1.37808
1.37813
1.37819
1.37824
1.3783
1.37835
1.3784
1.37846
1.37852
1.37857
1.37863
1.3787
1.37877
1.37884
1.37891
1.37899
1.37908
1.37917
1.37928
1.37938
1.3795
1.37963
1.37977
1.37992
1.38008
1.38026
1.38045
1.38065
1.38087
1.38111
1.38136
1.38164
1.38193
1.38224
1.38257
1.38293
1.38331
1.38371
1.38414
1.38459
1.38507
1.38558
1.38612
1.38669
1.38729
1.38792
1.38858
1.38928
1.39002
1.3908
1.39162
1.39248
1.39338
1.39434
1.39535
1.39641
1.39754
1.39873
1.39999
1.40134
1.40278
1.40432
1.40599
1.40779
1.40976
1.41192
1.41432
1.417
1.42003
1.42351
1.42755
1.43228
1.43784
1.44428
1.45143
1.45725
1.4574
1.32908
1.32865
1.32915
1.3308
1.33294
1.33485
1.3365
1.33788
1.33899
1.33989
1.34063
1.34123
1.34173
1.34214
1.34249
1.34278
1.34303
1.34324
1.34341
1.34356
1.34369
1.34379
1.34387
1.34394
1.344
1.34404
1.34407
1.34409
1.3441
1.3441
1.3441
1.34408
1.34407
1.34404
1.34402
1.34398
1.34395
1.34391
1.34387
1.34383
1.34378
1.34374
1.34369
1.34365
1.3436
1.34356
1.34352
1.34348
1.34344
1.34341
1.34338
1.34335
1.34333
1.34332
1.3433
1.3433
1.3433
1.34331
1.34333
1.34336
1.34339
1.34343
1.34348
1.34354
1.3436
1.34368
1.34377
1.34386
1.34397
1.34408
1.3442
1.34434
1.34448
1.34463
1.34479
1.34496
1.34514
1.34533
1.34553
1.34573
1.34594
1.34617
1.3464
1.34663
1.34688
1.34713
1.34739
1.34766
1.34793
1.3482
1.34848
1.34877
1.34906
1.34935
1.34965
1.34994
1.35024
1.35054
1.35084
1.35114
1.35143
1.35173
1.35202
1.35231
1.35259
1.35287
1.35314
1.35341
1.35367
1.35392
1.35417
1.35441
1.35463
1.35485
1.35506
1.35525
1.35544
1.35561
1.35578
1.35593
1.35607
1.3562
1.35632
1.35643
1.35653
1.35661
1.35669
1.35676
1.35682
1.35688
1.35692
1.35696
1.35699
1.35701
1.35703
1.35704
1.35705
1.35706
1.35705
1.35705
1.35704
1.35703
1.35702
1.357
1.35698
1.35696
1.35694
1.35691
1.35689
1.35686
1.35683
1.3568
1.35677
1.35674
1.35671
1.35668
1.35665
1.35662
1.35659
1.35655
1.35652
1.35649
1.35646
1.35643
1.3564
1.35637
1.35634
1.35631
1.35627
1.35624
1.35621
1.35619
1.35616
1.35613
1.3561
1.35607
1.35604
1.35602
1.35599
1.35596
1.35594
1.35591
1.35589
1.35586
1.35584
1.35582
1.3558
1.35577
1.35575
1.35573
1.35571
1.3557
1.35568
1.35566
1.35565
1.35563
1.35562
1.35561
1.3556
1.35559
1.35558
1.35558
1.35557
1.35557
1.35557
1.35557
1.35558
1.35559
1.3556
1.35561
1.35562
1.35564
1.35566
1.35569
1.35572
1.35575
1.35579
1.35583
1.35587
1.35592
1.35597
1.35603
1.3561
1.35616
1.35624
1.35632
1.3564
1.3565
1.35659
1.3567
1.35681
1.35693
1.35705
1.35718
1.35732
1.35747
1.35762
1.35779
1.35796
1.35814
1.35832
1.35852
1.35873
1.35894
1.35916
1.35939
1.35963
1.35988
1.36014
1.3604
1.36068
1.36096
1.36125
1.36155
1.36186
1.36218
1.3625
1.36284
1.36318
1.36352
1.36388
1.36424
1.3646
1.36497
1.36535
1.36572
1.36611
1.36649
1.36688
1.36726
1.36765
1.36804
1.36842
1.36881
1.36919
1.36956
1.36994
1.3703
1.37066
1.37101
1.37136
1.37169
1.37202
1.37233
1.37264
1.37293
1.37321
1.37349
1.37375
1.374
1.37424
1.37447
1.37468
1.37489
1.37509
1.37528
1.37545
1.37562
1.37578
1.37593
1.37608
1.37621
1.37634
1.37647
1.37658
1.3767
1.3768
1.3769
1.377
1.37709
1.37718
1.37727
1.37735
1.37743
1.3775
1.37757
1.37764
1.37771
1.37778
1.37784
1.3779
1.37796
1.37802
1.37807
1.37813
1.37818
1.37823
1.37829
1.37834
1.3784
1.37845
1.37851
1.37856
1.37862
1.37869
1.37875
1.37882
1.3789
1.37898
1.37907
1.37916
1.37926
1.37937
1.37949
1.37962
1.37976
1.37991
1.38007
1.38024
1.38043
1.38064
1.38086
1.38109
1.38135
1.38162
1.38192
1.38223
1.38256
1.38292
1.3833
1.3837
1.38413
1.38458
1.38506
1.38557
1.38611
1.38668
1.38728
1.38791
1.38858
1.38928
1.39002
1.39079
1.39161
1.39247
1.39337
1.39433
1.39533
1.39639
1.39751
1.3987
1.39995
1.40129
1.40271
1.40423
1.40587
1.40764
1.40956
1.41166
1.41397
1.41653
1.41939
1.4226
1.42621
1.43028
1.43476
1.43936
1.44348
1.44632
1.44555
1.33258
1.33196
1.33205
1.33296
1.33416
1.33548
1.33676
1.33789
1.33885
1.33967
1.34037
1.34095
1.34145
1.34187
1.34222
1.34253
1.34279
1.34301
1.3432
1.34336
1.34349
1.34361
1.3437
1.34378
1.34384
1.34389
1.34393
1.34396
1.34397
1.34398
1.34398
1.34397
1.34396
1.34394
1.34392
1.34389
1.34386
1.34382
1.34378
1.34374
1.3437
1.34366
1.34361
1.34357
1.34353
1.34349
1.34345
1.34341
1.34337
1.34334
1.34331
1.34329
1.34327
1.34326
1.34325
1.34325
1.34325
1.34326
1.34328
1.34331
1.34334
1.34338
1.34343
1.34349
1.34356
1.34364
1.34373
1.34382
1.34393
1.34405
1.34417
1.34431
1.34445
1.3446
1.34477
1.34494
1.34512
1.34531
1.34551
1.34571
1.34593
1.34615
1.34638
1.34662
1.34687
1.34712
1.34738
1.34765
1.34792
1.3482
1.34849
1.34877
1.34906
1.34936
1.34966
1.34996
1.35026
1.35056
1.35086
1.35116
1.35145
1.35175
1.35204
1.35233
1.35261
1.35289
1.35317
1.35344
1.3537
1.35395
1.3542
1.35443
1.35466
1.35488
1.35508
1.35528
1.35546
1.35564
1.3558
1.35595
1.35609
1.35621
1.35633
1.35644
1.35653
1.35662
1.3567
1.35676
1.35682
1.35687
1.35692
1.35695
1.35698
1.357
1.35702
1.35703
1.35704
1.35704
1.35704
1.35703
1.35702
1.35701
1.357
1.35698
1.35696
1.35694
1.35692
1.35689
1.35687
1.35684
1.35681
1.35678
1.35675
1.35672
1.35669
1.35666
1.35663
1.3566
1.35657
1.35654
1.35651
1.35648
1.35644
1.35641
1.35638
1.35635
1.35632
1.35629
1.35626
1.35623
1.3562
1.35617
1.35614
1.35612
1.35609
1.35606
1.35603
1.35601
1.35598
1.35596
1.35593
1.3559
1.35588
1.35586
1.35583
1.35581
1.35579
1.35577
1.35575
1.35573
1.35571
1.35569
1.35567
1.35565
1.35564
1.35562
1.35561
1.3556
1.35559
1.35558
1.35557
1.35557
1.35556
1.35556
1.35556
1.35557
1.35557
1.35558
1.35559
1.3556
1.35562
1.35563
1.35566
1.35568
1.35571
1.35574
1.35578
1.35582
1.35586
1.35591
1.35596
1.35602
1.35609
1.35615
1.35623
1.35631
1.35639
1.35649
1.35658
1.35669
1.3568
1.35692
1.35704
1.35717
1.35731
1.35746
1.35762
1.35778
1.35795
1.35813
1.35832
1.35851
1.35872
1.35893
1.35916
1.35939
1.35963
1.35988
1.36013
1.3604
1.36068
1.36096
1.36125
1.36156
1.36187
1.36219
1.36251
1.36285
1.36319
1.36353
1.36389
1.36425
1.36462
1.36499
1.36536
1.36575
1.36613
1.36652
1.3669
1.36729
1.36768
1.36807
1.36846
1.36884
1.36923
1.3696
1.36998
1.37034
1.3707
1.37105
1.3714
1.37173
1.37206
1.37237
1.37268
1.37297
1.37325
1.37352
1.37378
1.37403
1.37427
1.3745
1.37471
1.37492
1.37511
1.3753
1.37547
1.37564
1.37579
1.37594
1.37609
1.37622
1.37635
1.37647
1.37659
1.3767
1.3768
1.37691
1.377
1.37709
1.37718
1.37727
1.37735
1.37742
1.3775
1.37757
1.37764
1.37771
1.37777
1.37783
1.37789
1.37795
1.37801
1.37807
1.37812
1.37817
1.37823
1.37828
1.37833
1.37839
1.37844
1.3785
1.37855
1.37861
1.37868
1.37874
1.37881
1.37889
1.37896
1.37905
1.37914
1.37924
1.37935
1.37947
1.3796
1.37973
1.37988
1.38004
1.38022
1.38041
1.38061
1.38083
1.38107
1.38132
1.38159
1.38189
1.3822
1.38253
1.38289
1.38327
1.38367
1.3841
1.38455
1.38503
1.38554
1.38608
1.38664
1.38724
1.38787
1.38854
1.38924
1.38997
1.39075
1.39156
1.39242
1.39332
1.39426
1.39526
1.39631
1.39742
1.39859
1.39983
1.40114
1.40254
1.40403
1.40563
1.40734
1.40919
1.4112
1.41338
1.41577
1.41839
1.42127
1.42439
1.42773
1.43114
1.43437
1.43685
1.43811
1.43781
1.33495
1.33428
1.33423
1.33468
1.3354
1.3363
1.33722
1.3381
1.33891
1.33962
1.34025
1.34079
1.34126
1.34167
1.34202
1.34233
1.34259
1.34282
1.34301
1.34318
1.34332
1.34344
1.34354
1.34363
1.3437
1.34375
1.3438
1.34383
1.34385
1.34387
1.34387
1.34387
1.34386
1.34384
1.34382
1.3438
1.34377
1.34374
1.3437
1.34366
1.34362
1.34358
1.34354
1.3435
1.34346
1.34342
1.34338
1.34334
1.34331
1.34328
1.34325
1.34323
1.34321
1.3432
1.34319
1.34319
1.34319
1.3432
1.34322
1.34325
1.34329
1.34333
1.34338
1.34344
1.34351
1.34359
1.34368
1.34378
1.34389
1.344
1.34413
1.34427
1.34441
1.34457
1.34473
1.34491
1.34509
1.34528
1.34548
1.34569
1.34591
1.34613
1.34636
1.34661
1.34685
1.34711
1.34737
1.34764
1.34792
1.3482
1.34848
1.34877
1.34907
1.34936
1.34966
1.34996
1.35027
1.35057
1.35087
1.35117
1.35147
1.35177
1.35206
1.35235
1.35264
1.35292
1.3532
1.35347
1.35373
1.35398
1.35423
1.35446
1.35469
1.35491
1.35511
1.35531
1.35549
1.35566
1.35582
1.35597
1.35611
1.35624
1.35635
1.35646
1.35655
1.35663
1.35671
1.35677
1.35683
1.35688
1.35692
1.35695
1.35698
1.357
1.35701
1.35702
1.35703
1.35703
1.35703
1.35702
1.35701
1.357
1.35698
1.35696
1.35694
1.35692
1.3569
1.35687
1.35685
1.35682
1.35679
1.35676
1.35674
1.35671
1.35668
1.35665
1.35661
1.35658
1.35655
1.35652
1.35649
1.35646
1.35643
1.3564
1.35637
1.35634
1.35631
1.35628
1.35625
1.35622
1.35619
1.35616
1.35613
1.35611
1.35608
1.35605
1.35602
1.356
1.35597
1.35595
1.35592
1.3559
1.35587
1.35585
1.35582
1.3558
1.35578
1.35576
1.35574
1.35572
1.3557
1.35568
1.35566
1.35565
1.35563
1.35562
1.3556
1.35559
1.35558
1.35557
1.35556
1.35556
1.35556
1.35555
1.35555
1.35556
1.35556
1.35557
1.35558
1.35559
1.3556
1.35562
1.35564
1.35567
1.3557
1.35573
1.35576
1.3558
1.35585
1.3559
1.35595
1.35601
1.35607
1.35614
1.35621
1.35629
1.35638
1.35647
1.35657
1.35667
1.35678
1.3569
1.35703
1.35716
1.3573
1.35745
1.3576
1.35776
1.35794
1.35812
1.3583
1.3585
1.35871
1.35892
1.35914
1.35937
1.35962
1.35987
1.36012
1.36039
1.36067
1.36095
1.36125
1.36155
1.36186
1.36218
1.36251
1.36284
1.36319
1.36354
1.36389
1.36426
1.36463
1.365
1.36538
1.36576
1.36615
1.36654
1.36693
1.36732
1.36771
1.3681
1.36849
1.36888
1.36926
1.36964
1.37002
1.37039
1.37075
1.3711
1.37144
1.37178
1.37211
1.37242
1.37272
1.37302
1.3733
1.37357
1.37383
1.37407
1.37431
1.37453
1.37475
1.37495
1.37514
1.37532
1.37549
1.37566
1.37581
1.37596
1.3761
1.37624
1.37636
1.37648
1.3766
1.37671
1.37681
1.37691
1.377
1.37709
1.37718
1.37727
1.37735
1.37742
1.3775
1.37757
1.37764
1.3777
1.37777
1.37783
1.37789
1.37795
1.37801
1.37806
1.37812
1.37817
1.37822
1.37827
1.37833
1.37838
1.37843
1.37849
1.37854
1.3786
1.37866
1.37873
1.37879
1.37887
1.37895
1.37903
1.37912
1.37922
1.37933
1.37944
1.37957
1.3797
1.37985
1.38001
1.38018
1.38037
1.38057
1.38079
1.38103
1.38128
1.38155
1.38184
1.38215
1.38248
1.38284
1.38321
1.38361
1.38404
1.38449
1.38497
1.38548
1.38601
1.38658
1.38718
1.3878
1.38846
1.38916
1.38989
1.39066
1.39147
1.39232
1.39321
1.39415
1.39513
1.39617
1.39726
1.39841
1.39963
1.40091
1.40228
1.40372
1.40526
1.4069
1.40867
1.41056
1.41259
1.41479
1.41714
1.41965
1.42229
1.42496
1.42752
1.42974
1.43132
1.43194
1.43168
1.33657
1.336
1.33587
1.33605
1.3365
1.3371
1.33777
1.33845
1.3391
1.3397
1.34024
1.34073
1.34117
1.34155
1.34188
1.34218
1.34244
1.34266
1.34286
1.34303
1.34317
1.3433
1.3434
1.34349
1.34357
1.34363
1.34368
1.34371
1.34374
1.34376
1.34376
1.34377
1.34376
1.34375
1.34373
1.34371
1.34368
1.34365
1.34362
1.34358
1.34354
1.3435
1.34346
1.34342
1.34338
1.34335
1.34331
1.34327
1.34324
1.34321
1.34318
1.34316
1.34314
1.34313
1.34313
1.34312
1.34313
1.34314
1.34316
1.34319
1.34323
1.34327
1.34333
1.34339
1.34346
1.34354
1.34363
1.34373
1.34384
1.34396
1.34409
1.34422
1.34437
1.34453
1.3447
1.34487
1.34505
1.34525
1.34545
1.34566
1.34588
1.34611
1.34634
1.34658
1.34683
1.34709
1.34736
1.34763
1.3479
1.34819
1.34848
1.34877
1.34906
1.34936
1.34967
1.34997
1.35027
1.35058
1.35088
1.35119
1.35149
1.35179
1.35209
1.35238
1.35267
1.35295
1.35323
1.3535
1.35376
1.35402
1.35426
1.3545
1.35473
1.35494
1.35515
1.35535
1.35553
1.3557
1.35586
1.35601
1.35614
1.35627
1.35638
1.35648
1.35657
1.35665
1.35672
1.35678
1.35684
1.35688
1.35692
1.35695
1.35698
1.35699
1.35701
1.35702
1.35702
1.35702
1.35701
1.35701
1.357
1.35698
1.35697
1.35695
1.35693
1.3569
1.35688
1.35686
1.35683
1.3568
1.35677
1.35675
1.35672
1.35669
1.35666
1.35663
1.3566
1.35657
1.35654
1.35651
1.35647
1.35644
1.35641
1.35638
1.35635
1.35632
1.35629
1.35627
1.35624
1.35621
1.35618
1.35615
1.35612
1.35609
1.35607
1.35604
1.35601
1.35599
1.35596
1.35594
1.35591
1.35589
1.35586
1.35584
1.35581
1.35579
1.35577
1.35575
1.35573
1.35571
1.35569
1.35567
1.35565
1.35564
1.35562
1.35561
1.35559
1.35558
1.35557
1.35556
1.35555
1.35555
1.35554
1.35554
1.35554
1.35554
1.35555
1.35555
1.35556
1.35557
1.35559
1.35561
1.35563
1.35565
1.35568
1.35571
1.35575
1.35579
1.35583
1.35588
1.35593
1.35599
1.35605
1.35612
1.35619
1.35627
1.35636
1.35645
1.35655
1.35665
1.35676
1.35688
1.357
1.35714
1.35728
1.35742
1.35758
1.35774
1.35791
1.35809
1.35828
1.35848
1.35868
1.3589
1.35912
1.35935
1.3596
1.35985
1.36011
1.36037
1.36065
1.36094
1.36123
1.36154
1.36185
1.36217
1.3625
1.36284
1.36318
1.36353
1.36389
1.36426
1.36463
1.36501
1.36539
1.36577
1.36616
1.36655
1.36695
1.36734
1.36774
1.36813
1.36852
1.36891
1.3693
1.36968
1.37006
1.37043
1.3708
1.37115
1.3715
1.37183
1.37216
1.37248
1.37278
1.37307
1.37335
1.37362
1.37388
1.37412
1.37436
1.37458
1.37479
1.37499
1.37518
1.37536
1.37553
1.37569
1.37584
1.37598
1.37612
1.37625
1.37638
1.3765
1.37661
1.37672
1.37682
1.37692
1.37701
1.3771
1.37719
1.37727
1.37735
1.37742
1.3775
1.37757
1.37764
1.3777
1.37777
1.37783
1.37789
1.37795
1.378
1.37806
1.37811
1.37816
1.37822
1.37827
1.37832
1.37837
1.37842
1.37847
1.37853
1.37859
1.37865
1.37871
1.37877
1.37885
1.37892
1.379
1.37909
1.37919
1.37929
1.37941
1.37953
1.37966
1.37981
1.37997
1.38014
1.38032
1.38052
1.38074
1.38097
1.38122
1.38149
1.38178
1.38209
1.38242
1.38277
1.38314
1.38354
1.38397
1.38441
1.38489
1.38539
1.38593
1.38649
1.38708
1.3877
1.38836
1.38905
1.38978
1.39054
1.39134
1.39218
1.39306
1.39399
1.39496
1.39597
1.39705
1.39817
1.39936
1.4006
1.40192
1.40331
1.40479
1.40635
1.40801
1.40977
1.41164
1.41363
1.41571
1.41787
1.42006
1.42218
1.4241
1.42565
1.42668
1.42702
1.42665
1.33775
1.33729
1.33711
1.33717
1.33744
1.33784
1.33832
1.33884
1.33935
1.33985
1.34032
1.34075
1.34114
1.34149
1.3418
1.34208
1.34233
1.34254
1.34274
1.3429
1.34305
1.34318
1.34328
1.34338
1.34345
1.34352
1.34357
1.34361
1.34364
1.34366
1.34367
1.34367
1.34367
1.34366
1.34364
1.34362
1.3436
1.34357
1.34354
1.3435
1.34347
1.34343
1.34339
1.34335
1.34331
1.34328
1.34324
1.3432
1.34317
1.34314
1.34312
1.3431
1.34308
1.34307
1.34306
1.34306
1.34307
1.34308
1.3431
1.34313
1.34317
1.34321
1.34327
1.34333
1.3434
1.34348
1.34358
1.34368
1.34379
1.34391
1.34404
1.34418
1.34433
1.34448
1.34465
1.34483
1.34501
1.34521
1.34541
1.34562
1.34584
1.34607
1.34631
1.34656
1.34681
1.34707
1.34733
1.34761
1.34789
1.34817
1.34846
1.34876
1.34906
1.34936
1.34967
1.34997
1.35028
1.35059
1.3509
1.3512
1.35151
1.35181
1.35211
1.3524
1.35269
1.35298
1.35326
1.35353
1.3538
1.35405
1.3543
1.35454
1.35477
1.35499
1.35519
1.35539
1.35557
1.35574
1.3559
1.35605
1.35618
1.3563
1.35641
1.35651
1.3566
1.35667
1.35674
1.3568
1.35685
1.35689
1.35693
1.35696
1.35698
1.357
1.35701
1.35701
1.35701
1.35701
1.35701
1.357
1.35698
1.35697
1.35695
1.35693
1.35691
1.35689
1.35686
1.35684
1.35681
1.35679
1.35676
1.35673
1.3567
1.35667
1.35664
1.35661
1.35658
1.35655
1.35652
1.35649
1.35646
1.35643
1.3564
1.35637
1.35634
1.35631
1.35628
1.35625
1.35622
1.35619
1.35617
1.35614
1.35611
1.35608
1.35606
1.35603
1.356
1.35598
1.35595
1.35593
1.3559
1.35588
1.35585
1.35583
1.35581
1.35578
1.35576
1.35574
1.35572
1.3557
1.35568
1.35566
1.35564
1.35563
1.35561
1.3556
1.35558
1.35557
1.35556
1.35555
1.35554
1.35554
1.35553
1.35553
1.35553
1.35553
1.35553
1.35554
1.35555
1.35556
1.35557
1.35559
1.35561
1.35563
1.35566
1.35569
1.35573
1.35577
1.35581
1.35586
1.35591
1.35597
1.35603
1.3561
1.35617
1.35625
1.35633
1.35642
1.35652
1.35662
1.35673
1.35685
1.35698
1.35711
1.35725
1.35739
1.35755
1.35771
1.35788
1.35806
1.35825
1.35845
1.35865
1.35887
1.35909
1.35932
1.35957
1.35982
1.36008
1.36035
1.36063
1.36091
1.36121
1.36151
1.36183
1.36215
1.36248
1.36282
1.36317
1.36352
1.36388
1.36425
1.36462
1.365
1.36539
1.36578
1.36617
1.36656
1.36696
1.36736
1.36776
1.36816
1.36855
1.36895
1.36934
1.36973
1.37011
1.37048
1.37085
1.3712
1.37155
1.37189
1.37222
1.37254
1.37284
1.37313
1.37341
1.37368
1.37393
1.37418
1.37441
1.37463
1.37483
1.37503
1.37522
1.37539
1.37556
1.37572
1.37587
1.37601
1.37615
1.37628
1.3764
1.37651
1.37662
1.37673
1.37683
1.37693
1.37702
1.37711
1.37719
1.37727
1.37735
1.37743
1.3775
1.37757
1.37764
1.37771
1.37777
1.37783
1.37789
1.37795
1.378
1.37806
1.37811
1.37816
1.37821
1.37826
1.37831
1.37836
1.37841
1.37846
1.37852
1.37857
1.37863
1.37869
1.37875
1.37882
1.3789
1.37898
1.37906
1.37916
1.37926
1.37937
1.37949
1.37962
1.37976
1.37992
1.38009
1.38027
1.38046
1.38068
1.38091
1.38115
1.38142
1.3817
1.38201
1.38234
1.38268
1.38306
1.38345
1.38387
1.38432
1.38479
1.38529
1.38581
1.38637
1.38696
1.38758
1.38823
1.38891
1.38963
1.39038
1.39117
1.392
1.39286
1.39377
1.39473
1.39572
1.39677
1.39787
1.39901
1.40022
1.40149
1.40282
1.40422
1.40569
1.40724
1.40887
1.41058
1.41235
1.41417
1.41601
1.41781
1.41949
1.42095
1.42206
1.42274
1.42291
1.42251
1.33866
1.33827
1.33808
1.33808
1.33823
1.3385
1.33884
1.33923
1.33964
1.34005
1.34044
1.34081
1.34115
1.34147
1.34176
1.34202
1.34225
1.34246
1.34264
1.3428
1.34295
1.34307
1.34318
1.34327
1.34335
1.34341
1.34346
1.34351
1.34354
1.34356
1.34357
1.34358
1.34358
1.34357
1.34356
1.34354
1.34351
1.34349
1.34346
1.34343
1.34339
1.34335
1.34332
1.34328
1.34324
1.3432
1.34317
1.34313
1.3431
1.34307
1.34305
1.34303
1.34301
1.343
1.34299
1.34299
1.343
1.34302
1.34304
1.34307
1.3431
1.34315
1.3432
1.34327
1.34334
1.34342
1.34352
1.34362
1.34373
1.34385
1.34398
1.34413
1.34428
1.34444
1.3446
1.34478
1.34497
1.34517
1.34537
1.34559
1.34581
1.34604
1.34628
1.34652
1.34678
1.34704
1.34731
1.34758
1.34787
1.34816
1.34845
1.34875
1.34905
1.34936
1.34966
1.34997
1.35028
1.3506
1.35091
1.35122
1.35152
1.35183
1.35213
1.35243
1.35272
1.35301
1.35329
1.35357
1.35383
1.35409
1.35434
1.35458
1.35481
1.35503
1.35524
1.35544
1.35562
1.35579
1.35594
1.35609
1.35622
1.35634
1.35645
1.35654
1.35663
1.3567
1.35677
1.35682
1.35687
1.35691
1.35694
1.35696
1.35698
1.357
1.35701
1.35701
1.35701
1.357
1.357
1.35699
1.35697
1.35696
1.35694
1.35692
1.3569
1.35687
1.35685
1.35682
1.3568
1.35677
1.35674
1.35671
1.35668
1.35665
1.35662
1.35659
1.35656
1.35653
1.3565
1.35647
1.35644
1.35641
1.35638
1.35635
1.35632
1.3563
1.35627
1.35624
1.35621
1.35618
1.35615
1.35613
1.3561
1.35607
1.35604
1.35602
1.35599
1.35597
1.35594