# vtk DataFile Version 2.0
LBE mesh
ASCII
DATASET STRUCTURED_POINTS
DIMENSIONS 400 100 1
ASPECT_RATIO 1 1 1
ORIGIN 0 0 0
POINT_DATA 40000
SCALARS rho double 1
LOOKUP_TABLE default
1.02538
1.0772
1.09278
1.09688
1.09908
1.10076
1.10193
1.10271
1.10324
1.10364
1.10395
1.10419
1.10439
1.10454
1.10467
1.10478
1.10486
1.10494
1.105
1.10505
1.10509
1.10513
1.10516
1.10519
1.10521
1.10523
1.10524
1.10526
1.10527
1.10528
1.10528
1.10529
1.10529
1.1053
1.1053
1.1053
1.1053
1.1053
1.10531
1.10531
1.10531
1.10531
1.10531
1.10532
1.10532
1.10532
1.10533
1.10534
1.10535
1.10536
1.10537
1.10538
1.1054
1.10542
1.10544
1.10547
1.1055
1.10553
1.10557
1.10561
1.10565
1.1057
1.10575
1.10581
1.10587
1.10594
1.10602
1.1061
1.10618
1.10628
1.10637
1.10648
1.10659
1.10671
1.10683
1.10696
1.1071
1.10724
1.10739
1.10755
1.10771
1.10788
1.10806
1.10825
1.10844
1.10863
1.10883
1.10904
1.10926
1.10947
1.1097
1.10992
1.11016
1.11039
1.11063
1.11087
1.11111
1.11135
1.1116
1.11184
1.11209
1.11234
1.11258
1.11282
1.11306
1.1133
1.11354
1.11377
1.114
1.11423
1.11445
1.11467
1.11488
1.11508
1.11528
1.11548
1.11566
1.11584
1.11602
1.11619
1.11635
1.1165
1.11665
1.11679
1.11692
1.11705
1.11717
1.11729
1.1174
1.1175
1.1176
1.1177
1.11779
1.11788
1.11797
1.11805
1.11813
1.1182
1.11828
1.11835
1.11842
1.11848
1.11855
1.11861
1.11867
1.11873
1.11879
1.11885
1.11891
1.11896
1.11902
1.11907
1.11913
1.11918
1.11923
1.11928
1.11933
1.11938
1.11943
1.11948
1.11953
1.11958
1.11963
1.11967
1.11972
1.11977
1.11981
1.11986
1.1199
1.11994
1.11999
1.12003
1.12007
1.12011
1.12015
1.12019
1.12023
1.12027
1.12031
1.12035
1.12038
1.12042
1.12046
1.1205
1.12053
1.12057
1.12061
1.12064
1.12068
1.12072
1.12076
1.1208
1.12083
1.12087
1.12091
1.12095
1.12099
1.12103
1.12107
1.12111
1.12116
1.1212
1.12124
1.12128
1.12132
1.12137
1.12141
1.12145
1.12149
1.12153
1.12158
1.12162
1.12166
1.1217
1.12174
1.12178
1.12181
1.12185
1.12189
1.12193
1.12196
1.122
1.12203
1.12207
1.12211
1.12214
1.12218
1.12222
1.12226
1.12229
1.12234
1.12238
1.12242
1.12247
1.12252
1.12257
1.12263
1.12269
1.12276
1.12283
1.12291
1.12299
1.12308
1.12317
1.12328
1.12339
1.12351
1.12363
1.12377
1.12392
1.12407
1.12424
1.12441
1.1246
1.12479
1.125
1.12522
1.12544
1.12568
1.12593
1.12619
1.12646
1.12674
1.12703
1.12733
1.12764
1.12795
1.12827
1.1286
1.12893
1.12927
1.12961
1.12995
1.13029
1.13064
1.13098
1.13132
1.13166
1.13199
1.13232
1.13265
1.13296
1.13327
1.13357
1.13386
1.13413
1.1344
1.13466
1.1349
1.13514
1.13536
1.13557
1.13577
1.13595
1.13613
1.13629
1.13644
1.13658
1.13672
1.13684
1.13695
1.13706
1.13716
1.13725
1.13733
1.13741
1.13748
1.13755
1.13761
1.13766
1.13771
1.13776
1.13781
1.13785
1.13789
1.13792
1.13795
1.13798
1.13801
1.13803
1.13805
1.13807
1.13808
1.1381
1.13811
1.13811
1.13812
1.13812
1.13812
1.13812
1.13812
1.13811
1.1381
1.1381
1.13809
1.13808
1.13807
1.13806
1.13805
1.13804
1.13804
1.13803
1.13803
1.13804
1.13805
1.13807
1.13809
1.13813
1.13817
1.13822
1.13829
1.13836
1.13845
1.13856
1.13868
1.13882
1.13898
1.13916
1.13937
1.13959
1.13984
1.14012
1.14042
1.14076
1.14112
1.14151
1.14194
1.1424
1.14289
1.14342
1.14399
1.1446
1.14524
1.14593
1.14666
1.14743
1.14825
1.14912
1.15003
1.151
1.15203
1.15312
1.15428
1.15551
1.15683
1.15824
1.15976
1.1614
1.16319
1.16517
1.16737
1.16986
1.17272
1.1761
1.18019
1.18545
1.19283
1.20323
1.21782
1.246
1.06273
1.07456
1.08516
1.09282
1.09688
1.0991
1.10053
1.10156
1.10231
1.10287
1.1033
1.10363
1.1039
1.10412
1.10429
1.10444
1.10456
1.10466
1.10475
1.10482
1.10489
1.10494
1.10498
1.10502
1.10506
1.10509
1.10511
1.10513
1.10515
1.10516
1.10518
1.10519
1.1052
1.10521
1.10521
1.10522
1.10522
1.10523
1.10523
1.10524
1.10524
1.10525
1.10525
1.10526
1.10527
1.10527
1.10528
1.10529
1.1053
1.10531
1.10533
1.10535
1.10536
1.10539
1.10541
1.10544
1.10547
1.1055
1.10554
1.10558
1.10563
1.10568
1.10573
1.1058
1.10586
1.10593
1.10601
1.10609
1.10618
1.10627
1.10637
1.10648
1.10659
1.10671
1.10683
1.10696
1.1071
1.10725
1.1074
1.10756
1.10772
1.1079
1.10807
1.10826
1.10845
1.10865
1.10885
1.10906
1.10927
1.10949
1.10971
1.10994
1.11017
1.1104
1.11064
1.11088
1.11112
1.11137
1.11161
1.11185
1.1121
1.11234
1.11259
1.11283
1.11307
1.11331
1.11354
1.11377
1.114
1.11423
1.11444
1.11466
1.11487
1.11507
1.11527
1.11546
1.11565
1.11583
1.116
1.11616
1.11632
1.11648
1.11662
1.11676
1.11689
1.11702
1.11714
1.11726
1.11737
1.11747
1.11757
1.11767
1.11776
1.11785
1.11794
1.11802
1.1181
1.11817
1.11825
1.11832
1.11839
1.11846
1.11852
1.11859
1.11865
1.11871
1.11877
1.11883
1.11888
1.11894
1.119
1.11905
1.1191
1.11916
1.11921
1.11926
1.11931
1.11936
1.11941
1.11946
1.11951
1.11956
1.11961
1.11966
1.1197
1.11975
1.11979
1.11984
1.11988
1.11993
1.11997
1.12001
1.12005
1.12009
1.12013
1.12017
1.12021
1.12025
1.12029
1.12033
1.12037
1.12041
1.12044
1.12048
1.12052
1.12056
1.12059
1.12063
1.12067
1.12071
1.12074
1.12078
1.12082
1.12086
1.1209
1.12094
1.12098
1.12102
1.12106
1.1211
1.12114
1.12118
1.12123
1.12127
1.12131
1.12135
1.12139
1.12144
1.12148
1.12152
1.12156
1.1216
1.12164
1.12168
1.12172
1.12176
1.1218
1.12184
1.12187
1.12191
1.12195
1.12198
1.12202
1.12206
1.12209
1.12213
1.12217
1.1222
1.12224
1.12228
1.12232
1.12237
1.12241
1.12246
1.12251
1.12256
1.12262
1.12268
1.12275
1.12282
1.1229
1.12298
1.12307
1.12317
1.12327
1.12339
1.12351
1.12364
1.12377
1.12392
1.12408
1.12424
1.12442
1.12461
1.1248
1.12501
1.12523
1.12546
1.1257
1.12595
1.12621
1.12648
1.12676
1.12705
1.12735
1.12766
1.12797
1.12829
1.12862
1.12895
1.12929
1.12963
1.12997
1.13032
1.13066
1.131
1.13134
1.13168
1.13201
1.13234
1.13266
1.13297
1.13328
1.13358
1.13386
1.13414
1.13441
1.13466
1.13491
1.13514
1.13536
1.13557
1.13576
1.13595
1.13612
1.13628
1.13643
1.13658
1.13671
1.13683
1.13694
1.13705
1.13715
1.13724
1.13732
1.1374
1.13747
1.13753
1.1376
1.13765
1.1377
1.13775
1.1378
1.13784
1.13787
1.13791
1.13794
1.13797
1.13799
1.13802
1.13804
1.13805
1.13807
1.13808
1.13809
1.1381
1.1381
1.1381
1.1381
1.1381
1.1381
1.13809
1.13809
1.13808
1.13807
1.13806
1.13805
1.13804
1.13803
1.13802
1.13802
1.13802
1.13802
1.13803
1.13804
1.13806
1.13809
1.13812
1.13817
1.13822
1.13829
1.13837
1.13846
1.13857
1.1387
1.13884
1.139
1.13919
1.1394
1.13963
1.13988
1.14016
1.14047
1.14081
1.14118
1.14158
1.14201
1.14247
1.14297
1.14351
1.14408
1.14469
1.14534
1.14604
1.14677
1.14755
1.14838
1.14925
1.15018
1.15116
1.1522
1.1533
1.15448
1.15572
1.15706
1.15849
1.16004
1.16172
1.16356
1.1656
1.16788
1.17048
1.17349
1.17709
1.18151
1.18708
1.19428
1.20473
1.2232
1.25278
1.08053
1.08107
1.08721
1.09222
1.09548
1.09781
1.09948
1.10067
1.10154
1.1022
1.10272
1.10313
1.10345
1.10372
1.10394
1.10412
1.10427
1.1044
1.10451
1.1046
1.10468
1.10475
1.10481
1.10486
1.1049
1.10494
1.10498
1.105
1.10503
1.10505
1.10507
1.10509
1.1051
1.10511
1.10513
1.10514
1.10515
1.10515
1.10516
1.10517
1.10518
1.10518
1.10519
1.1052
1.10521
1.10522
1.10523
1.10524
1.10525
1.10527
1.10528
1.1053
1.10532
1.10535
1.10537
1.1054
1.10543
1.10547
1.10551
1.10555
1.1056
1.10565
1.10571
1.10577
1.10584
1.10591
1.10599
1.10607
1.10616
1.10625
1.10636
1.10646
1.10658
1.1067
1.10682
1.10696
1.1071
1.10724
1.1074
1.10756
1.10772
1.1079
1.10808
1.10826
1.10845
1.10865
1.10885
1.10906
1.10928
1.1095
1.10972
1.10995
1.11018
1.11041
1.11065
1.11089
1.11113
1.11138
1.11162
1.11186
1.11211
1.11235
1.11259
1.11284
1.11307
1.11331
1.11354
1.11377
1.114
1.11422
1.11444
1.11466
1.11486
1.11507
1.11526
1.11545
1.11564
1.11581
1.11598
1.11615
1.1163
1.11645
1.1166
1.11674
1.11687
1.11699
1.11711
1.11723
1.11734
1.11744
1.11754
1.11764
1.11773
1.11782
1.1179
1.11798
1.11806
1.11814
1.11821
1.11828
1.11835
1.11842
1.11849
1.11855
1.11861
1.11867
1.11873
1.11879
1.11885
1.11891
1.11896
1.11902
1.11907
1.11913
1.11918
1.11923
1.11928
1.11933
1.11938
1.11943
1.11948
1.11953
1.11958
1.11963
1.11967
1.11972
1.11976
1.11981
1.11985
1.1199
1.11994
1.11998
1.12002
1.12007
1.12011
1.12015
1.12019
1.12023
1.12026
1.1203
1.12034
1.12038
1.12042
1.12045
1.12049
1.12053
1.12057
1.1206
1.12064
1.12068
1.12072
1.12076
1.1208
1.12083
1.12087
1.12091
1.12095
1.121
1.12104
1.12108
1.12112
1.12116
1.1212
1.12124
1.12129
1.12133
1.12137
1.12141
1.12145
1.1215
1.12154
1.12158
1.12162
1.12166
1.1217
1.12174
1.12177
1.12181
1.12185
1.12189
1.12192
1.12196
1.12199
1.12203
1.12207
1.1221
1.12214
1.12218
1.12222
1.12226
1.1223
1.12234
1.12239
1.12244
1.12249
1.12254
1.1226
1.12266
1.12273
1.1228
1.12288
1.12297
1.12306
1.12315
1.12326
1.12337
1.12349
1.12362
1.12376
1.12391
1.12407
1.12423
1.12441
1.1246
1.1248
1.12501
1.12523
1.12546
1.1257
1.12595
1.12621
1.12649
1.12677
1.12706
1.12736
1.12767
1.12798
1.1283
1.12863
1.12897
1.1293
1.12964
1.12998
1.13033
1.13067
1.13101
1.13135
1.13169
1.13202
1.13235
1.13267
1.13298
1.13329
1.13358
1.13387
1.13415
1.13441
1.13467
1.13491
1.13514
1.13536
1.13556
1.13576
1.13594
1.13612
1.13628
1.13643
1.13657
1.1367
1.13682
1.13694
1.13704
1.13714
1.13723
1.13731
1.13739
1.13746
1.13752
1.13759
1.13764
1.13769
1.13774
1.13779
1.13783
1.13786
1.1379
1.13793
1.13796
1.13798
1.13801
1.13802
1.13804
1.13806
1.13807
1.13808
1.13808
1.13809
1.13809
1.13809
1.13809
1.13808
1.13807
1.13807
1.13806
1.13805
1.13804
1.13803
1.13802
1.13801
1.138
1.138
1.138
1.138
1.13801
1.13802
1.13804
1.13807
1.13811
1.13815
1.13821
1.13828
1.13836
1.13845
1.13856
1.13869
1.13884
1.139
1.13919
1.1394
1.13963
1.13989
1.14018
1.14049
1.14083
1.1412
1.1416
1.14204
1.14251
1.14301
1.14355
1.14413
1.14474
1.1454
1.1461
1.14684
1.14762
1.14845
1.14933
1.15027
1.15125
1.1523
1.15341
1.15459
1.15584
1.15719
1.15863
1.16019
1.16188
1.16373
1.16578
1.16808
1.17069
1.17371
1.17725
1.18152
1.18687
1.19379
1.20244
1.21183
1.22105
1.08885
1.08818
1.09028
1.09284
1.09539
1.09742
1.09893
1.10009
1.10099
1.10169
1.10225
1.1027
1.10307
1.10337
1.10362
1.10383
1.10401
1.10416
1.10428
1.10439
1.10449
1.10457
1.10464
1.1047
1.10476
1.1048
1.10484
1.10488
1.10491
1.10494
1.10496
1.10499
1.105
1.10502
1.10504
1.10505
1.10506
1.10508
1.10509
1.1051
1.10511
1.10512
1.10513
1.10514
1.10515
1.10516
1.10517
1.10518
1.1052
1.10521
1.10523
1.10525
1.10527
1.1053
1.10533
1.10536
1.10539
1.10543
1.10547
1.10551
1.10556
1.10561
1.10567
1.10574
1.1058
1.10588
1.10596
1.10604
1.10613
1.10623
1.10633
1.10644
1.10656
1.10668
1.10681
1.10694
1.10708
1.10723
1.10739
1.10755
1.10772
1.10789
1.10807
1.10826
1.10845
1.10865
1.10886
1.10907
1.10928
1.1095
1.10973
1.10996
1.11019
1.11042
1.11066
1.1109
1.11114
1.11139
1.11163
1.11187
1.11212
1.11236
1.1126
1.11284
1.11308
1.11332
1.11355
1.11378
1.11401
1.11423
1.11444
1.11466
1.11486
1.11506
1.11526
1.11544
1.11563
1.1158
1.11597
1.11613
1.11629
1.11644
1.11658
1.11671
1.11684
1.11697
1.11708
1.1172
1.1173
1.11741
1.11751
1.1176
1.11769
1.11778
1.11786
1.11794
1.11802
1.1181
1.11817
1.11824
1.11831
1.11838
1.11844
1.11851
1.11857
1.11863
1.11869
1.11875
1.11881
1.11886
1.11892
1.11898
1.11903
1.11908
1.11914
1.11919
1.11924
1.11929
1.11934
1.11939
1.11944
1.11949
1.11954
1.11959
1.11963
1.11968
1.11972
1.11977
1.11981
1.11986
1.1199
1.11994
1.11999
1.12003
1.12007
1.12011
1.12015
1.12019
1.12023
1.12027
1.1203
1.12034
1.12038
1.12042
1.12046
1.12049
1.12053
1.12057
1.12061
1.12065
1.12068
1.12072
1.12076
1.1208
1.12084
1.12088
1.12092
1.12096
1.121
1.12104
1.12109
1.12113
1.12117
1.12121
1.12125
1.1213
1.12134
1.12138
1.12142
1.12146
1.1215
1.12154
1.12158
1.12162
1.12166
1.1217
1.12174
1.12178
1.12181
1.12185
1.12189
1.12192
1.12196
1.12199
1.12203
1.12207
1.1221
1.12214
1.12218
1.12222
1.12226
1.1223
1.12235
1.1224
1.12245
1.12251
1.12257
1.12263
1.1227
1.12277
1.12285
1.12293
1.12302
1.12312
1.12323
1.12334
1.12346
1.1236
1.12373
1.12388
1.12404
1.12421
1.12439
1.12458
1.12478
1.12499
1.12521
1.12544
1.12569
1.12594
1.1262
1.12648
1.12676
1.12705
1.12735
1.12766
1.12798
1.1283
1.12863
1.12897
1.1293
1.12965
1.12999
1.13033
1.13068
1.13102
1.13136
1.1317
1.13203
1.13236
1.13268
1.13299
1.1333
1.13359
1.13388
1.13415
1.13442
1.13467
1.13491
1.13514
1.13536
1.13556
1.13576
1.13594
1.13611
1.13627
1.13642
1.13656
1.1367
1.13682
1.13693
1.13703
1.13713
1.13722
1.1373
1.13738
1.13745
1.13752
1.13758
1.13763
1.13768
1.13773
1.13778
1.13782
1.13785
1.13789
1.13792
1.13795
1.13797
1.13799
1.13801
1.13803
1.13804
1.13805
1.13806
1.13807
1.13807
1.13807
1.13807
1.13807
1.13806
1.13806
1.13805
1.13804
1.13803
1.13802
1.13801
1.138
1.13799
1.13798
1.13797
1.13797
1.13798
1.13798
1.138
1.13802
1.13804
1.13808
1.13813
1.13818
1.13825
1.13833
1.13843
1.13854
1.13867
1.13882
1.13899
1.13917
1.13938
1.13962
1.13988
1.14017
1.14048
1.14082
1.1412
1.1416
1.14204
1.14251
1.14301
1.14356
1.14414
1.14476
1.14541
1.14611
1.14686
1.14764
1.14848
1.14936
1.15029
1.15128
1.15233
1.15344
1.15462
1.15587
1.15721
1.15865
1.1602
1.16188
1.16371
1.16573
1.16798
1.17051
1.1734
1.17674
1.18065
1.18522
1.19052
1.19642
1.20122
1.20141
1.0929
1.0924
1.09306
1.09444
1.09606
1.09753
1.09878
1.09982
1.10067
1.10135
1.10191
1.10238
1.10276
1.10308
1.10335
1.10358
1.10377
1.10394
1.10408
1.1042
1.10431
1.1044
1.10448
1.10455
1.10461
1.10467
1.10471
1.10476
1.10479
1.10483
1.10486
1.10488
1.10491
1.10493
1.10495
1.10497
1.10498
1.105
1.10501
1.10502
1.10503
1.10505
1.10506
1.10507
1.10508
1.10509
1.10511
1.10512
1.10514
1.10516
1.10517
1.1052
1.10522
1.10524
1.10527
1.1053
1.10534
1.10538
1.10542
1.10546
1.10551
1.10557
1.10563
1.10569
1.10576
1.10584
1.10592
1.106
1.1061
1.10619
1.1063
1.10641
1.10653
1.10665
1.10678
1.10692
1.10706
1.10721
1.10737
1.10753
1.1077
1.10788
1.10806
1.10825
1.10844
1.10864
1.10885
1.10906
1.10928
1.1095
1.10973
1.10996
1.11019
1.11043
1.11067
1.11091
1.11115
1.11139
1.11164
1.11188
1.11213
1.11237
1.11261
1.11285
1.11309
1.11333
1.11356
1.11379
1.11401
1.11423
1.11445
1.11466
1.11486
1.11506
1.11525
1.11544
1.11562
1.11579
1.11596
1.11612
1.11627
1.11642
1.11656
1.11669
1.11682
1.11694
1.11705
1.11717
1.11727
1.11737
1.11747
1.11756
1.11765
1.11774
1.11782
1.1179
1.11797
1.11805
1.11812
1.11819
1.11826
1.11833
1.11839
1.11845
1.11852
1.11858
1.11864
1.1187
1.11875
1.11881
1.11887
1.11892
1.11898
1.11903
1.11908
1.11914
1.11919
1.11924
1.11929
1.11934
1.11939
1.11944
1.11949
1.11954
1.11958
1.11963
1.11967
1.11972
1.11976
1.11981
1.11985
1.11989
1.11994
1.11998
1.12002
1.12006
1.1201
1.12014
1.12018
1.12022
1.12026
1.1203
1.12033
1.12037
1.12041
1.12045
1.12049
1.12052
1.12056
1.1206
1.12064
1.12068
1.12072
1.12076
1.1208
1.12084
1.12088
1.12092
1.12096
1.121
1.12104
1.12108
1.12113
1.12117
1.12121
1.12125
1.12129
1.12134
1.12138
1.12142
1.12146
1.1215
1.12154
1.12158
1.12162
1.12166
1.12169
1.12173
1.12177
1.1218
1.12184
1.12187
1.12191
1.12195
1.12198
1.12202
1.12205
1.12209
1.12213
1.12217
1.12221
1.12226
1.1223
1.12235
1.1224
1.12246
1.12252
1.12258
1.12265
1.12272
1.1228
1.12289
1.12298
1.12308
1.12319
1.1233
1.12342
1.12355
1.12369
1.12384
1.124
1.12417
1.12435
1.12454
1.12474
1.12496
1.12518
1.12541
1.12566
1.12591
1.12618
1.12645
1.12674
1.12703
1.12733
1.12764
1.12796
1.12829
1.12862
1.12895
1.12929
1.12964
1.12998
1.13033
1.13067
1.13102
1.13136
1.1317
1.13203
1.13236
1.13268
1.133
1.1333
1.1336
1.13388
1.13416
1.13442
1.13467
1.13492
1.13514
1.13536
1.13557
1.13576
1.13594
1.13611
1.13627
1.13642
1.13656
1.13669
1.13681
1.13692
1.13703
1.13712
1.13721
1.1373
1.13737
1.13744
1.13751
1.13757
1.13762
1.13768
1.13772
1.13777
1.13781
1.13784
1.13788
1.13791
1.13794
1.13796
1.13798
1.138
1.13802
1.13803
1.13804
1.13805
1.13806
1.13806
1.13806
1.13806
1.13805
1.13804
1.13804
1.13803
1.13802
1.138
1.13799
1.13798
1.13797
1.13796
1.13795
1.13795
1.13794
1.13794
1.13795
1.13796
1.13798
1.13801
1.13804
1.13809
1.13814
1.13821
1.13829
1.13839
1.1385
1.13863
1.13878
1.13895
1.13913
1.13934
1.13958
1.13984
1.14013
1.14044
1.14078
1.14116
1.14156
1.142
1.14247
1.14298
1.14352
1.1441
1.14472
1.14538
1.14608
1.14683
1.14761
1.14845
1.14933
1.15026
1.15125
1.15229
1.15339
1.15456
1.1558
1.15713
1.15855
1.16007
1.16171
1.16349
1.16544
1.16759
1.16997
1.17264
1.17563
1.17899
1.18269
1.18647
1.18988
1.19224
1.19162
1.09553
1.09507
1.09525
1.09598
1.09694
1.09797
1.09895
1.0998
1.10054
1.10117
1.1017
1.10215
1.10253
1.10285
1.10312
1.10336
1.10356
1.10374
1.10389
1.10402
1.10414
1.10424
1.10433
1.10441
1.10447
1.10454
1.10459
1.10464
1.10468
1.10472
1.10475
1.10478
1.10481
1.10483
1.10486
1.10488
1.1049
1.10491
1.10493
1.10494
1.10496
1.10497
1.10499
1.105
1.10501
1.10503
1.10504
1.10506
1.10507
1.10509
1.10511
1.10513
1.10516
1.10519
1.10521
1.10525
1.10528
1.10532
1.10536
1.10541
1.10546
1.10552
1.10558
1.10564
1.10571
1.10579
1.10587
1.10596
1.10605
1.10615
1.10626
1.10637
1.10649
1.10661
1.10675
1.10688
1.10703
1.10718
1.10734
1.1075
1.10768
1.10785
1.10804
1.10823
1.10843
1.10863
1.10884
1.10905
1.10927
1.1095
1.10972
1.10996
1.11019
1.11043
1.11067
1.11091
1.11116
1.1114
1.11165
1.11189
1.11214
1.11238
1.11262
1.11286
1.1131
1.11334
1.11357
1.1138
1.11402
1.11424
1.11445
1.11466
1.11487
1.11506
1.11525
1.11544
1.11562
1.11579
1.11595
1.11611
1.11626
1.1164
1.11654
1.11667
1.11679
1.11691
1.11702
1.11713
1.11723
1.11733
1.11743
1.11752
1.1176
1.11769
1.11777
1.11785
1.11792
1.11799
1.11807
1.11813
1.1182
1.11827
1.11833
1.11839
1.11846
1.11852
1.11858
1.11864
1.11869
1.11875
1.11881
1.11886
1.11892
1.11897
1.11902
1.11908
1.11913
1.11918
1.11923
1.11928
1.11933
1.11938
1.11943
1.11947
1.11952
1.11957
1.11961
1.11966
1.1197
1.11975
1.11979
1.11984
1.11988
1.11992
1.11996
1.12
1.12004
1.12008
1.12012
1.12016
1.1202
1.12024
1.12028
1.12032
1.12035
1.12039
1.12043
1.12047
1.12051
1.12055
1.12059
1.12063
1.12066
1.1207
1.12074
1.12078
1.12083
1.12087
1.12091
1.12095
1.12099
1.12103
1.12107
1.12112
1.12116
1.1212
1.12124
1.12128
1.12132
1.12137
1.12141
1.12145
1.12149
1.12152
1.12156
1.1216
1.12164
1.12167
1.12171
1.12175
1.12178
1.12182
1.12185
1.12189
1.12192
1.12196
1.122
1.12203
1.12207
1.12211
1.12215
1.1222
1.12224
1.12229
1.12234
1.1224
1.12246
1.12252
1.12259
1.12267
1.12275
1.12283
1.12292
1.12302
1.12313
1.12324
1.12337
1.1235
1.12364
1.12379
1.12395
1.12412
1.1243
1.12449
1.1247
1.12491
1.12513
1.12537
1.12561
1.12587
1.12614
1.12641
1.1267
1.127
1.1273
1.12761
1.12793
1.12826
1.12859
1.12893
1.12927
1.12962
1.12997
1.13032
1.13066
1.13101
1.13135
1.13169
1.13203
1.13236
1.13268
1.133
1.1333
1.1336
1.13389
1.13416
1.13443
1.13468
1.13492
1.13515
1.13537
1.13557
1.13576
1.13595
1.13611
1.13627
1.13642
1.13656
1.13669
1.13681
1.13692
1.13702
1.13712
1.13721
1.13729
1.13736
1.13743
1.1375
1.13756
1.13762
1.13767
1.13771
1.13776
1.1378
1.13784
1.13787
1.1379
1.13793
1.13795
1.13797
1.13799
1.13801
1.13802
1.13803
1.13804
1.13804
1.13804
1.13804
1.13804
1.13803
1.13803
1.13802
1.138
1.13799
1.13798
1.13797
1.13795
1.13794
1.13793
1.13792
1.13791
1.13791
1.13791
1.13791
1.13792
1.13794
1.13796
1.138
1.13804
1.1381
1.13816
1.13824
1.13834
1.13845
1.13858
1.13872
1.13889
1.13907
1.13928
1.13952
1.13978
1.14006
1.14038
1.14072
1.14109
1.1415
1.14193
1.1424
1.14291
1.14345
1.14403
1.14465
1.14531
1.14601
1.14675
1.14753
1.14836
1.14924
1.15017
1.15114
1.15218
1.15327
1.15442
1.15565
1.15694
1.15833
1.1598
1.16139
1.1631
1.16494
1.16695
1.16914
1.17153
1.17412
1.17688
1.17969
1.18235
1.1844
1.18546
1.18523
1.09735
1.0969
1.0969
1.09726
1.09785
1.09855
1.09927
1.09995
1.10056
1.10111
1.10159
1.10201
1.10237
1.10268
1.10295
1.10319
1.10339
1.10357
1.10373
1.10387
1.10399
1.10409
1.10419
1.10427
1.10435
1.10441
1.10447
1.10452
1.10457
1.10461
1.10465
1.10468
1.10471
1.10474
1.10477
1.10479
1.10481
1.10483
1.10485
1.10487
1.10488
1.1049
1.10491
1.10493
1.10494
1.10496
1.10497
1.10499
1.10501
1.10503
1.10505
1.10507
1.10509
1.10512
1.10515
1.10518
1.10522
1.10526
1.1053
1.10535
1.1054
1.10546
1.10552
1.10558
1.10566
1.10573
1.10582
1.1059
1.106
1.1061
1.10621
1.10632
1.10644
1.10657
1.1067
1.10684
1.10699
1.10714
1.1073
1.10747
1.10764
1.10782
1.10801
1.1082
1.1084
1.10861
1.10882
1.10904
1.10926
1.10948
1.10971
1.10995
1.11019
1.11043
1.11067
1.11091
1.11116
1.11141
1.11165
1.1119
1.11214
1.11239
1.11263
1.11287
1.11311
1.11334
1.11358
1.1138
1.11403
1.11425
1.11446
1.11467
1.11487
1.11507
1.11526
1.11544
1.11561
1.11578
1.11594
1.1161
1.11625
1.11639
1.11652
1.11665
1.11677
1.11688
1.11699
1.1171
1.1172
1.11729
1.11738
1.11747
1.11755
1.11764
1.11771
1.11779
1.11786
1.11794
1.118
1.11807
1.11814
1.1182
1.11827
1.11833
1.11839
1.11845
1.11851
1.11857
1.11862
1.11868
1.11873
1.11879
1.11884
1.1189
1.11895
1.119
1.11906
1.11911
1.11916
1.11921
1.11926
1.11931
1.11936
1.1194
1.11945
1.1195
1.11954
1.11959
1.11963
1.11968
1.11972
1.11977
1.11981
1.11985
1.11989
1.11993
1.11997
1.12001
1.12005
1.12009
1.12013
1.12017
1.12021
1.12025
1.12029
1.12033
1.12037
1.12041
1.12044
1.12048
1.12052
1.12056
1.1206
1.12064
1.12068
1.12072
1.12076
1.1208
1.12085
1.12089
1.12093
1.12097
1.12101
1.12105
1.1211
1.12114
1.12118
1.12122
1.12126
1.1213
1.12134
1.12138
1.12142
1.12146
1.1215
1.12154
1.12157
1.12161
1.12164
1.12168
1.12172
1.12175
1.12178
1.12182
1.12186
1.12189
1.12193
1.12196
1.122
1.12204
1.12208
1.12213
1.12217
1.12222
1.12227
1.12233
1.12239
1.12245
1.12252
1.1226
1.12268
1.12276
1.12285
1.12295
1.12306
1.12318
1.1233
1.12343
1.12357
1.12372
1.12389
1.12406
1.12424
1.12443
1.12463
1.12485
1.12507
1.12531
1.12555
1.12581
1.12608
1.12636
1.12665
1.12694
1.12725
1.12757
1.12789
1.12822
1.12855
1.1289
1.12924
1.12959
1.12994
1.13029
1.13064
1.13099
1.13134
1.13168
1.13202
1.13235
1.13268
1.133
1.1333
1.1336
1.13389
1.13417
1.13443
1.13469
1.13493
1.13516
1.13537
1.13558
1.13577
1.13595
1.13612
1.13628
1.13642
1.13656
1.13669
1.13681
1.13692
1.13702
1.13711
1.1372
1.13728
1.13736
1.13743
1.13749
1.13755
1.13761
1.13766
1.13771
1.13775
1.13779
1.13783
1.13786
1.13789
1.13792
1.13794
1.13796
1.13798
1.138
1.13801
1.13802
1.13803
1.13803
1.13803
1.13803
1.13802
1.13802
1.13801
1.138
1.13798
1.13797
1.13795
1.13794
1.13792
1.13791
1.13789
1.13788
1.13787
1.13787
1.13787
1.13787
1.13788
1.13789
1.13791
1.13794
1.13799
1.13804
1.1381
1.13818
1.13827
1.13838
1.1385
1.13865
1.13881
1.139
1.1392
1.13943
1.13969
1.13997
1.14028
1.14062
1.14099
1.1414
1.14183
1.1423
1.1428
1.14334
1.14392
1.14453
1.14519
1.14588
1.14662
1.1474
1.14822
1.14909
1.15001
1.15097
1.15199
1.15306
1.1542
1.15539
1.15665
1.15799
1.15941
1.16093
1.16254
1.16427
1.16611
1.16808
1.17017
1.17236
1.17457
1.17669
1.17852
1.17983
1.18035
1.18016
1.09864
1.09823
1.09814
1.09831
1.09867
1.09914
1.09966
1.10018
1.10068
1.10115
1.10156
1.10194
1.10227
1.10256
1.10282
1.10305
1.10325
1.10343
1.10359
1.10373
1.10385
1.10396
1.10406
1.10415
1.10422
1.10429
1.10436
1.10441
1.10446
1.10451
1.10455
1.10458
1.10462
1.10465
1.10468
1.1047
1.10472
1.10475
1.10476
1.10478
1.1048
1.10482
1.10483
1.10485
1.10487
1.10488
1.1049
1.10492
1.10493
1.10495
1.10498
1.105
1.10502
1.10505
1.10508
1.10511
1.10515
1.10519
1.10523
1.10528
1.10533
1.10539
1.10545
1.10552
1.10559
1.10567
1.10575
1.10584
1.10594
1.10604
1.10615
1.10627
1.10639
1.10652
1.10665
1.10679
1.10694
1.1071
1.10726
1.10743
1.10761
1.10779
1.10798
1.10817
1.10838
1.10858
1.1088
1.10902
1.10924
1.10947
1.1097
1.10994
1.11018
1.11042
1.11067
1.11091
1.11116
1.11141
1.11166
1.11191
1.11215
1.1124
1.11264
1.11288
1.11312
1.11336
1.11359
1.11382
1.11404
1.11426
1.11447
1.11468
1.11488
1.11507
1.11526
1.11544
1.11561
1.11578
1.11594
1.11609
1.11623
1.11637
1.1165
1.11662
1.11674
1.11685
1.11696
1.11706
1.11715
1.11725
1.11733
1.11742
1.1175
1.11758
1.11766
1.11773
1.1178
1.11787
1.11794
1.118
1.11807
1.11813
1.11819
1.11825
1.11831
1.11837
1.11843
1.11849
1.11855
1.1186
1.11866
1.11871
1.11877
1.11882
1.11887
1.11893
1.11898
1.11903
1.11908
1.11913
1.11918
1.11923
1.11928
1.11933
1.11937
1.11942
1.11947
1.11951
1.11956
1.1196
1.11965
1.11969
1.11973
1.11977
1.11982
1.11986
1.1199
1.11994
1.11998
1.12002
1.12006
1.1201
1.12014
1.12018
1.12022
1.12026
1.12029
1.12033
1.12037
1.12041
1.12045
1.12049
1.12053
1.12057
1.12061
1.12065
1.12069
1.12074
1.12078
1.12082
1.12086
1.1209
1.12094
1.12099
1.12103
1.12107
1.12111
1.12115
1.12119
1.12123
1.12127
1.12131
1.12135
1.12139
1.12142
1.12146
1.1215
1.12153
1.12157
1.1216
1.12164
1.12167
1.12171
1.12174
1.12178
1.12181
1.12185
1.12189
1.12192
1.12196
1.122
1.12205
1.12209
1.12214
1.12219
1.12225
1.12231
1.12237
1.12244
1.12251
1.12259
1.12268
1.12277
1.12287
1.12298
1.1231
1.12322
1.12335
1.12349
1.12364
1.12381
1.12398
1.12416
1.12435
1.12456
1.12477
1.125
1.12523
1.12548
1.12574
1.12601
1.12629
1.12658
1.12688
1.12719
1.12751
1.12783
1.12817
1.1285
1.12885
1.1292
1.12955
1.1299
1.13026
1.13061
1.13097
1.13132
1.13167
1.13201
1.13234
1.13267
1.13299
1.1333
1.1336
1.13389
1.13417
1.13444
1.13469
1.13493
1.13516
1.13538
1.13558
1.13577
1.13595
1.13612
1.13628
1.13642
1.13656
1.13669
1.1368
1.13691
1.13702
1.13711
1.1372
1.13728
1.13735
1.13742
1.13748
1.13754
1.1376
1.13765
1.1377
1.13774
1.13778
1.13782
1.13785
1.13788
1.13791
1.13793
1.13796
1.13797
1.13799
1.138
1.13801
1.13801
1.13802
1.13801
1.13801
1.13801
1.138
1.13799
1.13797
1.13796
1.13794
1.13793
1.13791
1.13789
1.13787
1.13786
1.13784
1.13783
1.13782
1.13782
1.13782
1.13782
1.13784
1.13786
1.13788
1.13792
1.13797
1.13803
1.13811
1.13819
1.1383
1.13842
1.13856
1.13872
1.1389
1.1391
1.13933
1.13958
1.13986
1.14017
1.14051
1.14087
1.14127
1.1417
1.14217
1.14267
1.1432
1.14377
1.14438
1.14503
1.14572
1.14645
1.14722
1.14803
1.14889
1.14979
1.15074
1.15174
1.15279
1.15389
1.15505
1.15628
1.15756
1.15892
1.16034
1.16185
1.16344
1.16512
1.16686
1.16867
1.17048
1.17224
1.17383
1.17511
1.17597
1.17626
1.17599
1.09957
1.09922
1.0991
1.09916
1.09937
1.09969
1.10006
1.10046
1.10086
1.10124
1.1016
1.10193
1.10223
1.1025
1.10274
1.10296
1.10315
1.10332
1.10348
1.10361
1.10374
1.10385
1.10395
1.10403
1.10411
1.10419
1.10425
1.10431
1.10436
1.10441
1.10445
1.10449
1.10452
1.10456
1.10459
1.10461
1.10464
1.10466
1.10468
1.1047
1.10472
1.10474
1.10476
1.10477
1.10479
1.10481
1.10482
1.10484
1.10486
1.10488
1.1049
1.10493
1.10495
1.10498
1.10501
1.10504
1.10508
1.10512
1.10516
1.10521
1.10526
1.10532
1.10538
1.10545
1.10552
1.1056
1.10569
1.10578
1.10587
1.10598
1.10609
1.1062
1.10633
1.10646
1.10659
1.10674
1.10689
1.10705
1.10721
1.10738
1.10756
1.10775
1.10794
1.10813
1.10834
1.10855
1.10877
1.10899
1.10922
1.10945
1.10968
1.10992
1.11017
1.11041
1.11066
1.11091
1.11116
1.11141
1.11166
1.11191
1.11216
1.1124
1.11265
1.11289
1.11313
1.11337
1.1136
1.11383
1.11405
1.11427
1.11448
1.11469
1.11489
1.11508
1.11527
1.11545
1.11562
1.11578
1.11593
1.11608
1.11622
1.11636
1.11648
1.1166
1.11671
1.11682
1.11692
1.11702
1.11711
1.1172
1.11728
1.11737
1.11744
1.11752
1.11759
1.11766
1.11773
1.1178
1.11787
1.11793
1.11799
1.11805
1.11811
1.11817
1.11823
1.11829
1.11835
1.11841
1.11846
1.11852
1.11857
1.11863
1.11868
1.11873
1.11879
1.11884
1.11889
1.11894
1.11899
1.11904
1.11909
1.11914
1.11919
1.11924
1.11929
1.11933
1.11938
1.11942
1.11947
1.11951
1.11956
1.1196
1.11965
1.11969
1.11973
1.11977
1.11981
1.11985
1.1199
1.11994
1.11998
1.12002
1.12005
1.12009
1.12013
1.12017
1.12021
1.12025
1.12029
1.12033
1.12037
1.12041
1.12045
1.12049
1.12053
1.12057
1.12062
1.12066
1.1207
1.12074
1.12078
1.12082
1.12087
1.12091
1.12095
1.12099
1.12103
1.12107
1.12111
1.12115
1.12119
1.12123
1.12127
1.12131
1.12134
1.12138
1.12141
1.12145
1.12148
1.12152
1.12155
1.12159
1.12162
1.12166
1.12169
1.12173
1.12176
1.1218
1.12183
1.12187
1.12191
1.12196
1.122
1.12205
1.1221
1.12216
1.12222
1.12228
1.12235
1.12242
1.1225
1.12259
1.12268
1.12278
1.12289
1.123
1.12313
1.12326
1.1234
1.12355
1.12371
1.12389
1.12407
1.12426
1.12447
1.12468
1.12491
1.12515
1.12539
1.12565
1.12593
1.12621
1.1265
1.1268
1.12711
1.12743
1.12776
1.1281
1.12844
1.12879
1.12914
1.1295
1.12986
1.13021
1.13057
1.13093
1.13129
1.13164
1.13198
1.13232
1.13266
1.13298
1.13329
1.1336
1.13389
1.13417
1.13444
1.13469
1.13494
1.13517
1.13538
1.13559
1.13578
1.13596
1.13612
1.13628
1.13643
1.13656
1.13669
1.1368
1.13691
1.13701
1.13711
1.13719
1.13727
1.13735
1.13741
1.13748
1.13754
1.13759
1.13764
1.13769
1.13773
1.13777
1.13781
1.13784
1.13788
1.1379
1.13793
1.13795
1.13796
1.13798
1.13799
1.138
1.138
1.138
1.138
1.138
1.13799
1.13798
1.13797
1.13795
1.13793
1.13792
1.1379
1.13788
1.13786
1.13784
1.13782
1.1378
1.13779
1.13778
1.13777
1.13776
1.13777
1.13777
1.13779
1.13781
1.13785
1.13789
1.13795
1.13802
1.13811
1.13821
1.13832
1.13846
1.13861
1.13879
1.13899
1.13921
1.13946
1.13973
1.14003
1.14036
1.14072
1.14112
1.14154
1.142
1.14249
1.14302
1.14359
1.14419
1.14483
1.14551
1.14623
1.14699
1.14779
1.14863
1.14952
1.15045
1.15142
1.15244
1.15351
1.15463
1.15581
1.15703
1.15832
1.15966
1.16105
1.16251
1.16401
1.16554
1.16708
1.16858
1.16997
1.17118
1.1721
1.17267
1.17283
1.17253
1.10028
1.09998
1.09984
1.09984
1.09997
1.10018
1.10045
1.10075
1.10106
1.10137
1.10167
1.10196
1.10222
1.10246
1.10268
1.10289
1.10307
1.10323
1.10338
1.10351
1.10363
1.10374
1.10384
1.10393
1.10401
1.10408
1.10415
1.10421
1.10426
1.10431
1.10435
1.1044
1.10443
1.10447
1.1045
1.10453
1.10455
1.10458
1.1046
1.10462
1.10464
1.10466
1.10468
1.10469
1.10471
1.10473
1.10475
1.10476
1.10478
1.1048
1.10483
1.10485
1.10487
1.1049
1.10493
1.10497
1.105
1.10504
1.10509
1.10513
1.10519
1.10524
1.10531
1.10537
1.10545
1.10553
1.10561
1.10571
1.1058
1.10591
1.10602
1.10614
1.10626
1.1064
1.10653
1.10668
1.10683
1.10699
1.10716
1.10733
1.10751
1.1077
1.10789
1.10809
1.1083
1.10851
1.10873
1.10896
1.10919
1.10943
1.10966
1.10991
1.11015
1.1104
1.11065
1.1109
1.11116
1.11141
1.11166
1.11191
1.11216
1.11241
1.11266
1.1129
1.11314
1.11338
1.11361
1.11384
1.11406
1.11428
1.11449
1.1147
1.1149
1.11509
1.11527
1.11545
1.11562
1.11578
1.11593
1.11607
1.11621
1.11634
1.11646
1.11658
1.11668
1.11679
1.11688
1.11698
1.11707
1.11715
1.11723
1.11731
1.11738
1.11746
1.11753
1.11759
1.11766
1.11772
1.11779
1.11785
1.11791
1.11797
1.11803
1.11809
1.11815
1.1182
1.11826
1.11832
1.11837
1.11843
1.11848
1.11853
1.11859
1.11864
1.11869
1.11875
1.1188
1.11885
1.1189
1.11895
1.119
1.11905
1.1191
1.11914
1.11919
1.11924
1.11929
1.11933
1.11938
1.11942
1.11947
1.11951
1.11955
1.1196
1.11964
1.11968
1.11972
1.11976
1.11981
1.11985
1.11989
1.11993
1.11997
1.12001
1.12005