# vtk DataFile Version 2.0
LBE mesh
ASCII
DATASET STRUCTURED_POINTS
DIMENSIONS 400 100 1
ASPECT_RATIO 1 1 1
ORIGIN 0 0 0
POINT_DATA 40000
SCALARS rho double 1
LOOKUP_TABLE default
0.945509
0.976353
0.986017
0.989671
0.99176
0.993102
0.993954
0.994554
0.995021
0.995445
0.995833
0.996221
0.99659
0.996964
0.997317
0.997675
0.998011
0.998349
0.998663
0.998981
0.999275
0.999573
0.999848
1.00013
1.00039
1.00065
1.00089
1.00113
1.00135
1.00157
1.00176
1.00193
1.00207
1.00218
1.00225
1.00226
1.00222
1.00211
1.00194
1.0017
1.00139
1.00102
1.00061
1.00017
0.999724
0.999292
0.998897
0.998561
0.998303
0.998135
0.998067
0.998099
0.998229
0.998444
0.998729
0.999064
0.999426
0.999791
1.00014
1.00045
1.00072
1.00093
1.00109
1.0012
1.00127
1.00132
1.00137
1.00141
1.00148
1.00157
1.0017
1.00185
1.00203
1.00224
1.00246
1.00269
1.00292
1.00315
1.00337
1.00358
1.00378
1.00396
1.00414
1.00431
1.00448
1.00464
1.00481
1.00498
1.00515
1.00532
1.0055
1.00567
1.00584
1.00601
1.00616
1.0063
1.00642
1.00652
1.00659
1.00665
1.00668
1.00668
1.00666
1.00661
1.00653
1.00644
1.00632
1.00619
1.00604
1.00588
1.00571
1.00553
1.00536
1.00519
1.00503
1.00487
1.00471
1.00457
1.00442
1.00428
1.00414
1.004
1.00385
1.0037
1.00353
1.00335
1.00317
1.00298
1.00279
1.0026
1.00243
1.00228
1.00216
1.00207
1.00202
1.002
1.00202
1.00207
1.00215
1.00224
1.00235
1.00247
1.00259
1.00272
1.00285
1.003
1.00318
1.00338
1.00362
1.00392
1.00427
1.00468
1.00517
1.00572
1.00633
1.00699
1.0077
1.00843
1.00918
1.00991
1.01061
1.01128
1.01188
1.01242
1.01288
1.01328
1.0136
1.01385
1.01405
1.0142
1.01431
1.01439
1.01444
1.01448
1.0145
1.01452
1.01452
1.01453
1.01453
1.01453
1.01453
1.01454
1.01454
1.01454
1.01454
1.01454
1.01454
1.01454
1.01454
1.01454
1.01454
1.01454
1.01454
1.01454
1.01454
1.01454
1.01454
1.01454
1.01454
1.01454
1.01454
1.01454
1.01454
1.01454
1.01454
1.01454
1.01454
1.01454
1.01454
1.01454
1.01454
1.01454
1.01454
1.01454
1.01454
1.01454
1.01454
1.01454
1.01454
1.01454
1.01454
1.01454
1.01454
1.01454
1.01454
1.01454
1.01454
1.01454
1.01454
1.01454
1.01454
1.01454
1.01454
1.01454
1.01454
1.01454
1.01454
1.01454
1.01454
1.01454
1.01454
1.01454
1.01454
1.01454
1.01454
1.01454
1.01454
1.01454
1.01454
1.01454
1.01454
1.01454
1.01454
1.01454
1.01454
1.01454
1.01454
1.01454
1.01454
1.01454
1.01454
1.01454
1.01454
1.01454
1.01454
1.01454
1.01454
1.01454
1.01454
1.01454
1.01454
1.01455
1.01455
1.01456
1.01456
1.01457
1.01458
1.01459
1.0146
1.01461
1.01463
1.01464
1.01466
1.01467
1.01469
1.01471
1.01472
1.01474
1.01475
1.01477
1.01478
1.01479
1.0148
1.01481
1.01482
1.01482
1.01483
1.01483
1.01483
1.01483
1.01484
1.01484
1.01483
1.01483
1.01483
1.01483
1.01482
1.01482
1.01481
1.0148
1.01479
1.01478
1.01477
1.01475
1.01474
1.01472
1.01471
1.01469
1.01467
1.01466
1.01464
1.01463
1.01461
1.0146
1.01459
1.01458
1.01457
1.01456
1.01456
1.01455
1.01455
1.01454
1.01454
1.01454
1.01454
1.01455
1.01455
1.01457
1.01459
1.01463
1.0147
1.01479
1.01493
1.01512
1.01538
1.01572
1.01614
1.01665
1.01724
1.0179
1.01861
1.01935
1.02009
1.02081
1.0215
1.02212
1.02268
1.02317
1.0236
1.02396
1.02428
1.02456
1.02482
1.02506
1.02529
1.02551
1.02574
1.02596
1.02619
1.02643
1.02667
1.02692
1.02717
1.02743
1.02771
1.02799
1.02828
1.02858
1.0289
1.02924
1.0296
1.02998
1.03039
1.03083
1.03131
1.03185
1.03245
1.03313
1.03393
1.03486
1.03599
1.03738
1.03913
1.04136
1.04431
1.04839
1.05438
1.0631
1.07654
1.10473
0.958064
0.972117
0.981547
0.987071
0.989999
0.99173
0.992877
0.993733
0.994393
0.994964
0.995454
0.995924
0.996347
0.99677
0.997153
0.997542
0.997894
0.998254
0.998577
0.998911
0.99921
0.99952
0.999797
1.00009
1.00035
1.00061
1.00085
1.0011
1.00131
1.00153
1.00171
1.00188
1.00201
1.00211
1.00215
1.00215
1.00209
1.00197
1.00178
1.00153
1.00122
1.00086
1.00046
1.00005
0.99963
0.99923
0.99887
0.998567
0.998337
0.998193
0.998141
0.998183
0.998314
0.998524
0.998799
0.999119
0.999465
0.999814
1.00015
1.00045
1.00071
1.00092
1.00108
1.00119
1.00128
1.00134
1.00139
1.00146
1.00153
1.00163
1.00176
1.00191
1.00209
1.00229
1.00251
1.00273
1.00296
1.00318
1.00341
1.00362
1.00382
1.00402
1.00421
1.0044
1.00459
1.00477
1.00495
1.00514
1.00532
1.00551
1.00569
1.00587
1.00605
1.00621
1.00636
1.0065
1.00661
1.00671
1.00679
1.00684
1.00686
1.00686
1.00684
1.00678
1.00671
1.00661
1.0065
1.00636
1.00621
1.00605
1.00587
1.0057
1.00552
1.00534
1.00516
1.00499
1.00482
1.00466
1.00451
1.00435
1.0042
1.00405
1.00389
1.00372
1.00355
1.00337
1.00319
1.003
1.00282
1.00264
1.00247
1.00232
1.0022
1.00211
1.00206
1.00204
1.00205
1.0021
1.00217
1.00226
1.00237
1.00249
1.00262
1.00276
1.0029
1.00306
1.00324
1.00345
1.0037
1.004
1.00435
1.00476
1.00523
1.00576
1.00636
1.007
1.00768
1.00839
1.00912
1.00983
1.01052
1.01118
1.01178
1.01232
1.01279
1.01319
1.01353
1.01379
1.01401
1.01417
1.01428
1.01437
1.01443
1.01447
1.0145
1.01451
1.01453
1.01453
1.01454
1.01454
1.01454
1.01454
1.01454
1.01454
1.01454
1.01454
1.01454
1.01454
1.01454
1.01454
1.01454
1.01454
1.01454
1.01454
1.01454
1.01454
1.01454
1.01454
1.01454
1.01454
1.01454
1.01454
1.01454
1.01454
1.01454
1.01454
1.01454
1.01454
1.01454
1.01454
1.01454
1.01454
1.01454
1.01454
1.01454
1.01454
1.01454
1.01454
1.01454
1.01454
1.01454
1.01454
1.01454
1.01454
1.01454
1.01454
1.01454
1.01454
1.01454
1.01454
1.01454
1.01454
1.01454
1.01454
1.01454
1.01454
1.01454
1.01454
1.01454
1.01454
1.01454
1.01454
1.01454
1.01454
1.01454
1.01454
1.01454
1.01454
1.01454
1.01454
1.01454
1.01454
1.01454
1.01454
1.01454
1.01454
1.01454
1.01454
1.01454
1.01454
1.01454
1.01454
1.01454
1.01454
1.01454
1.01454
1.01454
1.01454
1.01455
1.01455
1.01455
1.01456
1.01456
1.01457
1.01458
1.01459
1.0146
1.01461
1.01463
1.01464
1.01466
1.01468
1.0147
1.01472
1.01474
1.01477
1.01479
1.01481
1.01482
1.01484
1.01486
1.01487
1.01488
1.01489
1.0149
1.01491
1.01492
1.01492
1.01493
1.01493
1.01493
1.01493
1.01493
1.01493
1.01492
1.01492
1.01491
1.0149
1.01489
1.01488
1.01487
1.01485
1.01484
1.01482
1.0148
1.01478
1.01476
1.01474
1.01472
1.0147
1.01468
1.01466
1.01464
1.01462
1.01461
1.0146
1.01459
1.01458
1.01457
1.01456
1.01456
1.01455
1.01455
1.01455
1.01455
1.01455
1.01456
1.01458
1.01461
1.01465
1.01473
1.01483
1.01498
1.01519
1.01547
1.01582
1.01626
1.01677
1.01736
1.01802
1.01872
1.01944
1.02016
1.02086
1.02152
1.02212
1.02267
1.02315
1.02357
1.02393
1.02425
1.02454
1.0248
1.02504
1.02528
1.02551
1.02574
1.02597
1.0262
1.02644
1.02668
1.02693
1.02719
1.02745
1.02773
1.02801
1.02831
1.02861
1.02894
1.02928
1.02964
1.03003
1.03044
1.03089
1.03139
1.03194
1.03256
1.03327
1.03409
1.03508
1.03627
1.03775
1.03961
1.04204
1.04527
1.0496
1.05555
1.06462
1.08078
1.10631
0.974456
0.97734
0.982433
0.986373
0.988998
0.990828
0.99213
0.993112
0.993889
0.994552
0.995127
0.995656
0.996134
0.996591
0.99701
0.997418
0.997793
0.998163
0.998503
0.998842
0.999154
0.999466
0.999754
1.00004
1.00031
1.00057
1.00082
1.00106
1.00127
1.00147
1.00165
1.0018
1.00191
1.00198
1.00201
1.00198
1.0019
1.00176
1.00156
1.0013
1.001
1.00065
1.00028
0.999903
0.999528
0.999177
0.998866
0.998611
0.998423
0.998313
0.998285
0.99834
0.998475
0.998679
0.99894
0.999241
0.999564
0.999889
1.0002
1.00048
1.00072
1.00092
1.00108
1.0012
1.00129
1.00136
1.00143
1.0015
1.00159
1.00169
1.00182
1.00197
1.00215
1.00234
1.00255
1.00276
1.00299
1.00322
1.00345
1.00368
1.0039
1.00413
1.00435
1.00457
1.00479
1.005
1.00522
1.00543
1.00564
1.00584
1.00604
1.00623
1.00641
1.00657
1.00672
1.00685
1.00697
1.00706
1.00713
1.00717
1.00719
1.00719
1.00716
1.00711
1.00703
1.00693
1.00681
1.00667
1.00652
1.00635
1.00617
1.00598
1.00579
1.0056
1.0054
1.00521
1.00502
1.00483
1.00465
1.00447
1.00429
1.00411
1.00394
1.00376
1.00357
1.00339
1.0032
1.00301
1.00283
1.00265
1.00249
1.00235
1.00223
1.00214
1.00208
1.00206
1.00207
1.00211
1.00218
1.00227
1.00239
1.00251
1.00265
1.0028
1.00296
1.00313
1.00333
1.00355
1.00381
1.00411
1.00446
1.00486
1.00532
1.00584
1.00641
1.00702
1.00768
1.00836
1.00905
1.00974
1.01041
1.01105
1.01165
1.01219
1.01267
1.01308
1.01343
1.01371
1.01393
1.01411
1.01424
1.01433
1.0144
1.01445
1.01448
1.0145
1.01451
1.01452
1.01453
1.01453
1.01453
1.01453
1.01453
1.01453
1.01453
1.01453
1.01453
1.01453
1.01453
1.01453
1.01453
1.01453
1.01453
1.01453
1.01453
1.01453
1.01453
1.01453
1.01453
1.01453
1.01453
1.01453
1.01453
1.01453
1.01453
1.01453
1.01453
1.01453
1.01453
1.01453
1.01453
1.01453
1.01453
1.01453
1.01453
1.01453
1.01453
1.01453
1.01453
1.01453
1.01453
1.01453
1.01453
1.01453
1.01453
1.01453
1.01453
1.01453
1.01453
1.01453
1.01453
1.01453
1.01453
1.01453
1.01453
1.01453
1.01453
1.01453
1.01453
1.01453
1.01453
1.01453
1.01453
1.01453
1.01453
1.01453
1.01453
1.01453
1.01453
1.01453
1.01453
1.01453
1.01453
1.01453
1.01453
1.01453
1.01453
1.01453
1.01453
1.01453
1.01453
1.01453
1.01453
1.01453
1.01453
1.01454
1.01454
1.01454
1.01454
1.01455
1.01455
1.01456
1.01457
1.01458
1.01459
1.01461
1.01463
1.01465
1.01467
1.0147
1.01472
1.01475
1.01478
1.01481
1.01484
1.01487
1.0149
1.01493
1.01496
1.01498
1.01501
1.01503
1.01505
1.01506
1.01507
1.01509
1.0151
1.0151
1.01511
1.01511
1.01511
1.01511
1.01511
1.01511
1.0151
1.01509
1.01508
1.01507
1.01505
1.01504
1.01502
1.01499
1.01497
1.01494
1.01492
1.01489
1.01486
1.01483
1.0148
1.01477
1.01474
1.01471
1.01468
1.01466
1.01464
1.01462
1.0146
1.01459
1.01458
1.01457
1.01456
1.01455
1.01455
1.01455
1.01455
1.01455
1.01456
1.01458
1.01461
1.01467
1.01475
1.01486
1.01503
1.01525
1.01554
1.01591
1.01635
1.01688
1.01747
1.01812
1.0188
1.01951
1.02021
1.02088
1.02152
1.0221
1.02263
1.0231
1.02351
1.02388
1.0242
1.02449
1.02476
1.02501
1.02525
1.02548
1.02572
1.02595
1.02619
1.02643
1.02667
1.02693
1.02718
1.02745
1.02773
1.02801
1.02831
1.02862
1.02894
1.02929
1.02965
1.03004
1.03045
1.03091
1.0314
1.03196
1.03258
1.03329
1.03411
1.0351
1.03629
1.03776
1.03962
1.042
1.0451
1.04927
1.05495
1.06236
1.07054
1.07801
0.98336
0.982927
0.984835
0.987109
0.989112
0.990663
0.991859
0.992824
0.993628
0.994326
0.99494
0.9955
0.99601
0.996489
0.99693
0.997352
0.997743
0.998121
0.998473
0.998816
0.999136
0.99945
0.999743
1.00003
1.0003
1.00056
1.00081
1.00104
1.00124
1.00143
1.00159
1.00172
1.00181
1.00185
1.00185
1.0018
1.00169
1.00153
1.00131
1.00106
1.00076
1.00044
1.00011
0.999779
0.999461
0.99917
0.99892
0.998721
0.998584
0.998513
0.998514
0.998585
0.998724
0.998921
0.999166
0.999445
0.99974
1.00004
1.00032
1.00057
1.00079
1.00098
1.00113
1.00125
1.00134
1.00142
1.0015
1.00158
1.00168
1.00178
1.00191
1.00206
1.00222
1.00241
1.00261
1.00283
1.00305
1.00329
1.00354
1.00379
1.00405
1.00431
1.00457
1.00483
1.00509
1.00535
1.0056
1.00584
1.00608
1.0063
1.00652
1.00672
1.0069
1.00707
1.00722
1.00735
1.00745
1.00754
1.0076
1.00764
1.00765
1.00765
1.00761
1.00756
1.00748
1.00738
1.00726
1.00712
1.00696
1.00679
1.0066
1.0064
1.00619
1.00598
1.00576
1.00554
1.00532
1.0051
1.00488
1.00466
1.00445
1.00424
1.00404
1.00383
1.00363
1.00343
1.00323
1.00304
1.00286
1.00268
1.00252
1.00238
1.00226
1.00218
1.00212
1.00209
1.0021
1.00214
1.00221
1.00231
1.00242
1.00256
1.00271
1.00288
1.00305
1.00325
1.00346
1.0037
1.00397
1.00428
1.00463
1.00503
1.00547
1.00597
1.00651
1.00709
1.00771
1.00835
1.00901
1.00967
1.01031
1.01093
1.01152
1.01206
1.01254
1.01296
1.01332
1.01362
1.01386
1.01405
1.0142
1.01431
1.01439
1.01444
1.01448
1.0145
1.01452
1.01453
1.01454
1.01454
1.01454
1.01454
1.01454
1.01454
1.01454
1.01454
1.01454
1.01454
1.01454
1.01454
1.01454
1.01454
1.01454
1.01454
1.01454
1.01454
1.01454
1.01454
1.01454
1.01454
1.01454
1.01454
1.01454
1.01454
1.01454
1.01454
1.01454
1.01454
1.01454
1.01454
1.01454
1.01454
1.01454
1.01454
1.01454
1.01454
1.01454
1.01454
1.01454
1.01454
1.01454
1.01454
1.01454
1.01454
1.01454
1.01454
1.01454
1.01454
1.01454
1.01454
1.01454
1.01454
1.01454
1.01454
1.01454
1.01454
1.01454
1.01454
1.01454
1.01454
1.01454
1.01454
1.01454
1.01454
1.01454
1.01454
1.01454
1.01454
1.01454
1.01454
1.01454
1.01454
1.01454
1.01454
1.01454
1.01454
1.01454
1.01454
1.01454
1.01454
1.01454
1.01454
1.01454
1.01455
1.01455
1.01455
1.01455
1.01456
1.01456
1.01457
1.01458
1.01459
1.01461
1.01462
1.01465
1.01467
1.0147
1.01473
1.01477
1.0148
1.01484
1.01489
1.01493
1.01498
1.01502
1.01507
1.01511
1.01515
1.01519
1.01523
1.01527
1.0153
1.01533
1.01535
1.01537
1.01539
1.0154
1.01542
1.01542
1.01543
1.01543
1.01543
1.01543
1.01542
1.01541
1.0154
1.01538
1.01536
1.01533
1.01531
1.01528
1.01524
1.0152
1.01516
1.01512
1.01508
1.01503
1.01499
1.01494
1.0149
1.01486
1.01481
1.01478
1.01474
1.01471
1.01468
1.01465
1.01463
1.01461
1.0146
1.01458
1.01457
1.01457
1.01456
1.01456
1.01457
1.01458
1.0146
1.01464
1.0147
1.01479
1.01492
1.01509
1.01533
1.01564
1.01601
1.01647
1.01699
1.01758
1.01822
1.01889
1.01957
1.02025
1.0209
1.02152
1.02209
1.0226
1.02306
1.02347
1.02384
1.02416
1.02446
1.02473
1.02498
1.02523
1.02547
1.02571
1.02594
1.02618
1.02643
1.02668
1.02693
1.02719
1.02746
1.02773
1.02802
1.02832
1.02863
1.02895
1.0293
1.02966
1.03005
1.03046
1.03091
1.0314
1.03195
1.03256
1.03326
1.03406
1.03502
1.03616
1.03757
1.03933
1.04155
1.04437
1.04792
1.05227
1.05725
1.06128
1.06098
0.98743
0.98686
0.987516
0.98865
0.989903
0.991039
0.992026
0.99288
0.993628
0.994296
0.994902
0.99546
0.995973
0.996455
0.996903
0.997327
0.997724
0.998103
0.998459
0.998803
0.999126
0.999439
0.999734
1.00002
1.00029
1.00054
1.00078
1.001
1.0012
1.00137
1.00151
1.00161
1.00167
1.00168
1.00164
1.00156
1.00142
1.00124
1.00102
1.00077
1.00049
1.0002
0.999917
0.99964
0.999385
0.999162
0.998979
0.998843
0.99876
0.998734
0.998766
0.998857
0.999001
0.999193
0.999423
0.999677
0.999944
1.00021
1.00046
1.00068
1.00088
1.00105
1.00119
1.0013
1.0014
1.00148
1.00157
1.00166
1.00176
1.00187
1.00199
1.00214
1.0023
1.00248
1.00268
1.0029
1.00313
1.00339
1.00365
1.00394
1.00423
1.00453
1.00484
1.00515
1.00545
1.00575
1.00604
1.00632
1.00659
1.00683
1.00706
1.00727
1.00746
1.00763
1.00777
1.00789
1.00799
1.00807
1.00812
1.00816
1.00817
1.00816
1.00812
1.00807
1.00799
1.00789
1.00777
1.00763
1.00747
1.0073
1.0071
1.00689
1.00667
1.00643
1.00619
1.00594
1.00568
1.00542
1.00516
1.0049
1.00465
1.0044
1.00416
1.00392
1.00369
1.00347
1.00326
1.00306
1.00287
1.0027
1.00254
1.0024
1.00229
1.0022
1.00214
1.00211
1.00212
1.00216
1.00222
1.00232
1.00245
1.0026
1.00276
1.00295
1.00315
1.00337
1.00361
1.00387
1.00415
1.00447
1.00483
1.00522
1.00564
1.00611
1.00662
1.00716
1.00773
1.00833
1.00894
1.00956
1.01017
1.01077
1.01134
1.01187
1.01236
1.01279
1.01316
1.01348
1.01374
1.01395
1.01412
1.01424
1.01434
1.0144
1.01445
1.01448
1.0145
1.01451
1.01452
1.01452
1.01453
1.01453
1.01453
1.01453
1.01453
1.01453
1.01453
1.01453
1.01453
1.01453
1.01453
1.01453
1.01453
1.01453
1.01453
1.01453
1.01453
1.01453
1.01453
1.01453
1.01453
1.01453
1.01453
1.01453
1.01453
1.01453
1.01453
1.01453
1.01453
1.01453
1.01453
1.01453
1.01453
1.01453
1.01453
1.01453
1.01453
1.01453
1.01453
1.01453
1.01453
1.01453
1.01453
1.01453
1.01453
1.01453
1.01453
1.01453
1.01453
1.01453
1.01453
1.01453
1.01453
1.01453
1.01453
1.01453
1.01453
1.01453
1.01453
1.01453
1.01453
1.01453
1.01453
1.01453
1.01453
1.01453
1.01453
1.01453
1.01453
1.01453
1.01453
1.01453
1.01453
1.01453
1.01453
1.01453
1.01453
1.01453
1.01453
1.01453
1.01453
1.01453
1.01453
1.01453
1.01454
1.01454
1.01455
1.01455
1.01456
1.01458
1.01459
1.01461
1.01463
1.01466
1.0147
1.01473
1.01478
1.01483
1.01488
1.01494
1.015
1.01506
1.01512
1.01519
1.01526
1.01532
1.01539
1.01545
1.01551
1.01557
1.01562
1.01567
1.01571
1.01575
1.01578
1.01581
1.01583
1.01585
1.01586
1.01586
1.01587
1.01587
1.01586
1.01585
1.01583
1.01581
1.01578
1.01575
1.01572
1.01567
1.01563
1.01557
1.01552
1.01546
1.0154
1.01533
1.01527
1.0152
1.01513
1.01507
1.015
1.01494
1.01489
1.01483
1.01479
1.01474
1.0147
1.01467
1.01464
1.01462
1.0146
1.01458
1.01457
1.01456
1.01456
1.01456
1.01458
1.0146
1.01464
1.01471
1.01481
1.01494
1.01513
1.01538
1.0157
1.01609
1.01654
1.01707
1.01765
1.01828
1.01893
1.0196
1.02025
1.02089
1.02149
1.02204
1.02254
1.02299
1.0234
1.02376
1.02409
1.02439
1.02467
1.02493
1.02518
1.02542
1.02567
1.02591
1.02615
1.02639
1.02664
1.0269
1.02716
1.02743
1.0277
1.02799
1.02829
1.0286
1.02892
1.02926
1.02962
1.03001
1.03042
1.03086
1.03135
1.03188
1.03247
1.03314
1.03392
1.03482
1.0359
1.0372
1.0388
1.04077
1.04318
1.04603
1.04912
1.05196
1.05378
1.05279
0.990007
0.989565
0.989699
0.990238
0.99098
0.991765
0.992521
0.993224
0.993876
0.994481
0.995046
0.995575
0.996071
0.996539
0.996978
0.997395
0.997787
0.998161
0.998515
0.998854
0.999176
0.999485
0.999778
1.00006
1.00032
1.00057
1.0008
1.001
1.00118
1.00133
1.00144
1.00152
1.00154
1.00152
1.00145
1.00134
1.00118
1.00098
1.00075
1.00051
1.00026
1.00001
0.999768
0.999552
0.999364
0.999211
0.999096
0.999024
0.998998
0.999017
0.999083
0.999195
0.999348
0.999537
0.999753
0.999986
1.00022
1.00046
1.00067
1.00087
1.00104
1.00119
1.00131
1.00142
1.00151
1.0016
1.00169
1.00178
1.00188
1.002
1.00212
1.00227
1.00243
1.00261
1.00281
1.00304
1.00329
1.00356
1.00386
1.00417
1.00451
1.00485
1.0052
1.00555
1.0059
1.00624
1.00657
1.00687
1.00716
1.00742
1.00766
1.00788
1.00806
1.00823
1.00837
1.00848
1.00857
1.00864
1.00869
1.00872
1.00872
1.00871
1.00867
1.00862
1.00855
1.00845
1.00834
1.00821
1.00805
1.00788
1.00768
1.00747
1.00723
1.00698
1.00671
1.00643
1.00614
1.00584
1.00554
1.00524
1.00494
1.00464
1.00436
1.00408
1.00382
1.00358
1.00335
1.00314
1.00294
1.00277
1.00261
1.00247
1.00236
1.00227
1.00221
1.00218
1.00218
1.00222
1.00228
1.00239
1.00252
1.00268
1.00287
1.00308
1.0033
1.00355
1.00382
1.0041
1.00441
1.00474
1.00509
1.00547
1.00588
1.00632
1.00679
1.00729
1.00781
1.00835
1.00891
1.00948
1.01005
1.01062
1.01117
1.01169
1.01218
1.01262
1.01301
1.01335
1.01363
1.01387
1.01405
1.0142
1.01431
1.01439
1.01444
1.01448
1.01451
1.01452
1.01453
1.01454
1.01454
1.01454
1.01454
1.01455
1.01455
1.01455
1.01455
1.01455
1.01455
1.01455
1.01455
1.01455
1.01455
1.01455
1.01455
1.01455
1.01455
1.01455
1.01455
1.01455
1.01455
1.01455
1.01455
1.01455
1.01455
1.01455
1.01455
1.01455
1.01455
1.01455
1.01455
1.01455
1.01455
1.01455
1.01455
1.01455
1.01455
1.01455
1.01455
1.01455
1.01455
1.01455
1.01455
1.01455
1.01455
1.01455
1.01455
1.01455
1.01455
1.01455
1.01455
1.01455
1.01455
1.01455
1.01455
1.01455
1.01455
1.01455
1.01455
1.01455
1.01455
1.01455
1.01455
1.01455
1.01455
1.01455
1.01455
1.01455
1.01455
1.01455
1.01455
1.01455
1.01455
1.01455
1.01455
1.01455
1.01455
1.01455
1.01455
1.01455
1.01455
1.01455
1.01455
1.01455
1.01456
1.01457
1.01457
1.01459
1.0146
1.01462
1.01465
1.01468
1.01471
1.01476
1.01481
1.01486
1.01493
1.015
1.01507
1.01515
1.01524
1.01533
1.01542
1.01552
1.01561
1.0157
1.0158
1.01589
1.01597
1.01605
1.01613
1.0162
1.01626
1.01631
1.01636
1.0164
1.01643
1.01646
1.01648
1.01649
1.01649
1.01649
1.01648
1.01646
1.01644
1.01641
1.01637
1.01632
1.01626
1.0162
1.01613
1.01606
1.01598
1.01589
1.0158
1.01571
1.01561
1.01552
1.01543
1.01533
1.01524
1.01516
1.01508
1.015
1.01493
1.01487
1.01481
1.01476
1.01472
1.01468
1.01465
1.01463
1.01461
1.0146
1.01459
1.01459
1.0146
1.01463
1.01468
1.01475
1.01485
1.015
1.0152
1.01546
1.01578
1.01618
1.01664
1.01716
1.01774
1.01835
1.01899
1.01964
1.02028
1.02089
1.02147
1.02201
1.0225
1.02295
1.02335
1.02372
1.02405
1.02435
1.02463
1.0249
1.02516
1.02541
1.02565
1.02589
1.02614
1.02639
1.02664
1.02689
1.02716
1.02742
1.0277
1.02799
1.02828
1.02859
1.02892
1.02926
1.02962
1.03
1.0304
1.03084
1.03131
1.03183
1.0324
1.03305
1.03378
1.03463
1.03564
1.03683
1.03825
1.03995
1.04191
1.04407
1.04621
1.04784
1.04847
1.04775
0.991926
0.991508
0.991455
0.991705
0.992132
0.992649
0.993199
0.993749
0.994288
0.994809
0.995311
0.995791
0.99625
0.996688
0.997105
0.997502
0.99788
0.998242
0.998586
0.998916
0.99923
0.999531
0.999816
1.00009
1.00034
1.00058
1.00079
1.00098
1.00114
1.00126
1.00134
1.00138
1.00137
1.00132
1.00121
1.00107
1.00089
1.00068
1.00045
1.00022
0.999996
0.999786
0.9996
0.999444
0.999323
0.999239
0.999192
0.999183
0.999211
0.999277
0.999378
0.999514
0.99968
0.999871
1.00008
1.00029
1.00051
1.00071
1.0009
1.00107
1.00122
1.00134
1.00145
1.00154
1.00163
1.00172
1.00181
1.0019
1.00201
1.00213
1.00226
1.0024
1.00257
1.00275
1.00297
1.00321
1.00348
1.00378
1.0041
1.00445
1.00482
1.00521
1.0056
1.00599
1.00637
1.00674
1.00709
1.00741
1.00771
1.00799
1.00823
1.00844
1.00862
1.00878
1.00891
1.00901
1.00909
1.00916
1.0092
1.00922
1.00922
1.00921
1.00918
1.00913
1.00906
1.00898
1.00887
1.00875
1.0086
1.00844
1.00824
1.00803
1.00779
1.00753
1.00725
1.00694
1.00662
1.00629
1.00595
1.0056
1.00526
1.00492
1.00459
1.00428
1.00398
1.00371
1.00346
1.00323
1.00302
1.00284
1.00268
1.00254
1.00243
1.00234
1.00227
1.00224
1.00223
1.00226
1.00233
1.00244
1.00258
1.00276
1.00297
1.0032
1.00346
1.00373
1.00402
1.00433
1.00466
1.005
1.00535
1.00573
1.00611
1.00652
1.00695
1.00739
1.00785
1.00833
1.00883
1.00935
1.00988
1.01041
1.01094
1.01145
1.01193
1.01238
1.01279
1.01315
1.01346
1.01372
1.01393
1.0141
1.01423
1.01433
1.01439
1.01444
1.01447
1.0145
1.01451
1.01452
1.01452
1.01452
1.01452
1.01453
1.01453
1.01453
1.01453
1.01453
1.01453
1.01453
1.01453
1.01453
1.01453
1.01453
1.01453
1.01453
1.01453
1.01453
1.01453
1.01453
1.01453
1.01453
1.01453
1.01453
1.01453
1.01453
1.01453
1.01453
1.01453
1.01453
1.01453
1.01453
1.01453
1.01453
1.01453
1.01453
1.01453
1.01453
1.01453
1.01453
1.01453
1.01453
1.01453
1.01453
1.01453
1.01453
1.01453
1.01453
1.01453
1.01453
1.01453
1.01453
1.01453
1.01453
1.01453
1.01453
1.01453
1.01453
1.01453
1.01453
1.01453
1.01453
1.01453
1.01453
1.01453
1.01453
1.01453
1.01453
1.01453
1.01453
1.01453
1.01453
1.01453
1.01453
1.01453
1.01453
1.01453
1.01453
1.01453
1.01453
1.01453
1.01453
1.01454
1.01454
1.01455
1.01456
1.01457
1.01459
1.01461
1.01464
1.01468
1.01473
1.01478
1.01484
1.01491
1.015
1.01508
1.01518
1.01529
1.0154
1.01552
1.01564
1.01577
1.0159
1.01603
1.01616
1.01628
1.0164
1.01652
1.01663
1.01674
1.01684
1.01692
1.017
1.01707
1.01713
1.01718
1.01721
1.01724
1.01726
1.01726
1.01726
1.01724
1.01721
1.01718
1.01713
1.01707
1.017
1.01692
1.01684
1.01674
1.01663
1.01652
1.0164
1.01628
1.01615
1.01603
1.0159
1.01577
1.01564
1.01552
1.0154
1.01529
1.01518
1.01509
1.015
1.01492
1.01485
1.01478
1.01473
1.01469
1.01465
1.01462
1.0146
1.01459
1.01459
1.0146
1.01463
1.01467
1.01475
1.01486
1.01502
1.01523
1.01549
1.01582
1.01622
1.01669
1.01721
1.01778
1.01838
1.019
1.01963
1.02025
1.02085
1.02141
1.02194
1.02242
1.02286
1.02326
1.02363
1.02396
1.02427
1.02456
1.02483
1.02509
1.02534
1.02559
1.02584
1.02609
1.02634
1.02659
1.02684
1.02711
1.02738
1.02765
1.02794
1.02823
1.02854
1.02886
1.0292
1.02956
1.02993
1.03033
1.03076
1.03122
1.03173
1.03228
1.03289
1.03359
1.03438
1.0353
1.03637
1.03761
1.03903
1.04059
1.04218
1.0436
1.04455
1.04469
1.04403
0.993397
0.992994
0.992864
0.992959
0.993205
0.993549
0.993948
0.994375
0.994814
0.995254
0.99569
0.996117
0.996533
0.996935
0.997323
0.997696
0.998054
0.998399
0.998729
0.999046
0.999349
0.999639
0.999914
1.00017
1.00042
1.00064
1.00083
1.001
1.00113
1.00123
1.00128
1.00128
1.00123
1.00114
1.00101
1.00084
1.00064
1.00042
1.00021
0.999993
0.999799
0.999632
0.999498
0.999402
0.999345
0.999325
0.999341
0.999391
0.999473
0.999584
0.999722
0.999884
1.00007
1.00027
1.00047
1.00068
1.00087
1.00106
1.00122
1.00136
1.00148
1.00159
1.00168
1.00176
1.00184
1.00192
1.00201
1.00211
1.00222
1.00234
1.00247
1.00263
1.0028
1.003
1.00323
1.00349
1.00379
1.00411
1.00447
1.00485
1.00525
1.00566
1.00607
1.00649
1.00689
1.00727
1.00764
1.00797
1.00827
1.00854
1.00878
1.00898
1.00915
1.0093
1.00942
1.00951
1.00958
1.00963
1.00967
1.00969
1.00969
1.00968
1.00965
1.00961
1.00955
1.00948
1.00939
1.00928
1.00915
1.00899
1.00881
1.00861
1.00837
1.00811
1.00782
1.0075
1.00717
1.00681
1.00644
1.00605
1.00567
1.00529
1.00493
1.00458
1.00425
1.00394
1.00367
1.00342
1.0032
1.00301
1.00284
1.0027
1.00258
1.00248
1.00241
1.00237
1.00236
1.00239
1.00246
1.00257
1.00273
1.00292
1.00314
1.0034
1.00368
1.00399
1.00431
1.00464
1.00498
1.00533
1.00568
1.00604
1.0064
1.00677
1.00715
1.00754
1.00795
1.00837
1.00881
1.00927
1.00974
1.01023
1.01073
1.01123
1.01171
1.01216
1.01259
1.01297
1.01331
1.0136
1.01384
1.01403
1.01418
1.01429
1.01438
1.01444
1.01448
1.01451
1.01452
1.01453
1.01454
1.01454
1.01455
1.01455
1.01455
1.01455
1.01455
1.01455
1.01455
1.01455
1.01455
1.01455
1.01455
1.01455
1.01455
1.01455
1.01455
1.01455
1.01455
1.01455
1.01455
1.01455
1.01455
1.01455
1.01455
1.01455
1.01455
1.01455
1.01455
1.01455
1.01455
1.01455
1.01455
1.01455
1.01455
1.01455
1.01455
1.01455
1.01455
1.01455
1.01455
1.01455
1.01455
1.01455
1.01455
1.01455
1.01455
1.01455
1.01455
1.01455
1.01455
1.01455
1.01455
1.01455
1.01455
1.01455
1.01455
1.01455
1.01455
1.01455
1.01455
1.01455
1.01455
1.01455
1.01455
1.01455
1.01455
1.01455
1.01455
1.01455
1.01455
1.01455
1.01455
1.01455
1.01455
1.01455
1.01455
1.01455
1.01455
1.01455
1.01455
1.01456
1.01456
1.01457
1.01458
1.0146
1.01462
1.01465
1.01468
1.01473
1.01478
1.01484
1.01492
1.01501
1.0151
1.01521
1.01534
1.01547
1.01561
1.01576
1.01591
1.01607
1.01624
1.01641
1.01658
1.01675
1.01691
1.01707
1.01723
1.01738
1.01752
1.01765
1.01776
1.01787
1.01796
1.01804
1.01811
1.01816
1.0182
1.01822
1.01823
1.01822
1.0182
1.01816
1.01811
1.01805
1.01796
1.01787
1.01776
1.01764
1.01751
1.01737
1.01722
1.01707
1.0169
1.01674
1.01657
1.0164
1.01623
1.01607
1.01591
1.01575
1.0156
1.01546
1.01533
1.01521
1.0151
1.01501
1.01492
1.01485
1.01478
1.01473
1.01469
1.01466
1.01464
1.01463
1.01464
1.01466
1.01471
1.01479
1.01491
1.01507
1.01528
1.01556
1.0159
1.0163
1.01676
1.01728
1.01784
1.01843
1.01904
1.01965
1.02026
1.02084
1.02139
1.0219
1.02238
1.02282
1.02322
1.02358
1.02392
1.02423
1.02452
1.0248
1.02506
1.02532
1.02557
1.02582
1.02607
1.02632
1.02658
1.02683
1.0271
1.02737
1.02764
1.02793
1.02822
1.02853
1.02885
1.02918
1.02954
1.02991
1.0303
1.03072
1.03117
1.03166
1.0322
1.03279
1.03345
1.03419
1.03502
1.03598
1.03704
1.03821
1.03943
1.04058
1.04151
1.04202
1.04194
1.04123
0.99453
0.994175
0.994026
0.99404
0.994179
0.994407
0.994695
0.995021
0.995371
0.995735
0.996105
0.996476
0.996843
0.997205
0.997558
0.997902
0.998236
0.998558
0.99887
0.99917
0.999458
0.999734
0.999995
1.00024
1.00047
1.00067
1.00084
1.00098
1.00109
1.00115
1.00116
1.00113
1.00105
1.00092
1.00076
1.00057
1.00036
1.00014
0.99993
0.99974
0.999579
0.999455
0.999372
0.999331
0.999333
0.999372
0.999447
0.999551
0.999683
0.999838
1.00001
1.00021
1.00041
1.00062
1.00084
1.00104
1.00123
1.0014
1.00154
1.00167
1.00177
1.00185
1.00192
1.00199
1.00206
1.00214
1.00222
1.00232
1.00243
1.00256
1.0027
1.00287
1.00306
1.00328
1.00353
1.00382
1.00414
1.00449
1.00487
1.00527
1.00569
1.00612
1.00655
1.00697
1.00737
1.00776
1.00811
1.00844
1.00873
1.00899
1.00921
1.0094
1.00956
1.00969
1.0098
1.00988
1.00994
1.00999
1.01002
1.01004
1.01004
1.01003
1.01001
1.00998
1.00993
1.00987
1.00979
1.0097
1.00959
1.00945
1.00928
1.00909
1.00887
1.00862
1.00833
1.00802
1.00767
1.0073
1.00691
1.00651
1.0061
1.00569
1.00529
1.00491
1.00455
1.00422
1.00392
1.00365
1.00341
1.0032
1.00302
1.00286
1.00273
1.00263
1.00256
1.00251
1.0025
1.00253
1.0026
1.00271
1.00287
1.00308
1.00332
1.0036
1.00391
1.00424
1.00458
1.00492
1.00527
1.00562
1.00597
1.00631
1.00665
1.00698
1.00731
1.00765
1.00799
1.00835
1.00873
1.00913
1.00955
1.01
1.01047
1.01094
1.01142
1.01188
1.01232
1.01272
1.01309
1.0134
1.01367
1.01389
1.01407
1.01421
1.01431
1.01438
1.01443
1.01447
1.01449
1.01451
1.01451
1.01452
1.01452
1.01452
1.01452
1.01452
1.01452
1.01452
1.01452
1.01452
1.01452
1.01452
1.01452
1.01452
1.01452
1.01452
1.01452
1.01452
1.01452
1.01452
1.01452
1.01452
1.01452
1.01452
1.01452
1.01452
1.01452
1.01452
1.01452
1.01452
1.01452
1.01452
1.01452
1.01452
1.01452
1.01452
1.01452
1.01452
1.01452
1.01452
1.01452
1.01452
1.01452
1.01452
1.01452
1.01452
1.01452
1.01452
1.01452
1.01452
1.01452
1.01452
1.01452
1.01452
1.01452
1.01452
1.01452
1.01452
1.01452
1.01452
1.01452
1.01452
1.01452
1.01452
1.01452
1.01452
1.01452
1.01452
1.01452
1.01452
1.01452
1.01452
1.01452
1.01452
1.01452
1.01453
1.01453
1.01453
1.01453
1.01453
1.01453
1.01454
1.01455
1.01456
1.01458
1.0146
1.01463
1.01467
1.01472
1.01478
1.01486
1.01495
1.01505
1.01516
1.01529
1.01544
1.01559
1.01576
1.01594
1.01613
1.01633
1.01654
1.01674
1.01696
1.01717
1.01738
1.01759
1.01779
1.01799
1.01818
1.01836
1.01853
1.01868
1.01882
1.01894
1.01905
1.01914
1.01921
1.01926
1.01929
1.0193
1.01929
1.01926
1.01921
1.01914
1.01905
1.01894
1.01882
1.01868
1.01852
1.01835
1.01817
1.01798
1.01778
1.01758
1.01737
1.01716
1.01695
1.01673
1.01653
1.01632
1.01613
1.01594
1.01576
1.01559
1.01543
1.01529
1.01516
1.01505
1.01495
1.01486
1.01479
1.01473
1.01468
1.01465
1.01464
1.01464
1.01466
1.01471
1.01479
1.01491
1.01507
1.01529
1.01557
1.01591
1.01631
1.01677
1.01729
1.01784
1.01842
1.01902
1.01962
1.02021
1.02078
1.02131
1.02182
1.02229
1.02272
1.02312
1.02349
1.02382
1.02414
1.02443
1.02471
1.02498
1.02524
1.0255
1.02575
1.026
1.02625
1.02651
1.02677
1.02703
1.0273
1.02758
1.02786
1.02816
1.02846
1.02878
1.02911
1.02946
1.02982
1.03021
1.03062
1.03106
1.03153
1.03205
1.03261
1.03322
1.0339
1.03466
1.03549
1.03639
1.03733
1.03826
1.03908
1.03967
1.03993
1.03976
1.03912
0.995452
0.995149
0.994991
0.994963
0.99504
0.995195
0.995408
0.995662
0.995945
0.996248
0.996563
0.996885
0.99721
0.997534
0.997854
0.99817
0.998478
0.998779
0.999071
0.999354
0.999626
0.999885
1.00013
1.00036
1.00057
1.00075
1.0009
1.00101
1.00108
1.00111
1.00109
1.00102
1.0009
1.00075
1.00056
1.00035
1.00013
0.99992
0.999726
0.999561
0.999435
0.999353
0.999318
0.999329
0.999383
0.999475
0.999601
0.999755
0.999933
1.00013
1.00035
1.00057
1.0008
1.00104
1.00126
1.00147
1.00166
1.00183
1.00196
1.00207
1.00216
1.00223
1.00229
1.00234
1.0024
1.00247
1.00255
1.00265
1.00276
1.0029
1.00305
1.00324
1.00345
1.00369
1.00397
1.00428
1.00462
1.00499
1.00538
1.0058
1.00622
1.00665
1.00707
1.00748
1.00788
1.00824
1.00858
1.00888
1.00915
1.00939
1.00959
1.00976
1.00991
1.01002
1.01012
1.01019
1.01024
1.01028
1.01031
1.01033
1.01033
1.01033
1.01031
1.01029
1.01025
1.01021
1.01014
1.01007
1.00997
1.00985
1.00971
1.00954
1.00934
1.0091
1.00883
1.00853
1.00819
1.00783
1.00744
1.00703
1.00661
1.00619