# vtk DataFile Version 2.0
LBE mesh
ASCII
DATASET STRUCTURED_POINTS
DIMENSIONS 400 100 1
ASPECT_RATIO 1 1 1
ORIGIN 0 0 0
POINT_DATA 40000
SCALARS rho double 1
LOOKUP_TABLE default
1.02335
1.07465
1.0901
1.0942
1.09641
1.09809
1.09925
1.10003
1.10057
1.10097
1.10128
1.10152
1.10172
1.10188
1.10201
1.10212
1.10221
1.10229
1.10236
1.10241
1.10246
1.1025
1.10254
1.10257
1.1026
1.10262
1.10264
1.10265
1.10266
1.10267
1.10268
1.10269
1.10269
1.10269
1.10269
1.10269
1.10269
1.10269
1.10269
1.10269
1.10268
1.10268
1.10268
1.10268
1.10267
1.10267
1.10268
1.10268
1.10268
1.10269
1.1027
1.10271
1.10273
1.10275
1.10277
1.1028
1.10284
1.10288
1.10292
1.10297
1.10303
1.10309
1.10316
1.10324
1.10332
1.10342
1.10352
1.10363
1.10374
1.10387
1.104
1.10414
1.10429
1.10445
1.10461
1.10479
1.10497
1.10516
1.10535
1.10556
1.10577
1.10599
1.10621
1.10644
1.10668
1.10692
1.10717
1.10742
1.10768
1.10794
1.1082
1.10846
1.10873
1.10899
1.10926
1.10953
1.10979
1.11006
1.11032
1.11058
1.11084
1.1111
1.11134
1.11159
1.11183
1.11206
1.11229
1.11251
1.11273
1.11294
1.11314
1.11333
1.11352
1.11369
1.11386
1.11402
1.11417
1.11431
1.11444
1.11457
1.11468
1.11479
1.11489
1.11498
1.11506
1.11514
1.11521
1.11528
1.11533
1.11539
1.11544
1.11548
1.11552
1.11556
1.11559
1.11562
1.11564
1.11567
1.11569
1.11571
1.11574
1.11575
1.11577
1.11579
1.11581
1.11582
1.11584
1.11586
1.11587
1.11589
1.11591
1.11593
1.11594
1.11596
1.11598
1.116
1.11602
1.11605
1.11607
1.11609
1.11612
1.11614
1.11617
1.1162
1.11623
1.11626
1.11629
1.11632
1.11636
1.11639
1.11643
1.11646
1.1165
1.11654
1.11658
1.11662
1.11666
1.1167
1.11674
1.11679
1.11683
1.11687
1.11692
1.11696
1.117
1.11704
1.11708
1.11713
1.11717
1.11721
1.11724
1.11728
1.11732
1.11735
1.11739
1.11742
1.11746
1.11749
1.11752
1.11755
1.11758
1.1176
1.11763
1.11766
1.11768
1.11771
1.11773
1.11776
1.11778
1.11781
1.11784
1.11786
1.11789
1.11792
1.11795
1.11798
1.11802
1.11806
1.1181
1.11814
1.11818
1.11823
1.11829
1.11834
1.1184
1.11847
1.11854
1.11862
1.1187
1.11879
1.11888
1.11898
1.11908
1.1192
1.11931
1.11944
1.11957
1.11971
1.11986
1.12002
1.12018
1.12035
1.12053
1.12072
1.12092
1.12112
1.12134
1.12156
1.12179
1.12203
1.12228
1.12254
1.1228
1.12308
1.12336
1.12365
1.12396
1.12426
1.12458
1.12491
1.12524
1.12559
1.12594
1.12629
1.12666
1.12703
1.12741
1.12779
1.12818
1.12858
1.12897
1.12938
1.12978
1.13019
1.1306
1.131
1.13141
1.13182
1.13222
1.13262
1.13302
1.13341
1.1338
1.13418
1.13456
1.13492
1.13528
1.13563
1.13597
1.13629
1.13661
1.13692
1.13722
1.1375
1.13778
1.13804
1.1383
1.13854
1.13877
1.13899
1.1392
1.1394
1.13959
1.13977
1.13994
1.14011
1.14026
1.1404
1.14053
1.14066
1.14077
1.14088
1.14098
1.14107
1.14116
1.14123
1.1413
1.14136
1.14142
1.14147
1.14151
1.14154
1.14157
1.1416
1.14161
1.14163
1.14164
1.14164
1.14164
1.14164
1.14163
1.14162
1.14161
1.1416
1.14158
1.14157
1.14156
1.14155
1.14154
1.14153
1.14152
1.14152
1.14153
1.14154
1.14155
1.14157
1.1416
1.14164
1.14169
1.14175
1.14183
1.14191
1.14201
1.14212
1.14225
1.1424
1.14256
1.14274
1.14295
1.14318
1.14343
1.1437
1.144
1.14433
1.14469
1.14507
1.14549
1.14594
1.14643
1.14695
1.1475
1.1481
1.14874
1.14941
1.15013
1.1509
1.15171
1.15257
1.15349
1.15446
1.15549
1.15658
1.15774
1.15898
1.1603
1.16171
1.16324
1.16489
1.1667
1.16869
1.1709
1.17341
1.17629
1.17969
1.18379
1.18908
1.19651
1.20699
1.22135
1.24836
1.06007
1.07198
1.08257
1.09018
1.09422
1.09644
1.09787
1.09889
1.09964
1.10021
1.10063
1.10097
1.10124
1.10146
1.10164
1.10179
1.10192
1.10203
1.10212
1.10219
1.10226
1.10232
1.10237
1.10241
1.10245
1.10248
1.10251
1.10253
1.10255
1.10257
1.10258
1.10259
1.1026
1.10261
1.10261
1.10262
1.10262
1.10262
1.10262
1.10262
1.10262
1.10262
1.10262
1.10262
1.10262
1.10262
1.10263
1.10263
1.10264
1.10265
1.10266
1.10268
1.10269
1.10272
1.10274
1.10277
1.10281
1.10285
1.1029
1.10295
1.10301
1.10307
1.10315
1.10322
1.10331
1.10341
1.10351
1.10362
1.10374
1.10386
1.104
1.10414
1.10429
1.10445
1.10462
1.10479
1.10497
1.10516
1.10536
1.10557
1.10578
1.106
1.10622
1.10646
1.10669
1.10694
1.10718
1.10743
1.10769
1.10795
1.10821
1.10847
1.10874
1.10901
1.10927
1.10954
1.10981
1.11007
1.11033
1.11059
1.11085
1.1111
1.11135
1.11159
1.11183
1.11207
1.11229
1.11251
1.11273
1.11294
1.11313
1.11333
1.11351
1.11368
1.11385
1.11401
1.11416
1.1143
1.11443
1.11455
1.11467
1.11477
1.11487
1.11496
1.11505
1.11512
1.11519
1.11526
1.11532
1.11537
1.11542
1.11546
1.1155
1.11554
1.11557
1.1156
1.11563
1.11565
1.11568
1.1157
1.11572
1.11574
1.11576
1.11578
1.11579
1.11581
1.11583
1.11585
1.11586
1.11588
1.1159
1.11592
1.11594
1.11596
1.11598
1.116
1.11602
1.11604
1.11606
1.11609
1.11611
1.11614
1.11617
1.1162
1.11623
1.11626
1.11629
1.11632
1.11636
1.11639
1.11643
1.11647
1.1165
1.11654
1.11658
1.11662
1.11667
1.11671
1.11675
1.11679
1.11684
1.11688
1.11692
1.11697
1.11701
1.11705
1.11709
1.11713
1.11717
1.11721
1.11725
1.11729
1.11733
1.11736
1.1174
1.11743
1.11746
1.1175
1.11753
1.11756
1.11758
1.11761
1.11764
1.11766
1.11769
1.11772
1.11774
1.11777
1.11779
1.11782
1.11784
1.11787
1.1179
1.11793
1.11796
1.11799
1.11803
1.11807
1.11811
1.11815
1.1182
1.11825
1.1183
1.11836
1.11842
1.11849
1.11856
1.11863
1.11872
1.1188
1.1189
1.119
1.1191
1.11922
1.11933
1.11946
1.1196
1.11974
1.11989
1.12004
1.12021
1.12038
1.12056
1.12075
1.12095
1.12115
1.12137
1.12159
1.12182
1.12206
1.12231
1.12257
1.12283
1.12311
1.12339
1.12368
1.12399
1.1243
1.12461
1.12494
1.12527
1.12562
1.12597
1.12633
1.12669
1.12706
1.12744
1.12782
1.12821
1.1286
1.129
1.1294
1.12981
1.13021
1.13062
1.13103
1.13143
1.13184
1.13224
1.13264
1.13304
1.13343
1.13381
1.13419
1.13456
1.13493
1.13528
1.13563
1.13596
1.13629
1.13661
1.13691
1.13721
1.13749
1.13777
1.13803
1.13828
1.13853
1.13876
1.13898
1.13919
1.13939
1.13958
1.13976
1.13993
1.14009
1.14024
1.14038
1.14051
1.14064
1.14076
1.14086
1.14096
1.14106
1.14114
1.14122
1.14129
1.14135
1.1414
1.14145
1.14149
1.14153
1.14156
1.14158
1.1416
1.14161
1.14162
1.14163
1.14163
1.14162
1.14162
1.14161
1.1416
1.14159
1.14157
1.14156
1.14155
1.14154
1.14153
1.14152
1.14152
1.14152
1.14152
1.14153
1.14155
1.14158
1.14161
1.14165
1.1417
1.14176
1.14184
1.14192
1.14202
1.14214
1.14227
1.14242
1.14259
1.14278
1.14298
1.14321
1.14347
1.14375
1.14405
1.14438
1.14474
1.14514
1.14556
1.14601
1.1465
1.14703
1.14759
1.1482
1.14884
1.14952
1.15025
1.15102
1.15184
1.15271
1.15364
1.15461
1.15565
1.15676
1.15793
1.15919
1.16053
1.16197
1.16353
1.16522
1.16707
1.16912
1.17142
1.17403
1.17706
1.18068
1.18512
1.19072
1.19793
1.20834
1.22684
1.25666
1.07785
1.07847
1.08459
1.08958
1.09284
1.09517
1.09683
1.09802
1.09889
1.09955
1.10007
1.10048
1.10081
1.10108
1.1013
1.10149
1.10164
1.10178
1.10189
1.10199
1.10207
1.10214
1.1022
1.10226
1.10231
1.10235
1.10238
1.10241
1.10244
1.10246
1.10248
1.1025
1.10251
1.10252
1.10253
1.10254
1.10254
1.10255
1.10255
1.10256
1.10256
1.10256
1.10256
1.10257
1.10257
1.10257
1.10258
1.10258
1.10259
1.1026
1.10262
1.10264
1.10265
1.10268
1.10271
1.10274
1.10278
1.10282
1.10287
1.10292
1.10298
1.10305
1.10312
1.1032
1.10329
1.10339
1.10349
1.1036
1.10372
1.10385
1.10399
1.10413
1.10428
1.10444
1.10461
1.10479
1.10497
1.10516
1.10536
1.10557
1.10578
1.106
1.10623
1.10646
1.1067
1.10694
1.10719
1.10744
1.1077
1.10796
1.10822
1.10848
1.10875
1.10902
1.10928
1.10955
1.10982
1.11008
1.11034
1.1106
1.11086
1.11111
1.11136
1.1116
1.11184
1.11207
1.1123
1.11252
1.11273
1.11294
1.11314
1.11333
1.11351
1.11369
1.11385
1.11401
1.11416
1.1143
1.11443
1.11455
1.11466
1.11477
1.11487
1.11496
1.11504
1.11511
1.11518
1.11525
1.11531
1.11536
1.11541
1.11545
1.11549
1.11553
1.11556
1.11559
1.11562
1.11564
1.11567
1.11569
1.11571
1.11573
1.11575
1.11577
1.11579
1.11581
1.11582
1.11584
1.11586
1.11588
1.1159
1.11592
1.11594
1.11596
1.11598
1.116
1.11602
1.11604
1.11607
1.11609
1.11612
1.11615
1.11618
1.1162
1.11624
1.11627
1.1163
1.11633
1.11637
1.1164
1.11644
1.11648
1.11652
1.11656
1.1166
1.11664
1.11668
1.11672
1.11677
1.11681
1.11685
1.1169
1.11694
1.11698
1.11703
1.11707
1.11711
1.11715
1.11719
1.11723
1.11727
1.11731
1.11735
1.11738
1.11742
1.11745
1.11748
1.11751
1.11754
1.11757
1.1176
1.11763
1.11766
1.11768
1.11771
1.11774
1.11776
1.11779
1.11781
1.11784
1.11787
1.11789
1.11792
1.11795
1.11798
1.11802
1.11805
1.11809
1.11813
1.11817
1.11822
1.11827
1.11832
1.11838
1.11844
1.11851
1.11858
1.11866
1.11874
1.11883
1.11892
1.11902
1.11913
1.11924
1.11936
1.11949
1.11962
1.11976
1.11991
1.12007
1.12023
1.12041
1.12059
1.12078
1.12097
1.12118
1.12139
1.12162
1.12185
1.12209
1.12234
1.1226
1.12286
1.12314
1.12342
1.12371
1.12401
1.12432
1.12464
1.12497
1.1253
1.12565
1.126
1.12635
1.12672
1.12709
1.12747
1.12785
1.12824
1.12863
1.12903
1.12943
1.12983
1.13024
1.13065
1.13105
1.13146
1.13186
1.13226
1.13266
1.13306
1.13345
1.13383
1.13421
1.13458
1.13494
1.13529
1.13564
1.13597
1.1363
1.13661
1.13692
1.13721
1.13749
1.13777
1.13803
1.13828
1.13852
1.13875
1.13897
1.13918
1.13938
1.13957
1.13975
1.13992
1.14008
1.14023
1.14037
1.1405
1.14063
1.14074
1.14085
1.14095
1.14104
1.14113
1.1412
1.14127
1.14134
1.14139
1.14144
1.14148
1.14152
1.14155
1.14157
1.14159
1.1416
1.14161
1.14162
1.14162
1.14162
1.14161
1.1416
1.14159
1.14158
1.14157
1.14155
1.14154
1.14153
1.14152
1.14152
1.14151
1.14151
1.14152
1.14153
1.14155
1.14157
1.1416
1.14165
1.1417
1.14176
1.14184
1.14192
1.14203
1.14214
1.14228
1.14243
1.1426
1.14279
1.143
1.14323
1.14349
1.14377
1.14407
1.14441
1.14477
1.14517
1.14559
1.14605
1.14655
1.14708
1.14765
1.14825
1.1489
1.14959
1.15032
1.1511
1.15192
1.1528
1.15373
1.15471
1.15576
1.15687
1.15805
1.15931
1.16066
1.16211
1.16368
1.16538
1.16725
1.16931
1.17162
1.17425
1.17728
1.18084
1.18513
1.1905
1.19744
1.20611
1.2155
1.22492
1.0862
1.08554
1.08766
1.09022
1.09277
1.09479
1.0963
1.09746
1.09836
1.09906
1.09962
1.10008
1.10044
1.10075
1.101
1.10122
1.1014
1.10155
1.10168
1.10179
1.10189
1.10198
1.10205
1.10212
1.10217
1.10222
1.10226
1.1023
1.10233
1.10236
1.10238
1.10241
1.10242
1.10244
1.10245
1.10246
1.10247
1.10248
1.10249
1.10249
1.1025
1.1025
1.1025
1.10251
1.10251
1.10252
1.10253
1.10254
1.10255
1.10256
1.10257
1.10259
1.10261
1.10264
1.10267
1.1027
1.10274
1.10278
1.10283
1.10289
1.10295
1.10302
1.10309
1.10318
1.10327
1.10336
1.10347
1.10358
1.1037
1.10383
1.10397
1.10411
1.10427
1.10443
1.1046
1.10478
1.10496
1.10515
1.10535
1.10556
1.10578
1.106
1.10623
1.10646
1.1067
1.10694
1.10719
1.10745
1.1077
1.10796
1.10823
1.10849
1.10876
1.10903
1.10929
1.10956
1.10983
1.11009
1.11035
1.11061
1.11087
1.11112
1.11137
1.11162
1.11185
1.11209
1.11231
1.11253
1.11275
1.11295
1.11315
1.11334
1.11352
1.1137
1.11386
1.11402
1.11417
1.1143
1.11443
1.11456
1.11467
1.11477
1.11487
1.11496
1.11504
1.11512
1.11518
1.11525
1.1153
1.11536
1.1154
1.11545
1.11549
1.11552
1.11556
1.11559
1.11561
1.11564
1.11567
1.11569
1.11571
1.11573
1.11575
1.11577
1.11579
1.11581
1.11583
1.11585
1.11586
1.11588
1.1159
1.11592
1.11594
1.11596
1.11599
1.11601
1.11603
1.11606
1.11608
1.11611
1.11613
1.11616
1.11619
1.11622
1.11625
1.11628
1.11632
1.11635
1.11639
1.11642
1.11646
1.1165
1.11654
1.11658
1.11662
1.11666
1.11671
1.11675
1.11679
1.11684
1.11688
1.11692
1.11697
1.11701
1.11705
1.1171
1.11714
1.11718
1.11722
1.11726
1.1173
1.11734
1.11738
1.11741
1.11745
1.11748
1.11751
1.11755
1.11758
1.11761
1.11763
1.11766
1.11769
1.11772
1.11774
1.11777
1.11779
1.11782
1.11785
1.11787
1.1179
1.11793
1.11796
1.11799
1.11802
1.11805
1.11809
1.11813
1.11817
1.11821
1.11826
1.11831
1.11836
1.11842
1.11848
1.11855
1.11862
1.1187
1.11878
1.11887
1.11896
1.11906
1.11916
1.11928
1.1194
1.11952
1.11966
1.1198
1.11995
1.1201
1.12027
1.12044
1.12062
1.12081
1.12101
1.12121
1.12142
1.12165
1.12188
1.12212
1.12237
1.12262
1.12289
1.12316
1.12345
1.12374
1.12404
1.12435
1.12467
1.12499
1.12533
1.12567
1.12602
1.12638
1.12674
1.12712
1.12749
1.12788
1.12827
1.12866
1.12906
1.12946
1.12986
1.13027
1.13067
1.13108
1.13148
1.13189
1.13229
1.13269
1.13308
1.13347
1.13385
1.13423
1.1346
1.13496
1.13531
1.13565
1.13599
1.13631
1.13663
1.13693
1.13722
1.1375
1.13777
1.13803
1.13828
1.13852
1.13875
1.13897
1.13918
1.13937
1.13956
1.13974
1.13991
1.14007
1.14022
1.14036
1.1405
1.14062
1.14074
1.14084
1.14094
1.14104
1.14112
1.1412
1.14127
1.14133
1.14139
1.14143
1.14148
1.14151
1.14154
1.14157
1.14159
1.1416
1.14161
1.14161
1.14161
1.14161
1.1416
1.1416
1.14158
1.14157
1.14156
1.14155
1.14153
1.14152
1.14151
1.14151
1.1415
1.1415
1.14151
1.14152
1.14154
1.14156
1.14159
1.14164
1.14169
1.14175
1.14183
1.14191
1.14202
1.14213
1.14227
1.14242
1.14259
1.14278
1.14299
1.14322
1.14348
1.14376
1.14407
1.14441
1.14478
1.14517
1.1456
1.14606
1.14656
1.14709
1.14766
1.14827
1.14892
1.14961
1.15035
1.15113
1.15195
1.15283
1.15376
1.15475
1.1558
1.15691
1.15809
1.15935
1.16069
1.16214
1.1637
1.16538
1.16723
1.16926
1.17152
1.17407
1.17697
1.18033
1.18426
1.18885
1.19417
1.2001
1.20493
1.20515
1.09027
1.08978
1.09045
1.09183
1.09346
1.09493
1.09618
1.09722
1.09806
1.09875
1.09931
1.09977
1.10016
1.10048
1.10075
1.10099
1.10118
1.10135
1.1015
1.10162
1.10173
1.10183
1.10191
1.10198
1.10205
1.1021
1.10215
1.1022
1.10223
1.10227
1.1023
1.10232
1.10234
1.10236
1.10238
1.10239
1.1024
1.10241
1.10242
1.10243
1.10243
1.10244
1.10245
1.10245
1.10246
1.10247
1.10248
1.10249
1.1025
1.10251
1.10253
1.10255
1.10257
1.1026
1.10263
1.10266
1.1027
1.10275
1.1028
1.10285
1.10291
1.10298
1.10306
1.10314
1.10323
1.10333
1.10344
1.10355
1.10367
1.10381
1.10394
1.10409
1.10424
1.10441
1.10458
1.10476
1.10494
1.10514
1.10534
1.10555
1.10576
1.10599
1.10622
1.10645
1.10669
1.10694
1.10719
1.10744
1.1077
1.10796
1.10823
1.1085
1.10876
1.10903
1.1093
1.10957
1.10984
1.1101
1.11037
1.11063
1.11089
1.11114
1.11139
1.11163
1.11187
1.11211
1.11233
1.11255
1.11277
1.11297
1.11317
1.11336
1.11354
1.11372
1.11388
1.11404
1.11418
1.11432
1.11445
1.11457
1.11468
1.11479
1.11488
1.11497
1.11505
1.11513
1.11519
1.11526
1.11531
1.11536
1.11541
1.11545
1.11549
1.11553
1.11556
1.11559
1.11562
1.11565
1.11567
1.11569
1.11572
1.11574
1.11576
1.11578
1.1158
1.11582
1.11583
1.11585
1.11587
1.11589
1.11591
1.11593
1.11596
1.11598
1.116
1.11602
1.11605
1.11607
1.1161
1.11613
1.11615
1.11618
1.11621
1.11624
1.11628
1.11631
1.11634
1.11638
1.11642
1.11645
1.11649
1.11653
1.11657
1.11661
1.11666
1.1167
1.11674
1.11678
1.11683
1.11687
1.11692
1.11696
1.117
1.11705
1.11709
1.11714
1.11718
1.11722
1.11726
1.1173
1.11734
1.11738
1.11742
1.11745
1.11749
1.11752
1.11756
1.11759
1.11762
1.11765
1.11768
1.11771
1.11773
1.11776
1.11779
1.11781
1.11784
1.11786
1.11789
1.11792
1.11794
1.11797
1.118
1.11803
1.11806
1.1181
1.11813
1.11817
1.11821
1.11825
1.1183
1.11835
1.11841
1.11846
1.11853
1.11859
1.11866
1.11874
1.11882
1.11891
1.119
1.1191
1.11921
1.11932
1.11944
1.11956
1.1197
1.11984
1.11999
1.12014
1.1203
1.12048
1.12066
1.12084
1.12104
1.12124
1.12146
1.12168
1.12191
1.12215
1.12239
1.12265
1.12292
1.12319
1.12347
1.12376
1.12406
1.12437
1.12469
1.12502
1.12535
1.12569
1.12604
1.1264
1.12677
1.12714
1.12752
1.1279
1.12829
1.12868
1.12908
1.12948
1.12989
1.13029
1.1307
1.13111
1.13151
1.13192
1.13232
1.13272
1.13311
1.1335
1.13388
1.13426
1.13463
1.13499
1.13534
1.13568
1.13601
1.13634
1.13665
1.13695
1.13724
1.13752
1.13779
1.13805
1.1383
1.13853
1.13876
1.13898
1.13918
1.13938
1.13957
1.13974
1.13991
1.14007
1.14022
1.14036
1.14049
1.14062
1.14073
1.14084
1.14094
1.14103
1.14112
1.1412
1.14127
1.14133
1.14138
1.14143
1.14148
1.14151
1.14154
1.14157
1.14158
1.1416
1.14161
1.14161
1.14161
1.14161
1.1416
1.14159
1.14158
1.14157
1.14156
1.14154
1.14153
1.14152
1.14151
1.1415
1.14149
1.14149
1.1415
1.14151
1.14152
1.14155
1.14158
1.14162
1.14167
1.14173
1.1418
1.14189
1.14199
1.14211
1.14224
1.14239
1.14256
1.14275
1.14296
1.1432
1.14345
1.14374
1.14405
1.14438
1.14475
1.14515
1.14558
1.14604
1.14654
1.14707
1.14764
1.14825
1.1489
1.14959
1.15033
1.15111
1.15194
1.15281
1.15374
1.15473
1.15577
1.15687
1.15805
1.15929
1.16062
1.16205
1.16358
1.16523
1.16702
1.16898
1.17114
1.17354
1.17622
1.17923
1.18261
1.18632
1.19012
1.19355
1.19593
1.19531
1.09292
1.09247
1.09266
1.0934
1.09437
1.0954
1.09637
1.09723
1.09797
1.09859
1.09913
1.09958
1.09996
1.10028
1.10056
1.1008
1.10101
1.10118
1.10134
1.10147
1.10159
1.1017
1.10179
1.10187
1.10194
1.102
1.10205
1.1021
1.10214
1.10218
1.10221
1.10224
1.10226
1.10229
1.1023
1.10232
1.10233
1.10235
1.10236
1.10237
1.10238
1.10238
1.10239
1.1024
1.10241
1.10242
1.10242
1.10244
1.10245
1.10246
1.10248
1.1025
1.10252
1.10255
1.10258
1.10262
1.10266
1.1027
1.10275
1.10281
1.10288
1.10295
1.10302
1.10311
1.1032
1.1033
1.1034
1.10352
1.10364
1.10377
1.10391
1.10406
1.10422
1.10438
1.10455
1.10473
1.10492
1.10512
1.10532
1.10553
1.10575
1.10597
1.1062
1.10644
1.10668
1.10693
1.10718
1.10744
1.1077
1.10796
1.10823
1.1085
1.10877
1.10904
1.10931
1.10958
1.10985
1.11012
1.11038
1.11064
1.1109
1.11116
1.11141
1.11165
1.11189
1.11213
1.11236
1.11258
1.11279
1.113
1.1132
1.11339
1.11357
1.11374
1.11391
1.11406
1.11421
1.11435
1.11448
1.1146
1.11471
1.11481
1.1149
1.11499
1.11507
1.11515
1.11521
1.11527
1.11533
1.11538
1.11542
1.11547
1.11551
1.11554
1.11557
1.1156
1.11563
1.11566
1.11568
1.11571
1.11573
1.11575
1.11577
1.11579
1.11581
1.11583
1.11585
1.11587
1.11589
1.11591
1.11593
1.11595
1.11598
1.116
1.11602
1.11605
1.11607
1.1161
1.11613
1.11615
1.11618
1.11621
1.11624
1.11628
1.11631
1.11634
1.11638
1.11642
1.11645
1.11649
1.11653
1.11657
1.11661
1.11666
1.1167
1.11674
1.11679
1.11683
1.11687
1.11692
1.11696
1.11701
1.11705
1.1171
1.11714
1.11719
1.11723
1.11727
1.11731
1.11735
1.11739
1.11743
1.11747
1.11751
1.11754
1.11758
1.11761
1.11764
1.11767
1.1177
1.11773
1.11776
1.11779
1.11782
1.11784
1.11787
1.1179
1.11792
1.11795
1.11797
1.118
1.11803
1.11806
1.11809
1.11812
1.11815
1.11819
1.11823
1.11827
1.11831
1.11836
1.11841
1.11846
1.11852
1.11858
1.11865
1.11872
1.11879
1.11888
1.11896
1.11906
1.11915
1.11926
1.11937
1.11949
1.11961
1.11974
1.11988
1.12003
1.12019
1.12035
1.12052
1.12069
1.12088
1.12108
1.12128
1.12149
1.12171
1.12194
1.12218
1.12242
1.12268
1.12294
1.12321
1.1235
1.12379
1.12409
1.12439
1.12471
1.12504
1.12537
1.12571
1.12606
1.12642
1.12679
1.12716
1.12754
1.12792
1.12831
1.12871
1.12911
1.12951
1.12992
1.13032
1.13073
1.13114
1.13155
1.13195
1.13236
1.13275
1.13315
1.13354
1.13392
1.1343
1.13466
1.13502
1.13537
1.13572
1.13605
1.13637
1.13668
1.13698
1.13727
1.13754
1.13781
1.13807
1.13831
1.13855
1.13878
1.13899
1.1392
1.13939
1.13958
1.13975
1.13992
1.14008
1.14023
1.14037
1.1405
1.14062
1.14074
1.14084
1.14094
1.14104
1.14112
1.1412
1.14127
1.14133
1.14139
1.14144
1.14148
1.14151
1.14154
1.14157
1.14159
1.1416
1.14161
1.14161
1.14161
1.14161
1.1416
1.14159
1.14158
1.14157
1.14155
1.14154
1.14152
1.14151
1.1415
1.14149
1.14148
1.14148
1.14148
1.14149
1.14151
1.14153
1.14156
1.1416
1.14164
1.1417
1.14178
1.14186
1.14196
1.14207
1.1422
1.14235
1.14252
1.14271
1.14292
1.14315
1.14341
1.14369
1.144
1.14433
1.1447
1.14509
1.14552
1.14598
1.14648
1.14701
1.14758
1.14819
1.14884
1.14953
1.15026
1.15104
1.15187
1.15274
1.15366
1.15464
1.15567
1.15677
1.15792
1.15915
1.16046
1.16184
1.16333
1.16492
1.16664
1.1685
1.17052
1.17272
1.17512
1.17773
1.1805
1.18333
1.18601
1.18807
1.18914
1.18891
1.09477
1.09433
1.09434
1.09472
1.09531
1.09602
1.09673
1.09741
1.09803
1.09858
1.09906
1.09947
1.09984
1.10015
1.10043
1.10066
1.10087
1.10105
1.10121
1.10135
1.10147
1.10158
1.10168
1.10176
1.10184
1.1019
1.10196
1.10201
1.10206
1.1021
1.10213
1.10217
1.10219
1.10222
1.10224
1.10226
1.10227
1.10229
1.1023
1.10231
1.10232
1.10233
1.10234
1.10235
1.10236
1.10236
1.10237
1.10239
1.1024
1.10242
1.10243
1.10245
1.10248
1.1025
1.10254
1.10257
1.10261
1.10266
1.10271
1.10277
1.10283
1.1029
1.10298
1.10307
1.10316
1.10326
1.10336
1.10348
1.1036
1.10374
1.10388
1.10403
1.10418
1.10435
1.10452
1.1047
1.10489
1.10509
1.10529
1.10551
1.10572
1.10595
1.10618
1.10642
1.10666
1.10691
1.10717
1.10743
1.10769
1.10796
1.10823
1.1085
1.10877
1.10904
1.10932
1.10959
1.10986
1.11013
1.1104
1.11066
1.11092
1.11118
1.11143
1.11168
1.11192
1.11215
1.11238
1.11261
1.11282
1.11303
1.11323
1.11342
1.1136
1.11378
1.11394
1.1141
1.11425
1.11438
1.11451
1.11463
1.11474
1.11484
1.11494
1.11502
1.1151
1.11517
1.11524
1.1153
1.11535
1.1154
1.11545
1.11549
1.11553
1.11556
1.11559
1.11562
1.11565
1.11568
1.1157
1.11572
1.11575
1.11577
1.11579
1.11581
1.11583
1.11585
1.11587
1.11589
1.11591
1.11594
1.11596
1.11598
1.116
1.11603
1.11605
1.11608
1.1161
1.11613
1.11616
1.11619
1.11622
1.11625
1.11628
1.11632
1.11635
1.11639
1.11642
1.11646
1.1165
1.11654
1.11658
1.11662
1.11666
1.11671
1.11675
1.11679
1.11684
1.11688
1.11693
1.11697
1.11702
1.11707
1.11711
1.11716
1.1172
1.11724
1.11729
1.11733
1.11737
1.11741
1.11745
1.11749
1.11753
1.11757
1.1176
1.11764
1.11767
1.11771
1.11774
1.11777
1.1178
1.11783
1.11785
1.11788
1.11791
1.11794
1.11796
1.11799
1.11801
1.11804
1.11807
1.1181
1.11813
1.11816
1.11819
1.11822
1.11826
1.1183
1.11834
1.11838
1.11843
1.11848
1.11853
1.11859
1.11865
1.11871
1.11878
1.11886
1.11894
1.11902
1.11912
1.11921
1.11932
1.11943
1.11954
1.11967
1.1198
1.11994
1.12008
1.12023
1.12039
1.12056
1.12074
1.12092
1.12111
1.12132
1.12152
1.12174
1.12197
1.1222
1.12245
1.1227
1.12296
1.12324
1.12352
1.12381
1.1241
1.12441
1.12473
1.12505
1.12539
1.12573
1.12608
1.12644
1.1268
1.12717
1.12755
1.12794
1.12833
1.12873
1.12913
1.12953
1.12994
1.13035
1.13076
1.13117
1.13158
1.13199
1.13239
1.13279
1.13319
1.13358
1.13396
1.13434
1.13471
1.13507
1.13542
1.13576
1.13609
1.13641
1.13672
1.13701
1.1373
1.13758
1.13784
1.1381
1.13834
1.13858
1.1388
1.13901
1.13921
1.13941
1.13959
1.13977
1.13993
1.14009
1.14024
1.14038
1.14051
1.14063
1.14074
1.14085
1.14095
1.14104
1.14113
1.1412
1.14127
1.14134
1.14139
1.14144
1.14148
1.14152
1.14155
1.14158
1.14159
1.14161
1.14162
1.14162
1.14162
1.14161
1.14161
1.1416
1.14158
1.14157
1.14155
1.14154
1.14152
1.14151
1.14149
1.14148
1.14147
1.14147
1.14147
1.14147
1.14148
1.1415
1.14153
1.14157
1.14161
1.14167
1.14174
1.14182
1.14192
1.14203
1.14215
1.1423
1.14246
1.14265
1.14286
1.14308
1.14334
1.14362
1.14392
1.14425
1.14462
1.14501
1.14544
1.1459
1.14639
1.14692
1.14749
1.14809
1.14874
1.14943
1.15016
1.15093
1.15175
1.15261
1.15352
1.15449
1.15551
1.15658
1.15772
1.15892
1.16019
1.16153
1.16296
1.16448
1.1661
1.16784
1.16969
1.17168
1.17378
1.17598
1.17821
1.18033
1.18218
1.1835
1.18403
1.18384
1.0961
1.0957
1.09562
1.0958
1.09617
1.09664
1.09717
1.09769
1.09819
1.09866
1.09908
1.09945
1.09978
1.10008
1.10034
1.10057
1.10077
1.10095
1.10111
1.10125
1.10138
1.10149
1.10159
1.10167
1.10175
1.10182
1.10188
1.10194
1.10198
1.10203
1.10206
1.1021
1.10213
1.10215
1.10218
1.1022
1.10221
1.10223
1.10224
1.10226
1.10227
1.10228
1.10229
1.1023
1.1023
1.10232
1.10233
1.10234
1.10235
1.10237
1.10239
1.10241
1.10243
1.10246
1.10249
1.10253
1.10257
1.10261
1.10267
1.10272
1.10279
1.10286
1.10294
1.10302
1.10311
1.10321
1.10332
1.10344
1.10356
1.1037
1.10384
1.10399
1.10415
1.10431
1.10449
1.10467
1.10486
1.10506
1.10526
1.10548
1.1057
1.10592
1.10616
1.1064
1.10664
1.1069
1.10715
1.10742
1.10768
1.10795
1.10822
1.10849
1.10877
1.10905
1.10932
1.1096
1.10987
1.11014
1.11041
1.11068
1.11094
1.1112
1.11145
1.1117
1.11195
1.11219
1.11242
1.11264
1.11286
1.11307
1.11327
1.11346
1.11365
1.11382
1.11399
1.11414
1.11429
1.11443
1.11455
1.11467
1.11478
1.11488
1.11498
1.11506
1.11514
1.11521
1.11527
1.11533
1.11538
1.11543
1.11548
1.11552
1.11555
1.11559
1.11562
1.11565
1.11568
1.1157
1.11573
1.11575
1.11577
1.11579
1.11581
1.11584
1.11586
1.11588
1.1159
1.11592
1.11594
1.11597
1.11599
1.11601
1.11604
1.11606
1.11609
1.11612
1.11614
1.11617
1.1162
1.11623
1.11626
1.1163
1.11633
1.11636
1.1164
1.11644
1.11648
1.11651
1.11655
1.11659
1.11664
1.11668
1.11672
1.11677
1.11681
1.11686
1.1169
1.11695
1.11699
1.11704
1.11709
1.11713
1.11718
1.11722
1.11727
1.11731
1.11736
1.1174
1.11745
1.11749
1.11753
1.11757
1.11761
1.11764
1.11768
1.11772
1.11775
1.11778
1.11781
1.11785
1.11788
1.1179
1.11793
1.11796
1.11799
1.11801
1.11804
1.11807
1.11809
1.11812
1.11815
1.11818
1.11821
1.11824
1.11827
1.1183
1.11834
1.11838
1.11842
1.11846
1.1185
1.11855
1.11861
1.11866
1.11872
1.11879
1.11886
1.11893
1.11901
1.1191
1.11919
1.11928
1.11938
1.11949
1.11961
1.11973
1.11986
1.11999
1.12014
1.12029
1.12044
1.12061
1.12078
1.12097
1.12116
1.12136
1.12156
1.12178
1.122
1.12224
1.12248
1.12273
1.12299
1.12326
1.12354
1.12382
1.12412
1.12443
1.12474
1.12507
1.1254
1.12574
1.12609
1.12645
1.12681
1.12719
1.12757
1.12796
1.12835
1.12875
1.12915
1.12956
1.12997
1.13038
1.13079
1.1312
1.13162
1.13203
1.13243
1.13283
1.13323
1.13362
1.13401
1.13439
1.13476
1.13512
1.13547
1.13581
1.13613
1.13645
1.13676
1.13706
1.13734
1.13762
1.13788
1.13813
1.13838
1.13861
1.13883
1.13904
1.13924
1.13943
1.13961
1.13979
1.13995
1.1401
1.14025
1.14039
1.14052
1.14064
1.14076
1.14086
1.14096
1.14105
1.14114
1.14121
1.14128
1.14135
1.1414
1.14145
1.1415
1.14153
1.14156
1.14159
1.1416
1.14162
1.14162
1.14163
1.14163
1.14162
1.14161
1.1416
1.14159
1.14157
1.14155
1.14154
1.14152
1.1415
1.14148
1.14147
1.14146
1.14145
1.14145
1.14145
1.14146
1.14148
1.1415
1.14153
1.14157
1.14163
1.14169
1.14177
1.14186
1.14197
1.14209
1.14224
1.1424
1.14258
1.14278
1.143
1.14325
1.14353
1.14383
1.14416
1.14452
1.14491
1.14533
1.14578
1.14627
1.1468
1.14736
1.14796
1.1486
1.14928
1.15001
1.15077
1.15158
1.15243
1.15333
1.15428
1.15528
1.15633
1.15744
1.15861
1.15983
1.16112
1.16249
1.16392
1.16544
1.16704
1.16872
1.17048
1.17229
1.17412
1.17588
1.17749
1.17878
1.17964
1.17994
1.17966
1.09708
1.09675
1.09663
1.0967
1.09692
1.09724
1.09762
1.09802
1.09842
1.0988
1.09916
1.09949
1.09979
1.10006
1.1003
1.10052
1.10072
1.10089
1.10104
1.10118
1.10131
1.10142
1.10151
1.1016
1.10168
1.10175
1.10181
1.10187
1.10192
1.10196
1.102
1.10204
1.10207
1.1021
1.10212
1.10214
1.10216
1.10218
1.10219
1.10221
1.10222
1.10223
1.10224
1.10225
1.10226
1.10227
1.10228
1.10229
1.10231
1.10232
1.10234
1.10236
1.10238
1.10241
1.10244
1.10248
1.10252
1.10257
1.10262
1.10268
1.10274
1.10281
1.10289
1.10297
1.10307
1.10317
1.10328
1.10339
1.10352
1.10365
1.10379
1.10394
1.1041
1.10427
1.10444
1.10463
1.10482
1.10502
1.10523
1.10544
1.10566
1.10589
1.10613
1.10637
1.10662
1.10687
1.10713
1.1074
1.10766
1.10794
1.10821
1.10849
1.10876
1.10904
1.10932
1.1096
1.10988
1.11015
1.11043
1.1107
1.11096
1.11122
1.11148
1.11173
1.11198
1.11222
1.11245
1.11268
1.1129
1.11311
1.11331
1.11351
1.11369
1.11387
1.11404
1.11419
1.11434
1.11448
1.1146
1.11472
1.11483
1.11493
1.11502
1.11511
1.11518
1.11525
1.11531
1.11537
1.11542
1.11547
1.11551
1.11555
1.11559
1.11562
1.11565
1.11568
1.11571
1.11573
1.11576
1.11578
1.1158
1.11583
1.11585
1.11587
1.11589
1.11591
1.11594
1.11596
1.11598
1.116
1.11603
1.11605
1.11608
1.11611
1.11613
1.11616
1.11619
1.11622
1.11625
1.11628
1.11631
1.11635
1.11638
1.11642
1.11646
1.1165
1.11653
1.11657
1.11662
1.11666
1.1167
1.11674
1.11679
1.11683
1.11688
1.11693
1.11697
1.11702
1.11707
1.11711
1.11716
1.11721
1.11726
1.1173
1.11735
1.11739
1.11744
1.11748
1.11753
1.11757
1.11761
1.11765
1.11769
1.11773
1.11776
1.1178
1.11783
1.11787
1.1179
1.11793
1.11796
1.11799
1.11802
1.11805
1.11808
1.1181
1.11813
1.11816
1.11818
1.11821
1.11824
1.11827
1.1183
1.11833
1.11836
1.11839
1.11843
1.11846
1.1185
1.11855
1.11859
1.11864
1.11869
1.11875
1.11881
1.11887
1.11894
1.11901
1.11909
1.11917
1.11926
1.11936
1.11946
1.11956
1.11968
1.1198
1.11992
1.12006
1.1202
1.12034
1.1205
1.12066
1.12083
1.12101
1.1212
1.1214
1.1216
1.12181
1.12203
1.12227
1.1225
1.12275
1.12301
1.12328
1.12355
1.12384
1.12413
1.12444
1.12475
1.12508
1.12541
1.12575
1.1261
1.12646
1.12682
1.1272
1.12758
1.12797
1.12836
1.12876
1.12917
1.12958
1.12999
1.1304
1.13082
1.13123
1.13165
1.13206
1.13247
1.13288
1.13328
1.13367
1.13406
1.13444
1.13481
1.13517
1.13552
1.13586
1.13619
1.13651
1.13681
1.13711
1.13739
1.13766
1.13793
1.13818
1.13842
1.13864
1.13886
1.13907
1.13927
1.13946
1.13964
1.13981
1.13997
1.14013
1.14027
1.14041
1.14054
1.14066
1.14077
1.14088
1.14098
1.14107
1.14115
1.14123
1.1413
1.14136
1.14142
1.14147
1.14151
1.14155
1.14158
1.1416
1.14162
1.14163
1.14164
1.14164
1.14164
1.14163
1.14162
1.14161
1.14159
1.14158
1.14156
1.14154
1.14152
1.1415
1.14148
1.14146
1.14145
1.14144
1.14143
1.14143
1.14143
1.14145
1.14147
1.14149
1.14153
1.14158
1.14164
1.14171
1.1418
1.1419
1.14202
1.14216
1.14231
1.14249
1.14269
1.14291
1.14315
1.14342
1.14372
1.14404
1.14439
1.14478
1.14519
1.14564
1.14613
1.14665
1.1472
1.1478
1.14843
1.1491
1.14981
1.15057
1.15136
1.1522
1.15309
1.15402
1.15499
1.15602
1.15709
1.15821
1.15939
1.16062
1.16191
1.16326
1.16467
1.16613
1.16764
1.16918
1.17073
1.17224
1.17364
1.17485
1.17578
1.17636
1.17652
1.17622
1.09785
1.09756
1.09743
1.09744
1.09757
1.09778
1.09806
1.09836
1.09868
1.09899
1.09929
1.09958
1.09984
1.10008
1.1003
1.10051
1.10069
1.10085
1.101
1.10113
1.10125
1.10136
1.10146
1.10155
1.10162
1.1017
1.10176
1.10181
1.10186
1.10191
1.10195
1.10199
1.10202
1.10205
1.10207
1.10209
1.10211
1.10213
1.10215
1.10216
1.10217
1.10218
1.10219
1.1022
1.10221
1.10222
1.10224
1.10225
1.10226
1.10228
1.1023
1.10232
1.10234
1.10237
1.1024
1.10244
1.10248
1.10252
1.10257
1.10263
1.10269
1.10277
1.10284
1.10293
1.10302
1.10312
1.10323
1.10335
1.10347
1.10361
1.10375
1.1039
1.10406
1.10423
1.1044
1.10459
1.10478
1.10498
1.10519
1.10541
1.10563
1.10586
1.1061
1.10634
1.10659
1.10685
1.10711
1.10738
1.10765
1.10792
1.1082
1.10848
1.10876
1.10904
1.10933
1.10961
1.10989
1.11017
1.11044
1.11072
1.11098
1.11125
1.11151
1.11176
1.11201
1.11225
1.11249
1.11272
1.11294
1.11316
1.11336
1.11356
1.11375
1.11392
1.11409
1.11425
1.1144
1.11453
1.11466
1.11478
1.11489
1.11499
1.11508
1.11516
1.11523
1.1153
1.11536
1.11542
1.11547
1.11551
1.11555
1.11559
1.11563
1.11566
1.11569
1.11572
1.11575
1.11577
1.11579
1.11582
1.11584
1.11586
1.11589
1.11591
1.11593
1.11595
1.11598
1.116
1.11602
1.11605
1.11607
1.1161
1.11613
1.11615
1.11618
1.11621
1.11624
1.11627
1.11631
1.11634
1.11637
1.11641
1.11645
1.11648
1.11652
1.11656
1.1166
1.11665
1.11669
1.11673
1.11678
1.11682
1.11687
1.11691
1.11696
1.11701
1.11705