# vtk DataFile Version 2.0
LBE mesh
ASCII
DATASET STRUCTURED_POINTS
DIMENSIONS 400 100 1
ASPECT_RATIO 1 1 1
ORIGIN 0 0 0
POINT_DATA 40000
SCALARS rho double 1
LOOKUP_TABLE default
1.09569
1.16654
1.18725
1.19159
1.19373
1.19557
1.1969
1.19776
1.19835
1.19878
1.19911
1.19937
1.19957
1.19973
1.19985
1.19995
1.20003
1.20009
1.20013
1.20017
1.20019
1.2002
1.2002
1.2002
1.20019
1.20017
1.20015
1.20012
1.20009
1.20006
1.20002
1.19998
1.19993
1.19988
1.19984
1.19978
1.19973
1.19968
1.19962
1.19956
1.19951
1.19945
1.19939
1.19934
1.19928
1.19922
1.19917
1.19912
1.19907
1.19902
1.19897
1.19893
1.19889
1.19886
1.19883
1.1988
1.19878
1.19876
1.19875
1.19875
1.19875
1.19876
1.19878
1.1988
1.19883
1.19887
1.19892
1.19897
1.19904
1.19911
1.19919
1.19927
1.19937
1.19947
1.19959
1.19971
1.19984
1.19997
1.20012
1.20027
1.20043
1.20059
1.20077
1.20095
1.20113
1.20132
1.20152
1.20172
1.20192
1.20213
1.20234
1.20256
1.20277
1.20299
1.20321
1.20343
1.20364
1.20386
1.20407
1.20428
1.20449
1.20469
1.20489
1.20509
1.20528
1.20546
1.20564
1.2058
1.20596
1.20612
1.20626
1.20639
1.20652
1.20663
1.20674
1.20683
1.20691
1.20698
1.20704
1.20709
1.20713
1.20716
1.20717
1.20718
1.20718
1.20717
1.20714
1.20712
1.20708
1.20704
1.20699
1.20693
1.20687
1.2068
1.20673
1.20666
1.20658
1.2065
1.20642
1.20634
1.20625
1.20616
1.20608
1.20599
1.2059
1.20581
1.20572
1.20564
1.20555
1.20546
1.20538
1.20529
1.2052
1.20512
1.20504
1.20495
1.20487
1.20479
1.20471
1.20463
1.20455
1.20447
1.20439
1.20432
1.20424
1.20416
1.20409
1.20401
1.20393
1.20386
1.20378
1.20371
1.20363
1.20356
1.20348
1.20341
1.20334
1.20326
1.20319
1.20311
1.20304
1.20297
1.20289
1.20282
1.20275
1.20267
1.2026
1.20253
1.20246
1.20238
1.20231
1.20224
1.20218
1.20211
1.20204
1.20197
1.20191
1.20184
1.20178
1.20172
1.20165
1.20159
1.20154
1.20148
1.20143
1.20137
1.20132
1.20127
1.20122
1.20118
1.20113
1.20109
1.20105
1.20102
1.20098
1.20095
1.20093
1.2009
1.20088
1.20086
1.20084
1.20083
1.20082
1.20081
1.20081
1.20081
1.20082
1.20083
1.20084
1.20086
1.20088
1.20091
1.20094
1.20098
1.20102
1.20107
1.20112
1.20118
1.20125
1.20132
1.2014
1.20148
1.20158
1.20167
1.20178
1.2019
1.20202
1.20215
1.20228
1.20243
1.20258
1.20274
1.20291
1.20309
1.20327
1.20347
1.20367
1.20388
1.2041
1.20433
1.20456
1.2048
1.20505
1.2053
1.20556
1.20583
1.2061
1.20637
1.20665
1.20694
1.20722
1.20751
1.2078
1.20808
1.20837
1.20866
1.20894
1.20923
1.2095
1.20978
1.21004
1.21031
1.21056
1.21081
1.21105
1.21128
1.21151
1.21172
1.21193
1.21212
1.21231
1.21249
1.21266
1.21282
1.21297
1.21311
1.21324
1.21337
1.21348
1.21359
1.2137
1.21379
1.21388
1.21397
1.21405
1.21412
1.21418
1.21425
1.2143
1.21436
1.21441
1.21445
1.21449
1.21453
1.21456
1.21459
1.21461
1.21463
1.21465
1.21466
1.21467
1.21468
1.21468
1.21468
1.21467
1.21467
1.21466
1.21464
1.21462
1.2146
1.21458
1.21456
1.21454
1.21451
1.21448
1.21446
1.21444
1.21441
1.21439
1.21437
1.21436
1.21435
1.21435
1.21435
1.21436
1.21438
1.21441
1.21444
1.21449
1.21455
1.21463
1.21472
1.21482
1.21494
1.21507
1.21523
1.2154
1.21559
1.21581
1.21604
1.2163
1.21659
1.2169
1.21723
1.21759
1.21799
1.21841
1.21886
1.21934
1.21985
1.2204
1.22099
1.22161
1.22227
1.22297
1.22372
1.22451
1.22535
1.22624
1.22718
1.22819
1.22926
1.23041
1.23163
1.23295
1.23437
1.23592
1.2376
1.23945
1.2415
1.24381
1.24643
1.24946
1.25305
1.25743
1.26309
1.27092
1.28192
1.29873
1.33416
1.15509
1.16516
1.17683
1.18629
1.19121
1.19374
1.19532
1.19646
1.1973
1.19792
1.19839
1.19875
1.19903
1.19926
1.19944
1.19958
1.1997
1.19979
1.19986
1.19992
1.19996
1.19999
1.20001
1.20002
1.20002
1.20001
1.2
1.19998
1.19996
1.19993
1.1999
1.19987
1.19983
1.19979
1.19974
1.1997
1.19965
1.1996
1.19955
1.19949
1.19944
1.19938
1.19933
1.19928
1.19922
1.19917
1.19912
1.19907
1.19902
1.19898
1.19893
1.19889
1.19886
1.19882
1.1988
1.19877
1.19875
1.19874
1.19873
1.19873
1.19874
1.19875
1.19876
1.19879
1.19882
1.19886
1.19891
1.19897
1.19903
1.19911
1.19919
1.19928
1.19937
1.19948
1.19959
1.19972
1.19985
1.19998
1.20013
1.20028
1.20044
1.20061
1.20078
1.20096
1.20115
1.20134
1.20154
1.20174
1.20194
1.20215
1.20236
1.20257
1.20279
1.20301
1.20322
1.20344
1.20366
1.20387
1.20408
1.20429
1.2045
1.2047
1.2049
1.20509
1.20528
1.20546
1.20564
1.2058
1.20596
1.20611
1.20625
1.20639
1.20651
1.20662
1.20672
1.20681
1.20689
1.20696
1.20702
1.20707
1.20711
1.20713
1.20715
1.20715
1.20715
1.20714
1.20712
1.20709
1.20705
1.20701
1.20696
1.2069
1.20684
1.20677
1.2067
1.20663
1.20655
1.20647
1.20639
1.20631
1.20623
1.20614
1.20605
1.20597
1.20588
1.20579
1.2057
1.20562
1.20553
1.20544
1.20536
1.20527
1.20519
1.20511
1.20502
1.20494
1.20486
1.20478
1.2047
1.20462
1.20454
1.20446
1.20438
1.20431
1.20423
1.20415
1.20408
1.204
1.20393
1.20385
1.20378
1.2037
1.20363
1.20355
1.20348
1.2034
1.20333
1.20325
1.20318
1.20311
1.20303
1.20296
1.20289
1.20281
1.20274
1.20267
1.20259
1.20252
1.20245
1.20238
1.20231
1.20224
1.20217
1.2021
1.20203
1.20197
1.2019
1.20184
1.20177
1.20171
1.20165
1.20159
1.20153
1.20148
1.20142
1.20137
1.20132
1.20127
1.20122
1.20117
1.20113
1.20109
1.20105
1.20102
1.20098
1.20095
1.20092
1.2009
1.20088
1.20086
1.20084
1.20083
1.20082
1.20081
1.20081
1.20081
1.20082
1.20083
1.20085
1.20086
1.20089
1.20092
1.20095
1.20099
1.20103
1.20108
1.20113
1.20119
1.20126
1.20133
1.20141
1.2015
1.20159
1.20169
1.2018
1.20192
1.20204
1.20217
1.20231
1.20245
1.20261
1.20277
1.20294
1.20312
1.2033
1.2035
1.2037
1.20391
1.20413
1.20436
1.20459
1.20483
1.20508
1.20534
1.2056
1.20586
1.20613
1.20641
1.20669
1.20697
1.20725
1.20754
1.20783
1.20812
1.2084
1.20869
1.20897
1.20925
1.20953
1.2098
1.21006
1.21032
1.21058
1.21082
1.21106
1.21129
1.21151
1.21173
1.21193
1.21212
1.21231
1.21249
1.21265
1.21281
1.21296
1.2131
1.21323
1.21336
1.21348
1.21359
1.21369
1.21378
1.21387
1.21396
1.21403
1.21411
1.21417
1.21424
1.21429
1.21435
1.21439
1.21444
1.21448
1.21451
1.21455
1.21457
1.2146
1.21462
1.21464
1.21465
1.21466
1.21466
1.21467
1.21466
1.21466
1.21465
1.21464
1.21463
1.21461
1.21459
1.21457
1.21454
1.21452
1.21449
1.21447
1.21445
1.21442
1.2144
1.21438
1.21436
1.21435
1.21434
1.21434
1.21435
1.21436
1.21438
1.21441
1.21445
1.2145
1.21456
1.21464
1.21473
1.21483
1.21496
1.2151
1.21525
1.21543
1.21563
1.21584
1.21608
1.21635
1.21663
1.21695
1.21729
1.21765
1.21805
1.21847
1.21893
1.21942
1.21994
1.22049
1.22108
1.22171
1.22238
1.22309
1.22384
1.22464
1.22548
1.22638
1.22734
1.22836
1.22944
1.2306
1.23185
1.23319
1.23464
1.23621
1.23794
1.23984
1.24196
1.24436
1.2471
1.25029
1.25412
1.25884
1.2648
1.2726
1.28409
1.30399
1.33501
1.17445
1.17297
1.18
1.18586
1.18955
1.1922
1.19411
1.19546
1.19644
1.19717
1.19774
1.19818
1.19854
1.19882
1.19905
1.19923
1.19938
1.1995
1.1996
1.19968
1.19974
1.19978
1.19982
1.19984
1.19986
1.19986
1.19986
1.19985
1.19983
1.19981
1.19979
1.19976
1.19973
1.19969
1.19965
1.19961
1.19956
1.19952
1.19947
1.19942
1.19937
1.19932
1.19927
1.19921
1.19916
1.19911
1.19907
1.19902
1.19897
1.19893
1.19889
1.19885
1.19882
1.19878
1.19876
1.19874
1.19872
1.19871
1.1987
1.1987
1.19871
1.19872
1.19874
1.19877
1.1988
1.19885
1.1989
1.19895
1.19902
1.1991
1.19918
1.19927
1.19937
1.19948
1.19959
1.19971
1.19985
1.19999
1.20013
1.20029
1.20045
1.20062
1.20079
1.20097
1.20116
1.20135
1.20155
1.20175
1.20195
1.20216
1.20237
1.20259
1.2028
1.20302
1.20324
1.20345
1.20367
1.20389
1.2041
1.20431
1.20451
1.20471
1.20491
1.2051
1.20529
1.20547
1.20564
1.20581
1.20597
1.20612
1.20626
1.20639
1.20651
1.20662
1.20672
1.20681
1.20689
1.20695
1.20701
1.20706
1.20709
1.20712
1.20713
1.20713
1.20713
1.20712
1.20709
1.20706
1.20703
1.20698
1.20693
1.20687
1.20681
1.20675
1.20668
1.2066
1.20653
1.20645
1.20637
1.20628
1.2062
1.20612
1.20603
1.20594
1.20586
1.20577
1.20568
1.2056
1.20551
1.20542
1.20534
1.20525
1.20517
1.20509
1.20501
1.20492
1.20484
1.20476
1.20468
1.2046
1.20452
1.20445
1.20437
1.20429
1.20422
1.20414
1.20406
1.20399
1.20391
1.20384
1.20376
1.20369
1.20361
1.20354
1.20347
1.20339
1.20332
1.20324
1.20317
1.20309
1.20302
1.20295
1.20287
1.2028
1.20273
1.20266
1.20258
1.20251
1.20244
1.20237
1.2023
1.20223
1.20216
1.20209
1.20202
1.20196
1.20189
1.20183
1.20176
1.2017
1.20164
1.20158
1.20152
1.20147
1.20141
1.20136
1.20131
1.20126
1.20121
1.20117
1.20113
1.20109
1.20105
1.20101
1.20098
1.20095
1.20092
1.2009
1.20087
1.20085
1.20084
1.20083
1.20082
1.20081
1.20081
1.20081
1.20082
1.20083
1.20085
1.20086
1.20089
1.20092
1.20095
1.20099
1.20103
1.20108
1.20114
1.2012
1.20127
1.20134
1.20142
1.20151
1.2016
1.2017
1.20181
1.20193
1.20205
1.20218
1.20232
1.20247
1.20262
1.20279
1.20296
1.20314
1.20332
1.20352
1.20372
1.20394
1.20416
1.20438
1.20462
1.20486
1.20511
1.20536
1.20563
1.20589
1.20616
1.20644
1.20672
1.207
1.20729
1.20757
1.20786
1.20815
1.20843
1.20872
1.209
1.20928
1.20955
1.20982
1.21009
1.21035
1.2106
1.21084
1.21108
1.21131
1.21153
1.21174
1.21194
1.21214
1.21232
1.21249
1.21266
1.21282
1.21296
1.2131
1.21324
1.21336
1.21347
1.21358
1.21368
1.21378
1.21387
1.21395
1.21403
1.2141
1.21417
1.21423
1.21428
1.21434
1.21439
1.21443
1.21447
1.2145
1.21454
1.21456
1.21459
1.21461
1.21462
1.21464
1.21465
1.21465
1.21465
1.21465
1.21465
1.21464
1.21462
1.21461
1.21459
1.21457
1.21455
1.21453
1.2145
1.21448
1.21445
1.21443
1.2144
1.21438
1.21436
1.21435
1.21434
1.21433
1.21433
1.21433
1.21434
1.21437
1.2144
1.21444
1.21449
1.21455
1.21463
1.21472
1.21483
1.21496
1.2151
1.21526
1.21544
1.21564
1.21586
1.2161
1.21636
1.21666
1.21697
1.21731
1.21768
1.21808
1.21851
1.21897
1.21946
1.21998
1.22054
1.22114
1.22177
1.22244
1.22315
1.22391
1.22471
1.22556
1.22647
1.22743
1.22845
1.22955
1.23071
1.23197
1.23332
1.23478
1.23636
1.2381
1.24002
1.24215
1.24456
1.24731
1.25051
1.25429
1.25886
1.26458
1.272
1.28134
1.2915
1.3007
1.18252
1.18161
1.18385
1.18654
1.18945
1.19179
1.1935
1.1948
1.19581
1.1966
1.19722
1.19771
1.19811
1.19843
1.1987
1.19891
1.19909
1.19924
1.19936
1.19945
1.19953
1.19959
1.19964
1.19967
1.1997
1.19971
1.19972
1.19972
1.19971
1.1997
1.19968
1.19965
1.19963
1.19959
1.19956
1.19952
1.19948
1.19944
1.19939
1.19935
1.1993
1.19925
1.1992
1.19915
1.1991
1.19906
1.19901
1.19896
1.19892
1.19888
1.19884
1.1988
1.19877
1.19874
1.19872
1.1987
1.19868
1.19867
1.19867
1.19867
1.19868
1.19869
1.19871
1.19874
1.19878
1.19882
1.19887
1.19893
1.199
1.19908
1.19916
1.19925
1.19935
1.19946
1.19958
1.19971
1.19984
1.19998
1.20013
1.20028
1.20045
1.20061
1.20079
1.20097
1.20116
1.20135
1.20155
1.20175
1.20196
1.20217
1.20238
1.2026
1.20282
1.20303
1.20325
1.20347
1.20369
1.2039
1.20411
1.20432
1.20453
1.20473
1.20493
1.20512
1.2053
1.20548
1.20566
1.20582
1.20598
1.20613
1.20627
1.20639
1.20651
1.20662
1.20672
1.20681
1.20689
1.20695
1.20701
1.20705
1.20709
1.20711
1.20712
1.20712
1.20712
1.2071
1.20708
1.20704
1.20701
1.20696
1.20691
1.20685
1.20679
1.20672
1.20665
1.20658
1.2065
1.20642
1.20634
1.20626
1.20617
1.20609
1.206
1.20592
1.20583
1.20574
1.20566
1.20557
1.20549
1.2054
1.20532
1.20523
1.20515
1.20506
1.20498
1.2049
1.20482
1.20474
1.20466
1.20458
1.2045
1.20443
1.20435
1.20427
1.2042
1.20412
1.20405
1.20397
1.20389
1.20382
1.20375
1.20367
1.2036
1.20352
1.20345
1.20337
1.2033
1.20323
1.20315
1.20308
1.20301
1.20293
1.20286
1.20279
1.20271
1.20264
1.20257
1.2025
1.20243
1.20235
1.20228
1.20221
1.20215
1.20208
1.20201
1.20194
1.20188
1.20181
1.20175
1.20169
1.20163
1.20157
1.20151
1.20146
1.2014
1.20135
1.2013
1.20125
1.2012
1.20116
1.20112
1.20108
1.20104
1.201
1.20097
1.20094
1.20091
1.20089
1.20086
1.20085
1.20083
1.20082
1.20081
1.20081
1.2008
1.20081
1.20081
1.20082
1.20084
1.20086
1.20088
1.20091
1.20095
1.20098
1.20103
1.20108
1.20114
1.2012
1.20126
1.20134
1.20142
1.20151
1.2016
1.2017
1.20181
1.20193
1.20205
1.20219
1.20233
1.20247
1.20263
1.20279
1.20297
1.20315
1.20333
1.20353
1.20374
1.20395
1.20417
1.2044
1.20464
1.20488
1.20513
1.20538
1.20565
1.20591
1.20619
1.20646
1.20674
1.20703
1.20731
1.2076
1.20789
1.20817
1.20846
1.20875
1.20903
1.20931
1.20958
1.20985
1.21012
1.21038
1.21063
1.21087
1.21111
1.21133
1.21155
1.21176
1.21196
1.21215
1.21234
1.21251
1.21267
1.21283
1.21297
1.21311
1.21324
1.21336
1.21348
1.21359
1.21369
1.21378
1.21387
1.21395
1.21403
1.2141
1.21416
1.21422
1.21428
1.21433
1.21438
1.21442
1.21446
1.2145
1.21453
1.21456
1.21458
1.2146
1.21462
1.21463
1.21464
1.21464
1.21464
1.21464
1.21463
1.21462
1.21461
1.2146
1.21458
1.21456
1.21453
1.21451
1.21448
1.21446
1.21443
1.21441
1.21438
1.21436
1.21434
1.21432
1.21431
1.2143
1.2143
1.21431
1.21432
1.21434
1.21437
1.21442
1.21447
1.21453
1.21461
1.2147
1.21481
1.21494
1.21508
1.21524
1.21542
1.21562
1.21584
1.21609
1.21636
1.21665
1.21697
1.21731
1.21768
1.21808
1.21851
1.21898
1.21947
1.21999
1.22056
1.22115
1.22179
1.22246
1.22317
1.22393
1.22474
1.22559
1.2265
1.22746
1.22848
1.22957
1.23074
1.23199
1.23333
1.23479
1.23636
1.23808
1.23998
1.24208
1.24444
1.24711
1.25017
1.25372
1.2579
1.26279
1.26848
1.27475
1.27986
1.27992
1.18683
1.18636
1.18695
1.18844
1.19028
1.19192
1.19334
1.19451
1.19546
1.19622
1.19684
1.19735
1.19777
1.19811
1.1984
1.19863
1.19883
1.19899
1.19913
1.19924
1.19933
1.19941
1.19947
1.19951
1.19955
1.19957
1.19958
1.19959
1.19959
1.19958
1.19957
1.19955
1.19953
1.1995
1.19947
1.19943
1.1994
1.19936
1.19932
1.19927
1.19923
1.19918
1.19913
1.19909
1.19904
1.19899
1.19895
1.19891
1.19886
1.19882
1.19879
1.19875
1.19872
1.19869
1.19867
1.19865
1.19864
1.19863
1.19862
1.19863
1.19864
1.19865
1.19868
1.1987
1.19874
1.19879
1.19884
1.1989
1.19897
1.19905
1.19914
1.19923
1.19933
1.19944
1.19956
1.19969
1.19982
1.19996
1.20012
1.20027
1.20044
1.20061
1.20079
1.20097
1.20116
1.20135
1.20155
1.20176
1.20197
1.20218
1.20239
1.20261
1.20283
1.20304
1.20326
1.20348
1.2037
1.20391
1.20413
1.20434
1.20454
1.20475
1.20494
1.20514
1.20532
1.2055
1.20567
1.20584
1.206
1.20614
1.20628
1.20641
1.20653
1.20664
1.20673
1.20682
1.2069
1.20696
1.20701
1.20706
1.20709
1.20711
1.20712
1.20712
1.20711
1.20709
1.20707
1.20703
1.20699
1.20694
1.20689
1.20683
1.20677
1.2067
1.20663
1.20655
1.20648
1.2064
1.20631
1.20623
1.20615
1.20606
1.20597
1.20589
1.2058
1.20571
1.20563
1.20554
1.20546
1.20537
1.20529
1.2052
1.20512
1.20504
1.20496
1.20487
1.20479
1.20471
1.20464
1.20456
1.20448
1.2044
1.20433
1.20425
1.20417
1.2041
1.20402
1.20395
1.20387
1.2038
1.20372
1.20365
1.20357
1.2035
1.20343
1.20335
1.20328
1.20321
1.20313
1.20306
1.20299
1.20291
1.20284
1.20277
1.20269
1.20262
1.20255
1.20248
1.20241
1.20234
1.20227
1.2022
1.20213
1.20206
1.20199
1.20193
1.20186
1.2018
1.20174
1.20167
1.20161
1.20156
1.2015
1.20144
1.20139
1.20134
1.20128
1.20124
1.20119
1.20114
1.2011
1.20106
1.20102
1.20099
1.20096
1.20093
1.2009
1.20087
1.20085
1.20083
1.20082
1.20081
1.2008
1.20079
1.20079
1.20079
1.2008
1.20081
1.20083
1.20085
1.20087
1.2009
1.20093
1.20097
1.20102
1.20107
1.20112
1.20119
1.20126
1.20133
1.20141
1.2015
1.20159
1.2017
1.20181
1.20192
1.20205
1.20218
1.20232
1.20247
1.20263
1.20279
1.20296
1.20315
1.20334
1.20353
1.20374
1.20395
1.20418
1.20441
1.20464
1.20489
1.20514
1.2054
1.20566
1.20593
1.2062
1.20648
1.20676
1.20705
1.20734
1.20762
1.20791
1.2082
1.20849
1.20878
1.20906
1.20934
1.20962
1.20989
1.21015
1.21041
1.21066
1.2109
1.21114
1.21136
1.21158
1.21179
1.21199
1.21218
1.21236
1.21253
1.21269
1.21285
1.21299
1.21313
1.21325
1.21337
1.21349
1.21359
1.21369
1.21378
1.21387
1.21395
1.21403
1.2141
1.21416
1.21422
1.21428
1.21433
1.21438
1.21442
1.21446
1.21449
1.21452
1.21455
1.21457
1.21459
1.21461
1.21462
1.21463
1.21463
1.21463
1.21463
1.21462
1.21461
1.2146
1.21458
1.21456
1.21454
1.21452
1.21449
1.21446
1.21444
1.21441
1.21438
1.21436
1.21433
1.21431
1.2143
1.21428
1.21427
1.21427
1.21428
1.21429
1.21431
1.21434
1.21438
1.21443
1.2145
1.21458
1.21467
1.21478
1.2149
1.21505
1.21521
1.21539
1.21559
1.21581
1.21606
1.21632
1.21662
1.21694
1.21728
1.21766
1.21806
1.21849
1.21895
1.21944
1.21997
1.22053
1.22113
1.22176
1.22244
1.22315
1.22391
1.22471
1.22556
1.22647
1.22742
1.22844
1.22953
1.23068
1.23192
1.23324
1.23467
1.23622
1.2379
1.23974
1.24177
1.24401
1.24652
1.24935
1.25253
1.25611
1.26005
1.2641
1.26772
1.27018
1.26951
1.1898
1.18928
1.18942
1.19023
1.19129
1.19244
1.19353
1.1945
1.19532
1.19602
1.19661
1.1971
1.19751
1.19786
1.19815
1.1984
1.19861
1.19878
1.19893
1.19905
1.19916
1.19924
1.19931
1.19936
1.1994
1.19944
1.19946
1.19947
1.19947
1.19947
1.19946
1.19945
1.19943
1.19941
1.19938
1.19935
1.19932
1.19928
1.19924
1.1992
1.19916
1.19911
1.19907
1.19902
1.19898
1.19893
1.19889
1.19885
1.19881
1.19877
1.19873
1.1987
1.19867
1.19864
1.19862
1.1986
1.19859
1.19858
1.19858
1.19858
1.19859
1.19861
1.19863
1.19866
1.1987
1.19875
1.1988
1.19886
1.19894
1.19901
1.1991
1.1992
1.1993
1.19941
1.19953
1.19966
1.1998
1.19994
1.20009
1.20025
1.20042
1.20059
1.20077
1.20096
1.20115
1.20134
1.20155
1.20175
1.20196
1.20218
1.20239
1.20261
1.20283
1.20305
1.20327
1.20349
1.20371
1.20393
1.20414
1.20435
1.20456
1.20477
1.20496
1.20516
1.20534
1.20552
1.2057
1.20586
1.20602
1.20616
1.2063
1.20643
1.20655
1.20666
1.20675
1.20684
1.20691
1.20697
1.20703
1.20707
1.2071
1.20711
1.20712
1.20712
1.20711
1.20709
1.20706
1.20702
1.20698
1.20693
1.20687
1.20681
1.20675
1.20668
1.2066
1.20653
1.20645
1.20637
1.20629
1.2062
1.20612
1.20603
1.20594
1.20586
1.20577
1.20568
1.2056
1.20551
1.20543
1.20534
1.20526
1.20517
1.20509
1.20501
1.20492
1.20484
1.20476
1.20468
1.20461
1.20453
1.20445
1.20437
1.2043
1.20422
1.20414
1.20407
1.20399
1.20392
1.20384
1.20377
1.2037
1.20362
1.20355
1.20347
1.2034
1.20333
1.20325
1.20318
1.20311
1.20303
1.20296
1.20289
1.20282
1.20274
1.20267
1.2026
1.20253
1.20246
1.20239
1.20231
1.20225
1.20218
1.20211
1.20204
1.20197
1.20191
1.20184
1.20178
1.20172
1.20166
1.2016
1.20154
1.20148
1.20142
1.20137
1.20132
1.20127
1.20122
1.20117
1.20113
1.20109
1.20104
1.20101
1.20097
1.20094
1.20091
1.20088
1.20086
1.20084
1.20082
1.2008
1.20079
1.20078
1.20078
1.20077
1.20078
1.20078
1.20079
1.20081
1.20083
1.20085
1.20088
1.20092
1.20096
1.201
1.20105
1.20111
1.20117
1.20124
1.20131
1.20139
1.20148
1.20158
1.20168
1.20179
1.20191
1.20203
1.20216
1.20231
1.20245
1.20261
1.20278
1.20295
1.20313
1.20333
1.20352
1.20373
1.20395
1.20417
1.2044
1.20464
1.20489
1.20514
1.2054
1.20567
1.20594
1.20621
1.20649
1.20678
1.20707
1.20735
1.20765
1.20794
1.20823
1.20852
1.20881
1.20909
1.20937
1.20965
1.20992
1.21019
1.21044
1.2107
1.21094
1.21117
1.2114
1.21162
1.21182
1.21202
1.21221
1.21239
1.21256
1.21272
1.21287
1.21301
1.21315
1.21327
1.21339
1.2135
1.21361
1.2137
1.21379
1.21388
1.21396
1.21403
1.2141
1.21416
1.21422
1.21428
1.21433
1.21437
1.21442
1.21445
1.21449
1.21452
1.21455
1.21457
1.21459
1.2146
1.21461
1.21462
1.21462
1.21462
1.21462
1.21461
1.2146
1.21459
1.21457
1.21455
1.21452
1.2145
1.21447
1.21444
1.21441
1.21439
1.21436
1.21433
1.21431
1.21428
1.21426
1.21425
1.21424
1.21423
1.21424
1.21425
1.21427
1.2143
1.21433
1.21439
1.21445
1.21453
1.21462
1.21473
1.21485
1.21499
1.21515
1.21533
1.21553
1.21575
1.216
1.21627
1.21656
1.21688
1.21722
1.2176
1.218
1.21843
1.21889
1.21938
1.21991
1.22047
1.22107
1.2217
1.22237
1.22308
1.22384
1.22463
1.22548
1.22637
1.22732
1.22833
1.2294
1.23054
1.23175
1.23305
1.23444
1.23594
1.23755
1.23931
1.24123
1.24333
1.24563
1.24815
1.2509
1.25383
1.25683
1.25966
1.26184
1.26294
1.26267
1.19184
1.19129
1.19128
1.19168
1.19232
1.1931
1.1939
1.19466
1.19535
1.19596
1.19649
1.19695
1.19734
1.19768
1.19797
1.19821
1.19843
1.1986
1.19876
1.19889
1.199
1.19909
1.19916
1.19922
1.19927
1.19931
1.19933
1.19935
1.19936
1.19936
1.19936
1.19935
1.19934
1.19932
1.19929
1.19926
1.19923
1.1992
1.19916
1.19912
1.19908
1.19904
1.199
1.19896
1.19891
1.19887
1.19883
1.19878
1.19875
1.19871
1.19867
1.19864
1.19861
1.19858
1.19856
1.19854
1.19853
1.19852
1.19852
1.19853
1.19854
1.19856
1.19858
1.19861
1.19865
1.1987
1.19876
1.19882
1.19889
1.19897
1.19906
1.19916
1.19927
1.19938
1.1995
1.19963
1.19977
1.19991
1.20007
1.20023
1.2004
1.20057
1.20075
1.20094
1.20113
1.20133
1.20154
1.20175
1.20196
1.20217
1.20239
1.20261
1.20284
1.20306
1.20328
1.2035
1.20373
1.20394
1.20416
1.20437
1.20458
1.20479
1.20499
1.20518
1.20537
1.20555
1.20572
1.20589
1.20604
1.20619
1.20633
1.20646
1.20658
1.20668
1.20678
1.20686
1.20694
1.207
1.20705
1.20708
1.20711
1.20712
1.20713
1.20712
1.20711
1.20709
1.20705
1.20701
1.20697
1.20692
1.20686
1.20679
1.20673
1.20665
1.20658
1.2065
1.20642
1.20634
1.20626
1.20617
1.20608
1.206
1.20591
1.20582
1.20574
1.20565
1.20556
1.20547
1.20539
1.2053
1.20522
1.20514
1.20505
1.20497
1.20489
1.20481
1.20473
1.20465
1.20457
1.20449
1.20442
1.20434
1.20426
1.20419
1.20411
1.20404
1.20396
1.20389
1.20381
1.20374
1.20366
1.20359
1.20352
1.20344
1.20337
1.2033
1.20322
1.20315
1.20308
1.203
1.20293
1.20286
1.20279
1.20271
1.20264
1.20257
1.2025
1.20243
1.20236
1.20229
1.20222
1.20215
1.20208
1.20202
1.20195
1.20188
1.20182
1.20176
1.20169
1.20163
1.20157
1.20151
1.20146
1.2014
1.20135
1.2013
1.20125
1.2012
1.20115
1.20111
1.20106
1.20102
1.20099
1.20095
1.20092
1.20089
1.20086
1.20084
1.20081
1.2008
1.20078
1.20077
1.20076
1.20075
1.20075
1.20076
1.20076
1.20077
1.20079
1.20081
1.20083
1.20086
1.20089
1.20093
1.20098
1.20103
1.20108
1.20114
1.20121
1.20129
1.20137
1.20146
1.20155
1.20165
1.20176
1.20188
1.20201
1.20214
1.20228
1.20243
1.20259
1.20276
1.20293
1.20311
1.20331
1.20351
1.20372
1.20393
1.20416
1.20439
1.20463
1.20488
1.20514
1.2054
1.20567
1.20594
1.20622
1.2065
1.20679
1.20708
1.20737
1.20766
1.20796
1.20825
1.20854
1.20883
1.20912
1.20941
1.20968
1.20996
1.21022
1.21048
1.21074
1.21098
1.21121
1.21144
1.21166
1.21186
1.21206
1.21225
1.21242
1.21259
1.21275
1.2129
1.21304
1.21317
1.2133
1.21341
1.21352
1.21362
1.21372
1.21381
1.21389
1.21397
1.21404
1.21411
1.21417
1.21423
1.21428
1.21433
1.21438
1.21442
1.21445
1.21449
1.21452
1.21454
1.21457
1.21458
1.2146
1.21461
1.21462
1.21462
1.21462
1.21461
1.2146
1.21459
1.21457
1.21455
1.21453
1.21451
1.21448
1.21445
1.21442
1.21439
1.21436
1.21433
1.2143
1.21427
1.21425
1.21422
1.21421
1.21419
1.21419
1.21419
1.2142
1.21421
1.21424
1.21428
1.21433
1.21439
1.21446
1.21455
1.21466
1.21478
1.21492
1.21508
1.21526
1.21546
1.21568
1.21592
1.21619
1.21648
1.2168
1.21714
1.21751
1.21791
1.21834
1.2188
1.21929
1.21982
1.22037
1.22097
1.2216
1.22226
1.22297
1.22372
1.22451
1.22534
1.22623
1.22716
1.22815
1.2292
1.23031
1.23149
1.23275
1.23409
1.23553
1.23707
1.23873
1.24051
1.24243
1.2445
1.2467
1.24901
1.25136
1.25361
1.25555
1.25694
1.25748
1.25724
1.19325
1.19278
1.19267
1.19285
1.19325
1.19377
1.19435
1.19494
1.19549
1.196
1.19647
1.19688
1.19724
1.19756
1.19783
1.19807
1.19828
1.19846
1.19861
1.19874
1.19886
1.19895
1.19903
1.1991
1.19915
1.19919
1.19922
1.19924
1.19926
1.19926
1.19926
1.19926
1.19925
1.19923
1.19921
1.19918
1.19915
1.19912
1.19909
1.19905
1.19901
1.19897
1.19893
1.19889
1.19885
1.19881
1.19876
1.19872
1.19868
1.19865
1.19861
1.19858
1.19855
1.19852
1.1985
1.19849
1.19847
1.19847
1.19847
1.19847
1.19848
1.1985
1.19853
1.19856
1.1986
1.19865
1.19871
1.19877
1.19884
1.19893
1.19902
1.19911
1.19922
1.19934
1.19946
1.19959
1.19973
1.19988
1.20003
1.2002
1.20037
1.20054
1.20073
1.20092
1.20111
1.20131
1.20152
1.20173
1.20195
1.20217
1.20239
1.20261
1.20284
1.20306
1.20329
1.20351
1.20374
1.20396
1.20418
1.20439
1.2046
1.20481
1.20501
1.2052
1.20539
1.20557
1.20575
1.20592
1.20607
1.20622
1.20636
1.20649
1.20661
1.20671
1.20681
1.20689
1.20696
1.20702
1.20707
1.2071
1.20713
1.20714
1.20714
1.20713
1.20712
1.20709
1.20705
1.20701
1.20696
1.20691
1.20684
1.20678
1.20671
1.20663
1.20656
1.20648
1.20639
1.20631
1.20622
1.20614
1.20605
1.20596
1.20587
1.20579
1.2057
1.20561
1.20552
1.20544
1.20535
1.20526
1.20518
1.2051
1.20501
1.20493
1.20485
1.20477
1.20469
1.20461
1.20453
1.20445
1.20438
1.2043
1.20422
1.20415
1.20407
1.204
1.20392
1.20385
1.20378
1.2037
1.20363
1.20355
1.20348
1.20341
1.20334
1.20326
1.20319
1.20312
1.20304
1.20297
1.2029
1.20283
1.20276
1.20268
1.20261
1.20254
1.20247
1.2024
1.20233
1.20226
1.20219
1.20212
1.20205
1.20199
1.20192
1.20186
1.20179
1.20173
1.20167
1.20161
1.20155
1.20149
1.20143
1.20138
1.20132
1.20127
1.20122
1.20117
1.20113
1.20108
1.20104
1.201
1.20096
1.20093
1.20089
1.20086
1.20084
1.20081
1.20079
1.20077
1.20076
1.20074
1.20073
1.20073
1.20073
1.20073
1.20073
1.20074
1.20076
1.20078
1.2008
1.20083
1.20086
1.2009
1.20095
1.20099
1.20105
1.20111
1.20118
1.20125
1.20134
1.20142
1.20152
1.20162
1.20173
1.20185
1.20197
1.20211
1.20225
1.2024
1.20256
1.20272
1.2029
1.20308
1.20328
1.20348
1.20369
1.20391
1.20413
1.20437
1.20461
1.20486
1.20512
1.20538
1.20566
1.20593
1.20621
1.2065
1.20679
1.20708
1.20738
1.20768
1.20797
1.20827
1.20857
1.20886
1.20915
1.20944
1.20972
1.21
1.21026
1.21053
1.21078
1.21102
1.21126
1.21149
1.2117
1.21191
1.2121
1.21229
1.21247
1.21263
1.21279
1.21294
1.21307
1.2132
1.21333
1.21344
1.21355
1.21364
1.21374
1.21382
1.21391
1.21398
1.21405
1.21412
1.21418
1.21423
1.21429
1.21434
1.21438
1.21442
1.21446
1.21449
1.21452
1.21454
1.21457
1.21458
1.2146
1.21461
1.21461
1.21461
1.21461
1.2146
1.21459
1.21458
1.21456
1.21454
1.21452
1.21449
1.21446
1.21443
1.2144
1.21436
1.21433
1.2143
1.21427
1.21423
1.21421
1.21418
1.21416
1.21415
1.21414
1.21413
1.21414
1.21415
1.21418
1.21421
1.21426
1.21432
1.21439
1.21448
1.21458
1.2147
1.21484
1.21499
1.21517
1.21536
1.21558
1.21582
1.21609
1.21638
1.21669
1.21703
1.2174
1.2178
1.21823
1.21868
1.21917
1.21969
1.22024
1.22083
1.22145
1.22211
1.22281
1.22355
1.22433
1.22515
1.22602
1.22694
1.2279
1.22893
1.23001
1.23115
1.23236
1.23365
1.23501
1.23646
1.238
1.23964
1.24138
1.2432
1.2451
1.24701
1.24887
1.25056
1.25192
1.25281
1.25311
1.25278
1.19428
1.19389
1.19374
1.1938
1.19404
1.19439
1.19481
1.19525
1.19569
1.19612
1.19651
1.19687
1.19719
1.19748
1.19774
1.19797
1.19817
1.19834
1.19849
1.19862
1.19874
1.19883
1.19891
1.19898
1.19904
1.19908
1.19911
1.19914
1.19916
1.19917
1.19917
1.19917
1.19916
1.19914
1.19912
1.1991
1.19908
1.19905
1.19901
1.19898
1.19894
1.1989
1.19886
1.19882
1.19878
1.19874
1.1987
1.19866
1.19862
1.19858
1.19855
1.19852
1.19849
1.19846
1.19844
1.19843
1.19841
1.19841
1.19841
1.19841
1.19842
1.19844
1.19847
1.1985
1.19854
1.19859
1.19865
1.19872
1.19879
1.19887
1.19897
1.19907
1.19917
1.19929
1.19942
1.19955
1.19969
1.19984
1.2
1.20016
1.20033
1.20051
1.2007
1.20089
1.20109
1.20129
1.2015
1.20172
1.20194
1.20216
1.20238
1.20261
1.20284
1.20306
1.20329
1.20352
1.20375
1.20397
1.20419
1.20441
1.20462
1.20483
1.20503
1.20523
1.20542
1.2056
1.20578
1.20595
1.20611
1.20626
1.2064
1.20652
1.20664
1.20675
1.20684
1.20692
1.20699
1.20705
1.2071
1.20713
1.20715
1.20716
1.20716
1.20714
1.20712
1.20709
1.20705
1.20701
1.20695
1.20689
1.20683
1.20676
1.20669
1.20661
1.20653
1.20645
1.20636
1.20628
1.20619
1.2061
1.20601
1.20592
1.20584
1.20575
1.20566
1.20557
1.20548
1.20539
1.20531
1.20522
1.20514
1.20505
1.20497
1.20489
1.20481
1.20473
1.20465
1.20457
1.20449
1.20441
1.20433
1.20426
1.20418
1.20411
1.20403
1.20396
1.20388
1.20381
1.20373
1.20366
1.20359
1.20351
1.20344
1.20337
1.2033
1.20322
1.20315
1.20308
1.20301
1.20293
1.20286
1.20279
1.20272
1.20265
1.20258
1.20251
1.20244
1.20236
1.2023
1.20223
1.20216
1.20209
1.20202
1.20196
1.20189
1.20183
1.20176
1.2017
1.20164
1.20158
1.20152
1.20146
1.2014
1.20135
1.20129
1.20124
1.20119
1.20114
1.2011
1.20105
1.20101
1.20097
1.20093
1.2009
1.20087
1.20084
1.20081
1.20078
1.20076
1.20074
1.20073
1.20071
1.2007
1.2007
1.2007
1.2007
1.2007
1.20071
1.20073
1.20074
1.20077
1.20079
1.20083
1.20087
1.20091
1.20096
1.20101
1.20107
1.20114
1.20121
1.2013
1.20138
1.20148
1.20158
1.20169
1.20181
1.20193
1.20207
1.20221
1.20236
1.20252
1.20268
1.20286
1.20305
1.20324
1.20344
1.20365
1.20387
1.2041
1.20434
1.20458
1.20484
1.2051
1.20536
1.20564
1.20592
1.2062
1.20649
1.20679
1.20708
1.20738
1.20768
1.20799
1.20829
1.20859
1.20889
1.20918
1.20947
1.20976
1.21003
1.21031
1.21057
1.21083
1.21107
1.21131
1.21153
1.21175
1.21196
1.21215
1.21234
1.21251
1.21268
1.21283
1.21298
1.21311
1.21324
1.21336
1.21347
1.21357
1.21367
1.21376
1.21384
1.21392
1.214
1.21407
1.21413
1.21419
1.21424
1.21429
1.21434
1.21438
1.21442
1.21446
1.21449
1.21452
1.21454
1.21457
1.21458
1.2146
1.2146
1.21461
1.21461
1.21461
1.2146
1.21459
1.21457
1.21455
1.21453
1.2145
1.21447
1.21444
1.21441
1.21437
1.21434
1.2143
1.21426
1.21423
1.21419
1.21416
1.21413
1.21411
1.21409
1.21408
1.21407
1.21407
1.21408
1.2141
1.21414
1.21418
1.21423
1.2143
1.21439
1.21449
1.2146
1.21474
1.21489
1.21506
1.21526
1.21547
1.21571
1.21597
1.21626
1.21657
1.2169
1.21727
1.21766
1.21808
1.21854
1.21902
1.21953
1.22008
1.22066
1.22128
1.22193
1.22261
1.22334
1.22411
1.22491
1.22576
1.22666
1.2276
1.22859
1.22964
1.23074
1.23189
1.23311
1.2344
1.23575
1.23717
1.23867
1.24022
1.24181
1.24343
1.245
1.24647
1.24774
1.24872
1.24931
1.24946
1.24911
1.19506
1.19473
1.19457
1.19458
1.19471
1.19494
1.19524
1.19558
1.19593
1.19627
1.1966
1.19691
1.1972
1.19746
1.19769
1.1979
1.19809
1.19825
1.1984
1.19853
1.19864
1.19873
1.19881
1.19888
1.19894
1.19898
1.19902
1.19905
1.19907
1.19908
1.19908
1.19908
1.19907
1.19906
1.19905
1.19902
1.199
1.19897
1.19894
1.19891
1.19887
1.19883
1.1988
1.19876
1.19872
1.19868
1.19864
1.1986
1.19856
1.19852
1.19849
1.19846
1.19843
1.1984
1.19838
1.19836
1.19835
1.19835
1.19835
1.19835
1.19836
1.19838
1.19841
1.19844
1.19849
1.19853
1.19859
1.19866
1.19874
1.19882
1.19891
1.19901
1.19912
1.19924
1.19937
1.1995
1.19965
1.1998
1.19996
1.20012
1.2003
1.20048
1.20066
1.20086
1.20106
1.20127
1.20148
1.2017
1.20192
1.20214
1.20237
1.2026
1.20283
1.20306
1.2033
1.20353
1.20375
1.20398
1.2042
1.20442
1.20464
1.20485
1.20506
1.20525
1.20545
1.20563
1.20581
1.20598
1.20614
1.20629
1.20643
1.20656
1.20668
1.20678
1.20688
1.20696
1.20703
1.20708
1.20712
1.20715
1.20717
1.20718
1.20717
1.20716
1.20713
1.2071
1.20705
1.207
1.20695
1.20688
1.20682
1.20674
1.20667
1.20659
1.2065
1.20642
1.20633
1.20624
1.20616
1.20606
1.20598
1.20588
1.20579
1.2057
1.20561
1.20552
1.20544
1.20535
1.20526
1.20518
1.20509
1.20501
1.20492
1.20484
1.20476
1.20468
1.2046
1.20452
1.20444
1.20436
1.20429
1.20421
1.20413
1.20406
1.20398
1.20391
1.20384
1.20376
1.20369
1.20362
1.20354
1.20347
1.2034
1.20332
1.20325
1.20318
1.20311