# vtk DataFile Version 2.0
LBE mesh
ASCII
DATASET STRUCTURED_POINTS
DIMENSIONS 400 100 1
ASPECT_RATIO 1 1 1
ORIGIN 0 0 0
POINT_DATA 40000
SCALARS rho double 1
LOOKUP_TABLE default
1.18656
1.28255
1.30977
1.31436
1.31642
1.31845
1.31997
1.32095
1.3216
1.32209
1.32246
1.32275
1.32298
1.32317
1.32332
1.32344
1.32353
1.32361
1.32366
1.32371
1.32374
1.32375
1.32376
1.32376
1.32375
1.32373
1.32371
1.32367
1.32363
1.32359
1.32354
1.32349
1.32343
1.32337
1.32331
1.32324
1.32317
1.3231
1.32303
1.32296
1.32288
1.32281
1.32273
1.32266
1.32259
1.32252
1.32245
1.32238
1.32232
1.32226
1.3222
1.32215
1.3221
1.32206
1.32202
1.32199
1.32197
1.32195
1.32194
1.32194
1.32195
1.32196
1.32198
1.32201
1.32205
1.3221
1.32216
1.32222
1.3223
1.32239
1.32248
1.32258
1.3227
1.32282
1.32295
1.32309
1.32324
1.32339
1.32356
1.32373
1.32391
1.3241
1.32429
1.32449
1.3247
1.32492
1.32514
1.32536
1.32559
1.32582
1.32606
1.3263
1.32655
1.32679
1.32704
1.32729
1.32754
1.32778
1.32803
1.32827
1.32852
1.32876
1.32899
1.32922
1.32945
1.32967
1.32988
1.33009
1.33029
1.33048
1.33066
1.33084
1.331
1.33116
1.3313
1.33144
1.33156
1.33167
1.33177
1.33186
1.33194
1.332
1.33206
1.3321
1.33213
1.33216
1.33217
1.33218
1.33217
1.33216
1.33214
1.33211
1.33208
1.33204
1.33199
1.33194
1.33189
1.33183
1.33177
1.3317
1.33164
1.33157
1.3315
1.33142
1.33135
1.33127
1.3312
1.33112
1.33105
1.33097
1.33089
1.33082
1.33074
1.33067
1.33059
1.33052
1.33045
1.33038
1.33031
1.33024
1.33017
1.3301
1.33003
1.32997
1.3299
1.32984
1.32978
1.32971
1.32965
1.32959
1.32954
1.32948
1.32942
1.32936
1.32931
1.32925
1.3292
1.32915
1.32909
1.32904
1.32899
1.32894
1.32889
1.32884
1.32879
1.32874
1.3287
1.32865
1.3286
1.32856
1.32851
1.32847
1.32843
1.32838
1.32834
1.3283
1.32826
1.32822
1.32818
1.32815
1.32811
1.32808
1.32805
1.32802
1.32799
1.32796
1.32794
1.32791
1.32789
1.32787
1.32786
1.32784
1.32783
1.32783
1.32782
1.32782
1.32783
1.32783
1.32785
1.32786
1.32788
1.3279
1.32793
1.32797
1.32801
1.32805
1.3281
1.32816
1.32822
1.32829
1.32837
1.32845
1.32854
1.32864
1.32874
1.32885
1.32897
1.3291
1.32923
1.32938
1.32953
1.32969
1.32986
1.33004
1.33023
1.33042
1.33063
1.33084
1.33107
1.3313
1.33154
1.33179
1.33205
1.33232
1.3326
1.33288
1.33318
1.33348
1.33379
1.3341
1.33443
1.33476
1.33509
1.33544
1.33578
1.33613
1.33649
1.33684
1.3372
1.33757
1.33793
1.33829
1.33865
1.33901
1.33936
1.33972
1.34006
1.34041
1.34074
1.34107
1.34139
1.3417
1.34201
1.3423
1.34258
1.34286
1.34312
1.34337
1.3436
1.34383
1.34404
1.34425
1.34444
1.34462
1.34478
1.34494
1.34509
1.34523
1.34535
1.34547
1.34558
1.34568
1.34577
1.34586
1.34594
1.34601
1.34608
1.34614
1.34619
1.34624
1.34629
1.34633
1.34637
1.3464
1.34643
1.34646
1.34648
1.3465
1.34652
1.34654
1.34655
1.34657
1.34658
1.34659
1.3466
1.34661
1.34661
1.34662
1.34663
1.34664
1.34665
1.34666
1.34667
1.34669
1.3467
1.34673
1.34675
1.34678
1.34682
1.34686
1.34691
1.34696
1.34703
1.3471
1.34718
1.34728
1.34738
1.3475
1.34763
1.34777
1.34793
1.34811
1.3483
1.34851
1.34874
1.34899
1.34926
1.34954
1.34986
1.35019
1.35055
1.35093
1.35134
1.35177
1.35224
1.35273
1.35325
1.3538
1.35439
1.35501
1.35566
1.35635
1.35708
1.35785
1.35866
1.35952
1.36042
1.36138
1.36239
1.36345
1.36459
1.36579
1.36708
1.36845
1.36992
1.37151
1.37323
1.3751
1.37716
1.37944
1.382
1.38492
1.38829
1.39227
1.39712
1.4034
1.4121
1.42433
1.44272
1.48096
1.27466
1.28256
1.29567
1.30748
1.31348
1.31639
1.31816
1.31945
1.3204
1.32111
1.32164
1.32205
1.32238
1.32264
1.32285
1.32302
1.32316
1.32327
1.32336
1.32343
1.32348
1.32352
1.32354
1.32356
1.32356
1.32355
1.32354
1.32352
1.32349
1.32345
1.32341
1.32337
1.32332
1.32326
1.3232
1.32314
1.32308
1.32301
1.32294
1.32287
1.3228
1.32273
1.32266
1.32259
1.32252
1.32245
1.32239
1.32232
1.32226
1.32221
1.32215
1.3221
1.32206
1.32202
1.32199
1.32196
1.32194
1.32192
1.32192
1.32192
1.32193
1.32194
1.32197
1.322
1.32204
1.32209
1.32215
1.32222
1.3223
1.32238
1.32248
1.32259
1.3227
1.32282
1.32296
1.3231
1.32325
1.3234
1.32357
1.32374
1.32392
1.32411
1.32431
1.32451
1.32472
1.32493
1.32515
1.32538
1.32561
1.32584
1.32608
1.32632
1.32657
1.32681
1.32706
1.3273
1.32755
1.3278
1.32804
1.32829
1.32853
1.32877
1.329
1.32923
1.32946
1.32967
1.32989
1.33009
1.33029
1.33048
1.33066
1.33083
1.331
1.33115
1.33129
1.33142
1.33154
1.33165
1.33175
1.33184
1.33191
1.33198
1.33203
1.33208
1.33211
1.33213
1.33214
1.33215
1.33214
1.33213
1.33211
1.33208
1.33205
1.33201
1.33197
1.33192
1.33186
1.3318
1.33174
1.33168
1.33161
1.33154
1.33147
1.3314
1.33133
1.33125
1.33118
1.3311
1.33102
1.33095
1.33087
1.3308
1.33072
1.33065
1.33058
1.3305
1.33043
1.33036
1.33029
1.33022
1.33015
1.33009
1.33002
1.32995
1.32989
1.32983
1.32977
1.3297
1.32964
1.32958
1.32953
1.32947
1.32941
1.32936
1.3293
1.32925
1.32919
1.32914
1.32909
1.32904
1.32898
1.32893
1.32888
1.32883
1.32879
1.32874
1.32869
1.32864
1.3286
1.32855
1.32851
1.32846
1.32842
1.32838
1.32834
1.3283
1.32826
1.32822
1.32818
1.32815
1.32811
1.32808
1.32805
1.32802
1.32799
1.32796
1.32794
1.32791
1.32789
1.32787
1.32786
1.32785
1.32784
1.32783
1.32783
1.32783
1.32783
1.32784
1.32785
1.32787
1.32789
1.32791
1.32794
1.32798
1.32802
1.32806
1.32812
1.32817
1.32824
1.32831
1.32838
1.32847
1.32856
1.32865
1.32876
1.32887
1.32899
1.32912
1.32926
1.3294
1.32955
1.32972
1.32989
1.33007
1.33025
1.33045
1.33066
1.33087
1.3311
1.33133
1.33157
1.33183
1.33209
1.33235
1.33263
1.33292
1.33321
1.33351
1.33382
1.33414
1.33446
1.33479
1.33513
1.33547
1.33582
1.33617
1.33652
1.33688
1.33724
1.3376
1.33796
1.33832
1.33868
1.33904
1.33939
1.33974
1.34009
1.34043
1.34076
1.34109
1.34141
1.34172
1.34202
1.34231
1.34259
1.34286
1.34312
1.34336
1.3436
1.34382
1.34404
1.34424
1.34443
1.3446
1.34477
1.34493
1.34507
1.34521
1.34534
1.34545
1.34556
1.34566
1.34576
1.34584
1.34592
1.34599
1.34606
1.34612
1.34618
1.34623
1.34627
1.34631
1.34635
1.34639
1.34642
1.34644
1.34647
1.34649
1.34651
1.34653
1.34654
1.34656
1.34657
1.34658
1.34659
1.3466
1.3466
1.34661
1.34662
1.34663
1.34664
1.34665
1.34667
1.34668
1.3467
1.34672
1.34675
1.34678
1.34682
1.34686
1.34691
1.34697
1.34703
1.34711
1.34719
1.34729
1.3474
1.34752
1.34765
1.3478
1.34796
1.34814
1.34833
1.34854
1.34878
1.34903
1.3493
1.34959
1.3499
1.35024
1.3506
1.35099
1.3514
1.35184
1.35231
1.35281
1.35333
1.35389
1.35448
1.3551
1.35576
1.35646
1.35719
1.35797
1.35879
1.35965
1.36056
1.36152
1.36254
1.36362
1.36477
1.36599
1.36729
1.36869
1.37018
1.3718
1.37356
1.37548
1.3776
1.37995
1.38262
1.38566
1.38921
1.39345
1.39869
1.40531
1.41394
1.42663
1.44869
1.48327
1.2962
1.29208
1.30029
1.30726
1.31149
1.31454
1.31675
1.31831
1.31942
1.32026
1.32091
1.32142
1.32182
1.32215
1.32241
1.32263
1.32281
1.32295
1.32307
1.32316
1.32323
1.32329
1.32333
1.32336
1.32338
1.32338
1.32338
1.32336
1.32334
1.32332
1.32328
1.32324
1.3232
1.32315
1.3231
1.32304
1.32298
1.32292
1.32285
1.32279
1.32272
1.32265
1.32259
1.32252
1.32245
1.32239
1.32233
1.32226
1.32221
1.32215
1.3221
1.32206
1.32201
1.32198
1.32195
1.32192
1.3219
1.32189
1.32188
1.32189
1.3219
1.32191
1.32194
1.32198
1.32202
1.32207
1.32213
1.3222
1.32228
1.32237
1.32247
1.32258
1.32269
1.32282
1.32295
1.3231
1.32325
1.3234
1.32357
1.32375
1.32393
1.32412
1.32432
1.32452
1.32473
1.32494
1.32517
1.32539
1.32562
1.32586
1.3261
1.32634
1.32658
1.32683
1.32707
1.32732
1.32757
1.32781
1.32806
1.3283
1.32854
1.32878
1.32901
1.32924
1.32947
1.32968
1.3299
1.3301
1.3303
1.33049
1.33067
1.33084
1.331
1.33115
1.33129
1.33142
1.33154
1.33165
1.33174
1.33183
1.3319
1.33197
1.33202
1.33206
1.33209
1.33211
1.33212
1.33213
1.33212
1.33211
1.33209
1.33206
1.33203
1.33198
1.33194
1.33189
1.33184
1.33178
1.33172
1.33165
1.33159
1.33152
1.33145
1.33138
1.3313
1.33123
1.33115
1.33108
1.331
1.33093
1.33085
1.33078
1.33071
1.33063
1.33056
1.33049
1.33042
1.33035
1.33028
1.33021
1.33014
1.33007
1.33001
1.32994
1.32988
1.32982
1.32976
1.32969
1.32963
1.32958
1.32952
1.32946
1.3294
1.32935
1.32929
1.32924
1.32919
1.32913
1.32908
1.32903
1.32898
1.32893
1.32888
1.32883
1.32878
1.32873
1.32869
1.32864
1.32859
1.32855
1.3285
1.32846
1.32842
1.32837
1.32833
1.32829
1.32825
1.32822
1.32818
1.32814
1.32811
1.32807
1.32804
1.32801
1.32798
1.32796
1.32793
1.32791
1.32789
1.32787
1.32786
1.32785
1.32784
1.32783
1.32783
1.32783
1.32783
1.32784
1.32785
1.32787
1.32789
1.32792
1.32795
1.32798
1.32802
1.32807
1.32812
1.32818
1.32824
1.32831
1.32839
1.32848
1.32857
1.32866
1.32877
1.32888
1.329
1.32913
1.32927
1.32942
1.32957
1.32973
1.3299
1.33008
1.33027
1.33047
1.33068
1.33089
1.33112
1.33135
1.3316
1.33185
1.33211
1.33238
1.33266
1.33295
1.33324
1.33354
1.33385
1.33417
1.33449
1.33483
1.33516
1.3355
1.33585
1.3362
1.33655
1.33691
1.33727
1.33763
1.33799
1.33835
1.33871
1.33906
1.33942
1.33977
1.34011
1.34045
1.34078
1.34111
1.34143
1.34174
1.34203
1.34232
1.3426
1.34287
1.34313
1.34337
1.34361
1.34383
1.34404
1.34424
1.34443
1.3446
1.34477
1.34492
1.34507
1.3452
1.34533
1.34545
1.34555
1.34565
1.34575
1.34583
1.34591
1.34598
1.34605
1.34611
1.34616
1.34621
1.34626
1.3463
1.34634
1.34637
1.3464
1.34643
1.34646
1.34648
1.3465
1.34652
1.34653
1.34654
1.34656
1.34657
1.34658
1.34659
1.34659
1.3466
1.34661
1.34662
1.34663
1.34664
1.34666
1.34667
1.34669
1.34671
1.34674
1.34677
1.34681
1.34686
1.34691
1.34696
1.34703
1.34711
1.34719
1.34729
1.3474
1.34752
1.34766
1.3478
1.34797
1.34815
1.34835
1.34856
1.34879
1.34905
1.34932
1.34961
1.34993
1.35027
1.35064
1.35103
1.35144
1.35188
1.35235
1.35285
1.35338
1.35394
1.35454
1.35516
1.35583
1.35653
1.35726
1.35804
1.35887
1.35973
1.36065
1.36162
1.36264
1.36373
1.36488
1.36611
1.36742
1.36882
1.37033
1.37196
1.37372
1.37566
1.37779
1.38017
1.38285
1.38591
1.38946
1.39365
1.39872
1.40507
1.4133
1.42365
1.4349
1.44525
1.30396
1.30273
1.30515
1.308
1.31137
1.3141
1.31607
1.31756
1.31871
1.31961
1.32032
1.32089
1.32135
1.32172
1.32203
1.32228
1.32248
1.32266
1.3228
1.32291
1.323
1.32308
1.32313
1.32317
1.3232
1.32322
1.32322
1.32322
1.32321
1.32319
1.32316
1.32312
1.32309
1.32304
1.32299
1.32294
1.32289
1.32283
1.32277
1.3227
1.32264
1.32258
1.32251
1.32245
1.32238
1.32232
1.32226
1.3222
1.32215
1.32209
1.32205
1.322
1.32196
1.32193
1.3219
1.32187
1.32186
1.32185
1.32184
1.32185
1.32186
1.32188
1.32191
1.32194
1.32199
1.32204
1.32211
1.32218
1.32226
1.32235
1.32245
1.32256
1.32268
1.32281
1.32294
1.32309
1.32324
1.3234
1.32357
1.32374
1.32393
1.32412
1.32432
1.32452
1.32473
1.32495
1.32517
1.3254
1.32563
1.32587
1.32611
1.32635
1.32659
1.32684
1.32709
1.32733
1.32758
1.32783
1.32807
1.32832
1.32856
1.3288
1.32903
1.32926
1.32948
1.3297
1.32991
1.33011
1.33031
1.3305
1.33068
1.33085
1.33101
1.33116
1.3313
1.33143
1.33154
1.33165
1.33175
1.33183
1.3319
1.33196
1.33201
1.33205
1.33208
1.3321
1.33211
1.33211
1.33211
1.33209
1.33207
1.33204
1.33201
1.33196
1.33192
1.33187
1.33181
1.33176
1.33169
1.33163
1.33156
1.3315
1.33143
1.33135
1.33128
1.33121
1.33113
1.33106
1.33098
1.33091
1.33084
1.33076
1.33069
1.33062
1.33054
1.33047
1.3304
1.33033
1.33026
1.33019
1.33013
1.33006
1.33
1.32993
1.32987
1.32981
1.32974
1.32968
1.32962
1.32957
1.32951
1.32945
1.3294
1.32934
1.32929
1.32923
1.32918
1.32913
1.32907
1.32902
1.32897
1.32892
1.32887
1.32882
1.32877
1.32873
1.32868
1.32863
1.32859
1.32854
1.3285
1.32845
1.32841
1.32837
1.32833
1.32829
1.32825
1.32821
1.32817
1.32814
1.3281
1.32807
1.32804
1.32801
1.32798
1.32795
1.32793
1.32791
1.32789
1.32787
1.32786
1.32784
1.32784
1.32783
1.32783
1.32783
1.32783
1.32784
1.32785
1.32787
1.32789
1.32792
1.32795
1.32798
1.32802
1.32807
1.32812
1.32818
1.32825
1.32832
1.32839
1.32848
1.32857
1.32867
1.32878
1.32889
1.32901
1.32914
1.32928
1.32942
1.32958
1.32974
1.32991
1.33009
1.33028
1.33048
1.33069
1.33091
1.33113
1.33137
1.33161
1.33187
1.33213
1.3324
1.33268
1.33297
1.33326
1.33356
1.33388
1.33419
1.33452
1.33485
1.33519
1.33553
1.33588
1.33623
1.33658
1.33694
1.3373
1.33766
1.33802
1.33838
1.33874
1.3391
1.33945
1.3398
1.34014
1.34048
1.34081
1.34114
1.34145
1.34176
1.34206
1.34235
1.34263
1.34289
1.34315
1.34339
1.34362
1.34384
1.34405
1.34425
1.34443
1.34461
1.34477
1.34493
1.34507
1.3452
1.34533
1.34544
1.34555
1.34565
1.34574
1.34582
1.3459
1.34597
1.34604
1.3461
1.34615
1.3462
1.34625
1.34629
1.34633
1.34636
1.34639
1.34642
1.34645
1.34647
1.34649
1.34651
1.34652
1.34653
1.34655
1.34656
1.34657
1.34658
1.34659
1.34659
1.3466
1.34661
1.34662
1.34663
1.34665
1.34666
1.34668
1.3467
1.34673
1.34676
1.3468
1.34685
1.3469
1.34695
1.34702
1.3471
1.34719
1.34728
1.34739
1.34751
1.34765
1.3478
1.34796
1.34815
1.34834
1.34856
1.34879
1.34905
1.34932
1.34962
1.34994
1.35028
1.35065
1.35104
1.35145
1.3519
1.35237
1.35287
1.3534
1.35396
1.35456
1.35519
1.35585
1.35656
1.3573
1.35808
1.3589
1.35977
1.36069
1.36166
1.36268
1.36377
1.36492
1.36615
1.36746
1.36885
1.37035
1.37197
1.37373
1.37565
1.37776
1.3801
1.38272
1.38569
1.38909
1.39303
1.39766
1.4031
1.4094
1.41638
1.42205
1.42214
1.30862
1.30818
1.3087
1.31031
1.31241
1.31428
1.31589
1.31723
1.31832
1.31919
1.3199
1.32049
1.32097
1.32136
1.32169
1.32197
1.3222
1.32239
1.32255
1.32268
1.32279
1.32287
1.32294
1.323
1.32303
1.32306
1.32307
1.32308
1.32307
1.32306
1.32304
1.32301
1.32297
1.32293
1.32289
1.32284
1.32279
1.32274
1.32268
1.32262
1.32256
1.3225
1.32243
1.32237
1.32231
1.32225
1.32219
1.32214
1.32208
1.32203
1.32199
1.32194
1.3219
1.32187
1.32184
1.32182
1.32181
1.3218
1.3218
1.3218
1.32182
1.32184
1.32187
1.32191
1.32195
1.32201
1.32207
1.32215
1.32223
1.32232
1.32243
1.32254
1.32266
1.32278
1.32292
1.32307
1.32322
1.32338
1.32355
1.32373
1.32392
1.32411
1.32431
1.32452
1.32473
1.32495
1.32517
1.3254
1.32563
1.32587
1.32611
1.32635
1.3266
1.32685
1.3271
1.32735
1.3276
1.32784
1.32809
1.32833
1.32858
1.32881
1.32905
1.32928
1.3295
1.32972
1.32993
1.33013
1.33033
1.33052
1.3307
1.33087
1.33103
1.33117
1.33131
1.33144
1.33156
1.33166
1.33176
1.33184
1.33191
1.33197
1.33202
1.33205
1.33208
1.3321
1.33211
1.33211
1.3321
1.33208
1.33206
1.33203
1.33199
1.33195
1.3319
1.33185
1.3318
1.33174
1.33167
1.33161
1.33154
1.33147
1.3314
1.33133
1.33126
1.33119
1.33111
1.33104
1.33097
1.33089
1.33082
1.33074
1.33067
1.3306
1.33053
1.33046
1.33039
1.33032
1.33025
1.33018
1.33011
1.33005
1.32998
1.32992
1.32986
1.3298
1.32973
1.32967
1.32962
1.32956
1.3295
1.32944
1.32939
1.32933
1.32928
1.32922
1.32917
1.32912
1.32907
1.32902
1.32897
1.32892
1.32887
1.32882
1.32877
1.32872
1.32867
1.32863
1.32858
1.32854
1.32849
1.32845
1.32841
1.32836
1.32832
1.32828
1.32824
1.32821
1.32817
1.32813
1.3281
1.32807
1.32803
1.328
1.32798
1.32795
1.32793
1.3279
1.32788
1.32787
1.32785
1.32784
1.32783
1.32782
1.32782
1.32782
1.32783
1.32784
1.32785
1.32787
1.32789
1.32791
1.32794
1.32798
1.32802
1.32807
1.32812
1.32818
1.32824
1.32831
1.32839
1.32848
1.32857
1.32867
1.32877
1.32889
1.32901
1.32914
1.32928
1.32942
1.32958
1.32974
1.32992
1.3301
1.33029
1.33049
1.3307
1.33091
1.33114
1.33138
1.33162
1.33187
1.33214
1.33241
1.33269
1.33298
1.33327
1.33358
1.33389
1.33421
1.33454
1.33487
1.33521
1.33555
1.3359
1.33625
1.33661
1.33697
1.33733
1.33769
1.33805
1.33841
1.33877
1.33913
1.33948
1.33983
1.34018
1.34052
1.34085
1.34117
1.34149
1.3418
1.34209
1.34238
1.34266
1.34292
1.34318
1.34342
1.34365
1.34387
1.34407
1.34427
1.34445
1.34462
1.34479
1.34494
1.34508
1.34521
1.34533
1.34545
1.34555
1.34565
1.34574
1.34582
1.3459
1.34597
1.34603
1.34609
1.34615
1.3462
1.34624
1.34628
1.34632
1.34635
1.34639
1.34641
1.34644
1.34646
1.34648
1.3465
1.34651
1.34653
1.34654
1.34655
1.34656
1.34657
1.34658
1.34658
1.34659
1.3466
1.34661
1.34662
1.34663
1.34665
1.34667
1.34669
1.34672
1.34675
1.34679
1.34683
1.34688
1.34694
1.34701
1.34708
1.34717
1.34727
1.34738
1.3475
1.34763
1.34778
1.34795
1.34813
1.34833
1.34854
1.34878
1.34903
1.34931
1.3496
1.34992
1.35027
1.35063
1.35102
1.35144
1.35189
1.35236
1.35286
1.35339
1.35396
1.35455
1.35518
1.35585
1.35655
1.35729
1.35807
1.35889
1.35976
1.36067
1.36164
1.36266
1.36374
1.36489
1.36611
1.3674
1.36878
1.37026
1.37186
1.37358
1.37546
1.3775
1.37976
1.38226
1.38505
1.38819
1.39172
1.39569
1.40007
1.40457
1.40859
1.41133
1.41059
1.31204
1.31144
1.31153
1.31242
1.3136
1.31489
1.31614
1.31723
1.31817
1.31897
1.31964
1.32021
1.32069
1.32109
1.32143
1.32171
1.32196
1.32216
1.32233
1.32247
1.32259
1.32269
1.32277
1.32283
1.32288
1.32291
1.32293
1.32294
1.32294
1.32294
1.32292
1.3229
1.32287
1.32283
1.32279
1.32275
1.3227
1.32265
1.32259
1.32254
1.32248
1.32242
1.32236
1.3223
1.32224
1.32218
1.32212
1.32207
1.32202
1.32197
1.32192
1.32188
1.32184
1.32181
1.32179
1.32176
1.32175
1.32174
1.32174
1.32175
1.32177
1.32179
1.32182
1.32186
1.32191
1.32197
1.32203
1.32211
1.32219
1.32229
1.32239
1.3225
1.32263
1.32276
1.32289
1.32304
1.3232
1.32336
1.32353
1.32371
1.3239
1.32409
1.3243
1.3245
1.32472
1.32494
1.32516
1.32539
1.32563
1.32587
1.32611
1.32636
1.32661
1.32686
1.32711
1.32736
1.32761
1.32786
1.3281
1.32835
1.32859
1.32883
1.32907
1.3293
1.32952
1.32974
1.32995
1.33016
1.33035
1.33054
1.33072
1.33089
1.33105
1.3312
1.33134
1.33146
1.33158
1.33168
1.33177
1.33185
1.33192
1.33198
1.33203
1.33206
1.33209
1.3321
1.33211
1.3321
1.33209
1.33208
1.33205
1.33202
1.33198
1.33194
1.33189
1.33184
1.33178
1.33172
1.33166
1.33159
1.33153
1.33146
1.33139
1.33131
1.33124
1.33117
1.33109
1.33102
1.33095
1.33087
1.3308
1.33073
1.33065
1.33058
1.33051
1.33044
1.33037
1.3303
1.33023
1.33017
1.3301
1.33004
1.32997
1.32991
1.32985
1.32978
1.32972
1.32966
1.32961
1.32955
1.32949
1.32943
1.32938
1.32932
1.32927
1.32922
1.32916
1.32911
1.32906
1.32901
1.32896
1.32891
1.32886
1.32881
1.32876
1.32872
1.32867
1.32862
1.32858
1.32853
1.32849
1.32844
1.3284
1.32836
1.32832
1.32828
1.32824
1.3282
1.32816
1.32813
1.32809
1.32806
1.32803
1.328
1.32797
1.32794
1.32792
1.3279
1.32788
1.32786
1.32784
1.32783
1.32782
1.32782
1.32781
1.32781
1.32782
1.32783
1.32784
1.32786
1.32788
1.3279
1.32793
1.32797
1.32801
1.32806
1.32811
1.32817
1.32823
1.3283
1.32838
1.32847
1.32856
1.32866
1.32876
1.32888
1.329
1.32913
1.32927
1.32942
1.32957
1.32974
1.32991
1.33009
1.33028
1.33048
1.33069
1.33091
1.33114
1.33137
1.33162
1.33187
1.33214
1.33241
1.33269
1.33298
1.33328
1.33358
1.3339
1.33422
1.33455
1.33488
1.33522
1.33557
1.33592
1.33627
1.33663
1.33699
1.33735
1.33771
1.33808
1.33844
1.3388
1.33916
1.33952
1.33987
1.34021
1.34055
1.34089
1.34121
1.34153
1.34184
1.34213
1.34242
1.3427
1.34296
1.34321
1.34345
1.34368
1.3439
1.3441
1.3443
1.34448
1.34465
1.34481
1.34496
1.3451
1.34523
1.34535
1.34546
1.34556
1.34566
1.34575
1.34583
1.3459
1.34597
1.34603
1.34609
1.34615
1.34619
1.34624
1.34628
1.34632
1.34635
1.34638
1.34641
1.34643
1.34645
1.34647
1.34649
1.34651
1.34652
1.34653
1.34654
1.34655
1.34656
1.34657
1.34657
1.34658
1.34659
1.3466
1.34661
1.34662
1.34664
1.34665
1.34668
1.3467
1.34673
1.34677
1.34681
1.34686
1.34692
1.34698
1.34706
1.34714
1.34724
1.34735
1.34747
1.3476
1.34775
1.34792
1.3481
1.3483
1.34851
1.34875
1.349
1.34927
1.34957
1.34989
1.35023
1.3506
1.35099
1.35141
1.35185
1.35232
1.35282
1.35336
1.35392
1.35451
1.35514
1.3558
1.3565
1.35724
1.35802
1.35884
1.3597
1.36061
1.36157
1.36258
1.36365
1.36478
1.36598
1.36726
1.36861
1.37006
1.37161
1.37328
1.37509
1.37705
1.37918
1.38151
1.38407
1.38688
1.38994
1.39319
1.39653
1.39967
1.40209
1.40331
1.40301
1.31436
1.3137
1.31366
1.31409
1.3148
1.31568
1.31658
1.31744
1.31823
1.31892
1.31952
1.32005
1.3205
1.32089
1.32122
1.32151
1.32176
1.32196
1.32214
1.32229
1.32242
1.32252
1.32261
1.32268
1.32273
1.32277
1.3228
1.32281
1.32282
1.32282
1.32281
1.32279
1.32276
1.32273
1.32269
1.32265
1.32261
1.32256
1.32251
1.32245
1.3224
1.32234
1.32228
1.32222
1.32216
1.32211
1.32205
1.322
1.32195
1.3219
1.32185
1.32181
1.32178
1.32175
1.32172
1.3217
1.32169
1.32168
1.32168
1.32169
1.32171
1.32173
1.32177
1.32181
1.32186
1.32192
1.32199
1.32206
1.32215
1.32225
1.32235
1.32246
1.32259
1.32272
1.32286
1.32301
1.32317
1.32333
1.32351
1.32369
1.32388
1.32407
1.32428
1.32449
1.3247
1.32492
1.32515
1.32539
1.32562
1.32586
1.32611
1.32636
1.32661
1.32686
1.32711
1.32737
1.32762
1.32787
1.32812
1.32837
1.32861
1.32885
1.32909
1.32932
1.32954
1.32976
1.32998
1.33018
1.33038
1.33057
1.33075
1.33092
1.33108
1.33123
1.33137
1.33149
1.33161
1.33171
1.3318
1.33188
1.33194
1.332
1.33204
1.33207
1.3321
1.33211
1.33211
1.33211
1.3321
1.33207
1.33205
1.33201
1.33197
1.33193
1.33188
1.33182
1.33177
1.33171
1.33164
1.33158
1.33151
1.33144
1.33137
1.33129
1.33122
1.33115
1.33108
1.331
1.33093
1.33085
1.33078
1.33071
1.33064
1.33056
1.33049
1.33042
1.33035
1.33029
1.33022
1.33015
1.33009
1.33002
1.32996
1.3299
1.32984
1.32977
1.32971
1.32965
1.3296
1.32954
1.32948
1.32943
1.32937
1.32932
1.32926
1.32921
1.32916
1.32911
1.32906
1.329
1.32895
1.3289
1.32886
1.32881
1.32876
1.32871
1.32866
1.32862
1.32857
1.32853
1.32848
1.32844
1.3284
1.32835
1.32831
1.32827
1.32823
1.32819
1.32816
1.32812
1.32809
1.32805
1.32802
1.32799
1.32796
1.32794
1.32791
1.32789
1.32787
1.32785
1.32784
1.32782
1.32781
1.32781
1.3278
1.3278
1.32781
1.32782
1.32783
1.32784
1.32787
1.32789
1.32792
1.32796
1.328
1.32804
1.3281
1.32815
1.32822
1.32829
1.32837
1.32845
1.32854
1.32864
1.32875
1.32886
1.32899
1.32912
1.32926
1.3294
1.32956
1.32972
1.3299
1.33008
1.33027
1.33047
1.33068
1.3309
1.33113
1.33136
1.33161
1.33187
1.33213
1.3324
1.33269
1.33298
1.33328
1.33358
1.3339
1.33422
1.33455
1.33489
1.33523
1.33558
1.33593
1.33628
1.33664
1.33701
1.33737
1.33774
1.3381
1.33847
1.33883
1.3392
1.33955
1.33991
1.34026
1.3406
1.34093
1.34126
1.34158
1.34188
1.34218
1.34247
1.34274
1.34301
1.34326
1.3435
1.34372
1.34394
1.34414
1.34433
1.34451
1.34468
1.34484
1.34498
1.34512
1.34525
1.34536
1.34547
1.34557
1.34567
1.34575
1.34583
1.34591
1.34598
1.34604
1.34609
1.34615
1.34619
1.34624
1.34628
1.34631
1.34635
1.34638
1.3464
1.34643
1.34645
1.34647
1.34648
1.3465
1.34651
1.34652
1.34653
1.34654
1.34655
1.34656
1.34656
1.34657
1.34658
1.34659
1.34659
1.34661
1.34662
1.34664
1.34666
1.34668
1.34671
1.34674
1.34679
1.34683
1.34689
1.34695
1.34703
1.34711
1.34721
1.34731
1.34743
1.34757
1.34771
1.34788
1.34805
1.34825
1.34847
1.3487
1.34895
1.34922
1.34952
1.34984
1.35018
1.35054
1.35093
1.35135
1.35179
1.35226
1.35276
1.35329
1.35385
1.35444
1.35507
1.35573
1.35642
1.35715
1.35793
1.35874
1.35959
1.36049
1.36144
1.36244
1.36349
1.36461
1.36578
1.36703
1.36835
1.36975
1.37125
1.37285
1.37457
1.37641
1.3784
1.38054
1.38284
1.38529
1.38787
1.39048
1.39298
1.39514
1.39668
1.39728
1.39701
1.31595
1.31539
1.31526
1.31544
1.31588
1.31646
1.31711
1.31777
1.3184
1.31899
1.31951
1.31998
1.3204
1.32076
1.32108
1.32136
1.3216
1.32181
1.32199
1.32214
1.32227
1.32238
1.32247
1.32254
1.3226
1.32264
1.32268
1.3227
1.32271
1.32271
1.3227
1.32268
1.32266
1.32263
1.3226
1.32256
1.32252
1.32247
1.32242
1.32237
1.32231
1.32226
1.3222
1.32215
1.32209
1.32203
1.32198
1.32193
1.32188
1.32183
1.32179
1.32175
1.32171
1.32168
1.32166
1.32164
1.32163
1.32162
1.32162
1.32163
1.32165
1.32167
1.32171
1.32175
1.3218
1.32186
1.32193
1.32201
1.3221
1.3222
1.3223
1.32242
1.32254
1.32268
1.32282
1.32297
1.32313
1.3233
1.32347
1.32366
1.32385
1.32405
1.32425
1.32446
1.32468
1.3249
1.32514
1.32537
1.32561
1.32585
1.3261
1.32635
1.32661
1.32686
1.32712
1.32737
1.32763
1.32788
1.32813
1.32838
1.32863
1.32887
1.32911
1.32934
1.32957
1.32979
1.33001
1.33021
1.33041
1.3306
1.33078
1.33095
1.33111
1.33126
1.3314
1.33152
1.33164
1.33174
1.33183
1.33191
1.33197
1.33202
1.33206
1.33209
1.33211
1.33212
1.33213
1.33212
1.3321
1.33208
1.33205
1.33201
1.33197
1.33192
1.33187
1.33181
1.33176
1.33169
1.33163
1.33156
1.33149
1.33142
1.33135
1.33128
1.3312
1.33113
1.33106
1.33098
1.33091
1.33084
1.33076
1.33069
1.33062
1.33055
1.33048
1.33041
1.33034
1.33027
1.33021
1.33014
1.33007
1.33001
1.32995
1.32989
1.32982
1.32976
1.3297
1.32965
1.32959
1.32953
1.32948
1.32942
1.32936
1.32931
1.32926
1.3292
1.32915
1.3291
1.32905
1.329
1.32895
1.3289
1.32885
1.3288
1.32875
1.32871
1.32866
1.32861
1.32857
1.32852
1.32848
1.32843
1.32839
1.32835
1.32831
1.32827
1.32823
1.32819
1.32815
1.32811
1.32808
1.32804
1.32801
1.32798
1.32795
1.32793
1.3279
1.32788
1.32786
1.32784
1.32782
1.32781
1.3278
1.32779
1.32779
1.32779
1.32779
1.3278
1.32781
1.32783
1.32785
1.32787
1.3279
1.32794
1.32798
1.32803
1.32808
1.32814
1.3282
1.32827
1.32835
1.32843
1.32852
1.32862
1.32873
1.32884
1.32896
1.32909
1.32923
1.32938
1.32954
1.3297
1.32987
1.33006
1.33025
1.33045
1.33066
1.33088
1.33111
1.33134
1.33159
1.33185
1.33211
1.33239
1.33267
1.33296
1.33326
1.33357
1.33389
1.33421
1.33455
1.33488
1.33523
1.33558
1.33593
1.33629
1.33666
1.33702
1.33739
1.33776
1.33813
1.3385
1.33886
1.33923
1.33959
1.33995
1.3403
1.34064
1.34098
1.34131
1.34163
1.34193
1.34223
1.34252
1.34279
1.34306
1.34331
1.34355
1.34377
1.34399
1.34419
1.34437
1.34455
1.34472
1.34487
1.34501
1.34515
1.34527
1.34539
1.34549
1.34559
1.34568
1.34577
1.34585
1.34592
1.34598
1.34604
1.3461
1.34615
1.3462
1.34624
1.34628
1.34631
1.34634
1.34637
1.3464
1.34642
1.34644
1.34646
1.34648
1.34649
1.34651
1.34652
1.34653
1.34653
1.34654
1.34655
1.34655
1.34656
1.34657
1.34657
1.34658
1.34659
1.3466
1.34662
1.34664
1.34666
1.34668
1.34672
1.34676
1.3468
1.34686
1.34692
1.34699
1.34707
1.34716
1.34727
1.34739
1.34752
1.34766
1.34782
1.348
1.34819
1.34841
1.34864
1.34889
1.34916
1.34945
1.34977
1.3501
1.35047
1.35085
1.35127
1.35171
1.35217
1.35267
1.3532
1.35375
1.35434
1.35496
1.35561
1.3563
1.35703
1.35779
1.3586
1.35944
1.36033
1.36126
1.36224
1.36327
1.36436
1.36551
1.36672
1.368
1.36935
1.37078
1.3723
1.37392
1.37564
1.37746
1.3794
1.38143
1.38354
1.38567
1.38774
1.38962
1.39113
1.39213
1.39246
1.3921
1.31711
1.31665
1.31647
1.31653
1.31679
1.31718
1.31765
1.31815
1.31865
1.31913
1.31958
1.31999
1.32036
1.32069
1.32099
1.32125
1.32148
1.32169
1.32186
1.32201
1.32214
1.32225
1.32234
1.32242
1.32248
1.32253
1.32256
1.32258
1.3226
1.3226
1.3226
1.32258
1.32256
1.32254
1.32251
1.32247
1.32243
1.32238
1.32234
1.32229
1.32223
1.32218
1.32212
1.32207
1.32201
1.32196
1.32191
1.32185
1.3218
1.32176
1.32172
1.32168
1.32164
1.32161
1.32159
1.32157
1.32156
1.32155
1.32156
1.32157
1.32158
1.32161
1.32165
1.32169
1.32174
1.3218
1.32187
1.32195
1.32204
1.32214
1.32225
1.32237
1.3225
1.32263
1.32278
1.32293
1.32309
1.32326
1.32344
1.32362
1.32381
1.32401
1.32422
1.32443
1.32466
1.32488
1.32511
1.32535
1.32559
1.32584
1.32609
1.32635
1.3266
1.32686
1.32712
1.32738
1.32763
1.32789
1.32814
1.3284
1.32864
1.32889
1.32913
1.32937
1.3296
1.32982
1.33004
1.33024
1.33044
1.33064
1.33082
1.33099
1.33115
1.3313
1.33144
1.33156
1.33168
1.33178
1.33186
1.33194
1.332
1.33205
1.33209
1.33212
1.33214
1.33214
1.33214
1.33213
1.33211
1.33208
1.33205
1.33201
1.33197
1.33192
1.33186
1.33181
1.33175
1.33168
1.33162
1.33155
1.33148
1.33141
1.33133
1.33126
1.33119
1.33111
1.33104
1.33097
1.33089
1.33082
1.33075
1.33067
1.3306
1.33053
1.33046
1.33039
1.33032
1.33026
1.33019
1.33013
1.33006
1.33
1.32994
1.32987
1.32981
1.32975
1.32969
1.32964
1.32958
1.32952
1.32947
1.32941
1.32936
1.3293
1.32925
1.3292
1.32915
1.32909
1.32904
1.32899
1.32894
1.32889
1.32885
1.3288
1.32875
1.3287
1.32865
1.32861
1.32856
1.32852
1.32847
1.32843
1.32838
1.32834
1.3283
1.32826
1.32822
1.32818
1.32814
1.32811
1.32807
1.32804
1.328
1.32797
1.32794
1.32792
1.32789
1.32787
1.32785
1.32783
1.32781
1.3278
1.32779
1.32778
1.32777
1.32777
1.32778
1.32778
1.3278
1.32781
1.32783
1.32785
1.32788
1.32792
1.32796
1.328
1.32805
1.32811
1.32818
1.32825
1.32832
1.32841
1.3285
1.32859
1.3287
1.32881
1.32894
1.32907
1.3292
1.32935
1.32951
1.32967
1.32984
1.33003
1.33022
1.33042
1.33063
1.33085
1.33108
1.33132
1.33157
1.33182
1.33209
1.33236
1.33265
1.33294
1.33325
1.33356
1.33388
1.3342
1.33454
1.33488
1.33522
1.33557
1.33593
1.3363
1.33666
1.33703
1.3374
1.33777
1.33815
1.33852
1.33889
1.33926
1.33963
1.33999
1.34034
1.34069
1.34103
1.34136
1.34168
1.34199
1.34229
1.34258
1.34285
1.34312
1.34337
1.3436
1.34383
1.34404
1.34424
1.34442
1.3446
1.34476
1.34491
1.34505
1.34518
1.34531
1.34542
1.34552
1.34562
1.34571
1.34579
1.34586
1.34593
1.34599
1.34605
1.34611
1.34616
1.3462
1.34624
1.34628
1.34631
1.34635
1.34637
1.3464
1.34642
1.34644
1.34646
1.34648
1.34649
1.3465
1.34651
1.34652
1.34653
1.34653
1.34654
1.34654
1.34655
1.34655
1.34656
1.34656
1.34657
1.34658
1.3466
1.34661
1.34663
1.34666
1.34669
1.34672
1.34677
1.34682
1.34688
1.34695
1.34702
1.34711
1.34722
1.34733
1.34746
1.3476
1.34776
1.34793
1.34813
1.34833
1.34856
1.34881
1.34908
1.34937
1.34968
1.35001
1.35037
1.35076
1.35117
1.3516
1.35207
1.35256
1.35308
1.35363
1.35421
1.35483
1.35547
1.35615
1.35687
1.35762
1.35841
1.35924
1.36012
1.36103
1.36199
1.363
1.36406
1.36517
1.36634
1.36757
1.36886
1.37022
1.37165
1.37316
1.37475
1.37641
1.37814
1.37992
1.38172
1.38347
1.38511
1.38653
1.38762
1.38827
1.38844
1.38805
1.31799
1.31761
1.31742
1.31742
1.31756
1.31782
1.31815
1.31853
1.31892
1.31932
1.31969
1.32005
1.32037
1.32067
1.32094
1.32119
1.3214
1.32159
1.32176
1.32191
1.32203
1.32214
1.32223
1.32231
1.32237
1.32242
1.32246
1.32248
1.3225
1.3225
1.3225
1.32249
1.32247
1.32245
1.32242
1.32238
1.32235
1.3223
1.32226
1.32221
1.32216
1.3221
1.32205
1.32199
1.32194
1.32189
1.32183
1.32178
1.32173
1.32169
1.32165
1.32161
1.32157
1.32154
1.32152
1.3215
1.32149
1.32149
1.32149
1.3215
1.32152
1.32155
1.32158
1.32162
1.32168
1.32174
1.32181
1.32189
1.32199
1.32209
1.3222
1.32231
1.32244
1.32258
1.32273
1.32288
1.32304
1.32321
1.32339
1.32358
1.32377
1.32398
1.32419
1.3244
1.32462
1.32485
1.32509
1.32533
1.32557
1.32582
1.32608
1.32633
1.32659
1.32685
1.32711
1.32738
1.32764
1.3279
1.32815
1.32841
1.32866
1.32891
1.32915
1.32939
1.32962
1.32985
1.33007
1.33028
1.33048
1.33067
1.33086
1.33103
1.33119
1.33134
1.33148
1.33161
1.33172
1.33182
1.33191
1.33198
1.33204
1.33209
1.33212
1.33215
1.33216
1.33216
1.33216
1.33214
1.33212
1.33209
1.33206
1.33201
1.33197
1.33191
1.33186
1.3318
1.33174
1.33167
1.3316
1.33153
1.33146
1.33139
1.33132
1.33124
1.33117
1.3311
1.33102
1.33095
1.33087
1.3308
1.33073
1.33066
1.33059
1.33052
1.33045
1.33038
1.33031
1.33024
1.33018
1.33011
1.33005
1.32999
1.32992
1.32986
1.3298
1.32974
1.32969
1.32963
1.32957
1.32951
1.32946
1.3294
1.32935
1.3293
1.32924
1.32919
1.32914
1.32909
1.32904