# vtk DataFile Version 2.0
LBE mesh
ASCII
DATASET STRUCTURED_POINTS
DIMENSIONS 400 100 1
ASPECT_RATIO 1 1 1
ORIGIN 0 0 0
POINT_DATA 40000
SCALARS rho double 1
LOOKUP_TABLE default
1.02552
1.07743
1.09307
1.09722
1.09944
1.10114
1.10233
1.10311
1.10364
1.10404
1.10434
1.10456
1.10474
1.10488
1.10498
1.10506
1.10512
1.10516
1.10519
1.1052
1.10521
1.1052
1.10519
1.10518
1.10515
1.10513
1.1051
1.10506
1.10502
1.10498
1.10494
1.1049
1.10485
1.10481
1.10476
1.10472
1.10467
1.10463
1.10459
1.10454
1.1045
1.10447
1.10443
1.1044
1.10437
1.10434
1.10432
1.1043
1.10428
1.10427
1.10427
1.10427
1.10428
1.10429
1.10431
1.10433
1.10437
1.10441
1.10446
1.10452
1.10458
1.10466
1.10474
1.10483
1.10494
1.10505
1.10517
1.1053
1.10545
1.1056
1.10576
1.10593
1.10612
1.10631
1.10651
1.10672
1.10694
1.10717
1.1074
1.10765
1.1079
1.10816
1.10843
1.1087
1.10898
1.10927
1.10955
1.10985
1.11014
1.11044
1.11073
1.11103
1.11133
1.11163
1.11192
1.11222
1.1125
1.11279
1.11307
1.11334
1.1136
1.11386
1.11411
1.11435
1.11458
1.1148
1.11501
1.11521
1.11539
1.11557
1.11573
1.11588
1.11602
1.11614
1.11625
1.11635
1.11643
1.1165
1.11656
1.11661
1.11664
1.11666
1.11667
1.11667
1.11666
1.11664
1.11661
1.11658
1.11653
1.11648
1.11643
1.11636
1.1163
1.11623
1.11615
1.11608
1.116
1.11592
1.11585
1.11577
1.11569
1.11561
1.11554
1.11546
1.11539
1.11532
1.11526
1.11519
1.11513
1.11508
1.11502
1.11497
1.11493
1.11489
1.11485
1.11481
1.11478
1.11476
1.11474
1.11472
1.11471
1.1147
1.1147
1.1147
1.1147
1.11471
1.11472
1.11473
1.11475
1.11477
1.1148
1.11483
1.11486
1.11489
1.11493
1.11497
1.11501
1.11506
1.11511
1.11516
1.11521
1.11526
1.11532
1.11538
1.11544
1.1155
1.11557
1.11563
1.1157
1.11577
1.11584
1.1159
1.11597
1.11605
1.11612
1.11619
1.11626
1.11633
1.1164
1.11647
1.11654
1.11661
1.11668
1.11674
1.11681
1.11687
1.11693
1.11699
1.11705
1.11711
1.11716
1.11721
1.11726
1.1173
1.11735
1.11739
1.11743
1.11747
1.1175
1.11753
1.11756
1.11759
1.11762
1.11764
1.11767
1.11769
1.11771
1.11774
1.11776
1.11778
1.1178
1.11782
1.11785
1.11787
1.1179
1.11792
1.11796
1.11799
1.11802
1.11806
1.11811
1.11815
1.1182
1.11826
1.11832
1.11838
1.11845
1.11852
1.1186
1.11869
1.11878
1.11888
1.11899
1.1191
1.11921
1.11934
1.11947
1.11961
1.11975
1.11991
1.12006
1.12023
1.1204
1.12058
1.12077
1.12096
1.12116
1.12136
1.12157
1.12178
1.122
1.12222
1.12245
1.12268
1.12291
1.12314
1.12338
1.12361
1.12385
1.12409
1.12432
1.12456
1.12479
1.12502
1.12524
1.12547
1.12569
1.12591
1.12612
1.12633
1.12654
1.12674
1.12694
1.12713
1.12732
1.12751
1.12769
1.12787
1.12805
1.12822
1.12839
1.12856
1.12872
1.12888
1.12904
1.12919
1.12934
1.12949
1.12963
1.12977
1.1299
1.13003
1.13015
1.13027
1.13039
1.13049
1.13059
1.13069
1.13078
1.13086
1.13093
1.13099
1.13105
1.1311
1.13114
1.13118
1.1312
1.13122
1.13123
1.13124
1.13123
1.13122
1.13121
1.13118
1.13116
1.13112
1.13109
1.13105
1.13101
1.13097
1.13093
1.13088
1.13084
1.1308
1.13077
1.13074
1.13071
1.13069
1.13068
1.13068
1.13068
1.1307
1.13073
1.13077
1.13083
1.1309
1.131
1.13111
1.13124
1.13139
1.13156
1.13176
1.13198
1.13223
1.13251
1.13282
1.13315
1.13352
1.13392
1.13436
1.13484
1.13535
1.1359
1.13649
1.13712
1.1378
1.13853
1.1393
1.14013
1.14101
1.14195
1.14295
1.14403
1.14518
1.14642
1.14775
1.14919
1.15077
1.15249
1.1544
1.15654
1.15897
1.16178
1.16509
1.16912
1.17433
1.18159
1.19182
1.20675
1.2368
1.06295
1.07483
1.08547
1.09316
1.09725
1.09948
1.10092
1.10195
1.10271
1.10326
1.10368
1.104
1.10425
1.10445
1.1046
1.10472
1.10481
1.10488
1.10493
1.10497
1.105
1.10501
1.10501
1.10501
1.105
1.10498
1.10496
1.10493
1.1049
1.10487
1.10483
1.1048
1.10476
1.10472
1.10468
1.10463
1.10459
1.10455
1.10451
1.10448
1.10444
1.1044
1.10437
1.10434
1.10431
1.10429
1.10427
1.10425
1.10424
1.10423
1.10423
1.10423
1.10424
1.10425
1.10428
1.1043
1.10434
1.10438
1.10443
1.10449
1.10456
1.10464
1.10472
1.10482
1.10492
1.10504
1.10516
1.1053
1.10544
1.10559
1.10576
1.10593
1.10611
1.10631
1.10651
1.10672
1.10694
1.10717
1.10741
1.10765
1.10791
1.10817
1.10844
1.10871
1.10899
1.10927
1.10956
1.10985
1.11015
1.11044
1.11074
1.11104
1.11134
1.11163
1.11193
1.11222
1.11251
1.11279
1.11307
1.11334
1.1136
1.11386
1.1141
1.11434
1.11457
1.11479
1.115
1.11519
1.11538
1.11555
1.11571
1.11586
1.116
1.11612
1.11623
1.11632
1.11641
1.11647
1.11653
1.11658
1.11661
1.11663
1.11664
1.11664
1.11663
1.11661
1.11658
1.11654
1.1165
1.11645
1.11639
1.11633
1.11627
1.1162
1.11612
1.11605
1.11597
1.1159
1.11582
1.11574
1.11567
1.11559
1.11552
1.11544
1.11537
1.1153
1.11524
1.11518
1.11512
1.11506
1.11501
1.11496
1.11492
1.11488
1.11484
1.11481
1.11478
1.11475
1.11473
1.11472
1.11471
1.1147
1.11469
1.11469
1.1147
1.11471
1.11472
1.11473
1.11475
1.11477
1.1148
1.11483
1.11486
1.11489
1.11493
1.11497
1.11501
1.11506
1.11511
1.11516
1.11521
1.11527
1.11532
1.11538
1.11544
1.1155
1.11557
1.11563
1.1157
1.11577
1.11584
1.1159
1.11597
1.11605
1.11612
1.11619
1.11626
1.11633
1.1164
1.11647
1.11654
1.11661
1.11667
1.11674
1.1168
1.11687
1.11693
1.11699
1.11705
1.1171
1.11715
1.1172
1.11725
1.1173
1.11734
1.11738
1.11742
1.11746
1.11749
1.11753
1.11756
1.11759
1.11761
1.11764
1.11766
1.11769
1.11771
1.11773
1.11775
1.11778
1.1178
1.11782
1.11785
1.11787
1.1179
1.11793
1.11796
1.11799
1.11803
1.11807
1.11811
1.11816
1.11821
1.11827
1.11833
1.11839
1.11846
1.11854
1.11862
1.1187
1.1188
1.1189
1.119
1.11911
1.11923
1.11936
1.11949
1.11963
1.11977
1.11993
1.12009
1.12025
1.12042
1.1206
1.12079
1.12098
1.12118
1.12138
1.12159
1.1218
1.12202
1.12224
1.12247
1.1227
1.12293
1.12316
1.1234
1.12363
1.12387
1.1241
1.12433
1.12457
1.1248
1.12503
1.12525
1.12547
1.12569
1.12591
1.12612
1.12633
1.12654
1.12674
1.12694
1.12713
1.12732
1.1275
1.12769
1.12787
1.12804
1.12822
1.12838
1.12855
1.12871
1.12887
1.12903
1.12918
1.12933
1.12948
1.12962
1.12976
1.12989
1.13002
1.13014
1.13026
1.13038
1.13048
1.13058
1.13068
1.13076
1.13084
1.13091
1.13098
1.13104
1.13108
1.13112
1.13116
1.13118
1.1312
1.13121
1.13121
1.13121
1.1312
1.13118
1.13116
1.13113
1.1311
1.13107
1.13103
1.13099
1.13095
1.13091
1.13087
1.13083
1.13079
1.13076
1.13073
1.1307
1.13068
1.13067
1.13067
1.13068
1.1307
1.13073
1.13078
1.13084
1.13092
1.13101
1.13113
1.13126
1.13142
1.13159
1.1318
1.13202
1.13228
1.13256
1.13287
1.13321
1.13359
1.134
1.13444
1.13492
1.13544
1.13599
1.13659
1.13723
1.13792
1.13865
1.13943
1.14027
1.14116
1.14211
1.14313
1.14422
1.14539
1.14665
1.14801
1.14948
1.15109
1.15287
1.15484
1.15706
1.1596
1.16255
1.16608
1.17044
1.17594
1.18309
1.19356
1.21191
1.24095
1.08081
1.08136
1.08752
1.09256
1.09584
1.09819
1.09986
1.10106
1.10193
1.10259
1.10309
1.10349
1.1038
1.10404
1.10424
1.10439
1.10452
1.10461
1.10469
1.10474
1.10479
1.10481
1.10483
1.10484
1.10484
1.10483
1.10482
1.1048
1.10478
1.10475
1.10472
1.10469
1.10466
1.10462
1.10458
1.10455
1.10451
1.10447
1.10444
1.1044
1.10437
1.10433
1.1043
1.10428
1.10425
1.10423
1.10421
1.1042
1.10419
1.10418
1.10418
1.10418
1.10419
1.10421
1.10423
1.10426
1.1043
1.10435
1.1044
1.10446
1.10453
1.10461
1.1047
1.10479
1.1049
1.10501
1.10514
1.10527
1.10542
1.10557
1.10574
1.10591
1.1061
1.10629
1.1065
1.10671
1.10693
1.10716
1.1074
1.10765
1.1079
1.10816
1.10843
1.10871
1.10899
1.10927
1.10956
1.10985
1.11015
1.11044
1.11074
1.11104
1.11134
1.11163
1.11193
1.11222
1.11251
1.11279
1.11306
1.11333
1.1136
1.11385
1.1141
1.11434
1.11456
1.11478
1.11499
1.11518
1.11537
1.11554
1.1157
1.11584
1.11598
1.1161
1.11621
1.1163
1.11638
1.11645
1.11651
1.11655
1.11658
1.1166
1.11661
1.11661
1.11659
1.11657
1.11654
1.11651
1.11646
1.11641
1.11636
1.1163
1.11623
1.11616
1.11609
1.11602
1.11594
1.11587
1.11579
1.11571
1.11564
1.11556
1.11549
1.11542
1.11535
1.11528
1.11522
1.11516
1.1151
1.11504
1.11499
1.11495
1.1149
1.11486
1.11483
1.1148
1.11477
1.11475
1.11473
1.11471
1.1147
1.11469
1.11469
1.11469
1.11469
1.1147
1.11471
1.11473
1.11475
1.11477
1.1148
1.11483
1.11486
1.11489
1.11493
1.11497
1.11501
1.11506
1.11511
1.11516
1.11521
1.11526
1.11532
1.11538
1.11544
1.1155
1.11557
1.11563
1.1157
1.11576
1.11583
1.1159
1.11597
1.11604
1.11611
1.11618
1.11625
1.11632
1.11639
1.11646
1.11653
1.1166
1.11667
1.11673
1.1168
1.11686
1.11692
1.11698
1.11704
1.11709
1.11714
1.11719
1.11724
1.11729
1.11733
1.11737
1.11741
1.11745
1.11749
1.11752
1.11755
1.11758
1.11761
1.11763
1.11766
1.11768
1.1177
1.11773
1.11775
1.11777
1.11779
1.11782
1.11784
1.11787
1.1179
1.11793
1.11796
1.11799
1.11803
1.11807
1.11811
1.11816
1.11821
1.11827
1.11833
1.11839
1.11846
1.11854
1.11862
1.11871
1.1188
1.1189
1.11901
1.11912
1.11924
1.11936
1.1195
1.11964
1.11978
1.11994
1.1201
1.12026
1.12044
1.12061
1.1208
1.12099
1.12119
1.12139
1.1216
1.12182
1.12203
1.12226
1.12248
1.12271
1.12294
1.12317
1.12341
1.12364
1.12388
1.12411
1.12434
1.12458
1.12481
1.12503
1.12526
1.12548
1.1257
1.12592
1.12613
1.12634
1.12654
1.12674
1.12694
1.12713
1.12732
1.1275
1.12769
1.12786
1.12804
1.12821
1.12838
1.12855
1.12871
1.12887
1.12902
1.12918
1.12933
1.12947
1.12961
1.12975
1.12988
1.13001
1.13013
1.13025
1.13036
1.13047
1.13057
1.13066
1.13075
1.13083
1.1309
1.13096
1.13102
1.13107
1.13111
1.13114
1.13116
1.13118
1.13119
1.13119
1.13119
1.13118
1.13116
1.13114
1.13111
1.13108
1.13104
1.131
1.13097
1.13092
1.13088
1.13084
1.1308
1.13077
1.13073
1.1307
1.13068
1.13066
1.13065
1.13066
1.13067
1.13069
1.13072
1.13077
1.13083
1.13091
1.13101
1.13112
1.13126
1.13142
1.1316
1.1318
1.13204
1.13229
1.13258
1.13289
1.13324
1.13362
1.13403
1.13448
1.13496
1.13548
1.13605
1.13665
1.13729
1.13799
1.13872
1.13951
1.14035
1.14125
1.14221
1.14324
1.14433
1.14551
1.14678
1.14814
1.14963
1.15125
1.15304
1.15503
1.15726
1.15981
1.16277
1.16625
1.17047
1.17575
1.18259
1.19119
1.20052
1.20939
1.08915
1.08848
1.0906
1.09317
1.09574
1.09779
1.09931
1.10047
1.10136
1.10206
1.10262
1.10305
1.1034
1.10368
1.10391
1.10409
1.10424
1.10436
1.10445
1.10453
1.10458
1.10462
1.10465
1.10467
1.10468
1.10468
1.10468
1.10467
1.10465
1.10463
1.10461
1.10458
1.10455
1.10452
1.10449
1.10446
1.10442
1.10439
1.10436
1.10432
1.10429
1.10426
1.10423
1.10421
1.10419
1.10417
1.10415
1.10414
1.10413
1.10412
1.10412
1.10413
1.10414
1.10416
1.10418
1.10422
1.10425
1.1043
1.10435
1.10442
1.10449
1.10457
1.10466
1.10475
1.10486
1.10498
1.1051
1.10524
1.10539
1.10554
1.10571
1.10589
1.10607
1.10627
1.10647
1.10669
1.10691
1.10714
1.10738
1.10763
1.10788
1.10815
1.10842
1.10869
1.10897
1.10926
1.10955
1.10984
1.11014
1.11043
1.11073
1.11103
1.11133
1.11163
1.11192
1.11221
1.1125
1.11278
1.11306
1.11333
1.11359
1.11384
1.11409
1.11433
1.11455
1.11477
1.11498
1.11517
1.11535
1.11552
1.11568
1.11583
1.11596
1.11608
1.11619
1.11628
1.11636
1.11643
1.11648
1.11652
1.11655
1.11657
1.11658
1.11657
1.11656
1.11654
1.11651
1.11647
1.11643
1.11638
1.11632
1.11626
1.11619
1.11612
1.11605
1.11598
1.11591
1.11583
1.11576
1.11568
1.1156
1.11553
1.11546
1.11539
1.11532
1.11525
1.11519
1.11513
1.11508
1.11502
1.11497
1.11493
1.11488
1.11485
1.11481
1.11478
1.11475
1.11473
1.11471
1.1147
1.11469
1.11468
1.11468
1.11468
1.11469
1.11469
1.11471
1.11472
1.11474
1.11476
1.11479
1.11482
1.11485
1.11489
1.11492
1.11496
1.11501
1.11505
1.1151
1.11515
1.1152
1.11526
1.11532
1.11537
1.11543
1.1155
1.11556
1.11562
1.11569
1.11576
1.11582
1.11589
1.11596
1.11603
1.1161
1.11617
1.11624
1.11631
1.11638
1.11645
1.11652
1.11659
1.11665
1.11672
1.11678
1.11685
1.11691
1.11697
1.11702
1.11708
1.11713
1.11718
1.11723
1.11728
1.11732
1.11736
1.1174
1.11744
1.11747
1.1175
1.11754
1.11756
1.11759
1.11762
1.11764
1.11767
1.11769
1.11771
1.11774
1.11776
1.11778
1.11781
1.11783
1.11786
1.11789
1.11792
1.11795
1.11798
1.11802
1.11806
1.11811
1.11815
1.11821
1.11826
1.11832
1.11839
1.11846
1.11854
1.11862
1.1187
1.1188
1.1189
1.119
1.11912
1.11924
1.11936
1.11949
1.11963
1.11978
1.11993
1.12009
1.12026
1.12043
1.12061
1.1208
1.12099
1.12119
1.1214
1.12161
1.12182
1.12204
1.12226
1.12249
1.12272
1.12295
1.12318
1.12342
1.12365
1.12389
1.12412
1.12435
1.12459
1.12482
1.12504
1.12527
1.12549
1.12571
1.12592
1.12613
1.12634
1.12655
1.12674
1.12694
1.12713
1.12732
1.12751
1.12769
1.12787
1.12804
1.12821
1.12838
1.12854
1.12871
1.12886
1.12902
1.12917
1.12932
1.12947
1.12961
1.12974
1.12988
1.13
1.13013
1.13024
1.13035
1.13046
1.13056
1.13065
1.13074
1.13081
1.13088
1.13095
1.131
1.13105
1.13109
1.13112
1.13114
1.13116
1.13117
1.13117
1.13116
1.13115
1.13113
1.13111
1.13108
1.13105
1.13101
1.13098
1.13093
1.13089
1.13085
1.13081
1.13077
1.13073
1.1307
1.13067
1.13065
1.13063
1.13062
1.13062
1.13063
1.13066
1.13069
1.13074
1.1308
1.13088
1.13098
1.1311
1.13124
1.13139
1.13158
1.13178
1.13202
1.13228
1.13256
1.13288
1.13323
1.13361
1.13402
1.13447
1.13496
1.13549
1.13605
1.13666
1.13731
1.138
1.13874
1.13953
1.14038
1.14128
1.14224
1.14326
1.14436
1.14553
1.1468
1.14816
1.14964
1.15125
1.15301
1.15497
1.15716
1.15963
1.16246
1.16575
1.16959
1.17411
1.17935
1.18517
1.18991
1.19003
1.0932
1.0927
1.09337
1.09476
1.0964
1.09788
1.09914
1.10018
1.10103
1.10171
1.10226
1.10271
1.10307
1.10337
1.10362
1.10382
1.10399
1.10412
1.10423
1.10432
1.10439
1.10444
1.10448
1.10451
1.10453
1.10454
1.10454
1.10453
1.10452
1.10451
1.10449
1.10447
1.10445
1.10442
1.10439
1.10436
1.10433
1.1043
1.10427
1.10424
1.10421
1.10418
1.10416
1.10414
1.10411
1.1041
1.10408
1.10407
1.10406
1.10406
1.10406
1.10407
1.10408
1.1041
1.10413
1.10416
1.1042
1.10425
1.1043
1.10436
1.10444
1.10452
1.10461
1.10471
1.10481
1.10493
1.10506
1.1052
1.10534
1.1055
1.10567
1.10585
1.10603
1.10623
1.10644
1.10665
1.10687
1.10711
1.10735
1.1076
1.10785
1.10812
1.10839
1.10866
1.10895
1.10923
1.10952
1.10982
1.11012
1.11041
1.11071
1.11101
1.11131
1.11161
1.11191
1.1122
1.11249
1.11277
1.11305
1.11332
1.11358
1.11383
1.11408
1.11432
1.11454
1.11476
1.11496
1.11516
1.11534
1.11551
1.11567
1.11581
1.11594
1.11606
1.11617
1.11626
1.11634
1.1164
1.11646
1.1165
1.11652
1.11654
1.11655
1.11654
1.11653
1.1165
1.11647
1.11643
1.11639
1.11634
1.11628
1.11622
1.11615
1.11608
1.11601
1.11594
1.11587
1.11579
1.11572
1.11564
1.11557
1.1155
1.11542
1.11535
1.11529
1.11522
1.11516
1.1151
1.11505
1.115
1.11495
1.1149
1.11486
1.11482
1.11479
1.11476
1.11474
1.11471
1.1147
1.11468
1.11467
1.11467
1.11467
1.11467
1.11467
1.11468
1.1147
1.11471
1.11473
1.11475
1.11478
1.11481
1.11484
1.11488
1.11492
1.11496
1.115
1.11504
1.11509
1.11514
1.1152
1.11525
1.11531
1.11536
1.11542
1.11549
1.11555
1.11561
1.11568
1.11575
1.11581
1.11588
1.11595
1.11602
1.11609
1.11616
1.11623
1.1163
1.11637
1.11644
1.11651
1.11657
1.11664
1.1167
1.11677
1.11683
1.11689
1.11695
1.11701
1.11706
1.11711
1.11716
1.11721
1.11726
1.1173
1.11734
1.11738
1.11742
1.11745
1.11749
1.11752
1.11755
1.11758
1.1176
1.11763
1.11765
1.11768
1.1177
1.11772
1.11774
1.11777
1.11779
1.11782
1.11784
1.11787
1.1179
1.11793
1.11797
1.11801
1.11805
1.11809
1.11814
1.11819
1.11825
1.11831
1.11837
1.11844
1.11852
1.1186
1.11869
1.11878
1.11888
1.11899
1.1191
1.11922
1.11935
1.11948
1.11962
1.11977
1.11992
1.12008
1.12025
1.12042
1.1206
1.12079
1.12098
1.12118
1.12139
1.1216
1.12182
1.12204
1.12226
1.12249
1.12272
1.12295
1.12318
1.12342
1.12366
1.12389
1.12413
1.12436
1.12459
1.12482
1.12505
1.12528
1.1255
1.12572
1.12593
1.12614
1.12635
1.12655
1.12675
1.12695
1.12714
1.12733
1.12751
1.12769
1.12787
1.12804
1.12821
1.12838
1.12854
1.1287
1.12886
1.12902
1.12917
1.12932
1.12946
1.1296
1.12974
1.12987
1.13
1.13012
1.13023
1.13034
1.13045
1.13055
1.13064
1.13072
1.1308
1.13087
1.13093
1.13098
1.13103
1.13107
1.1311
1.13112
1.13114
1.13114
1.13114
1.13114
1.13112
1.1311
1.13108
1.13105
1.13102
1.13098
1.13094
1.1309
1.13086
1.13081
1.13077
1.13073
1.13069
1.13066
1.13063
1.13061
1.13059
1.13058
1.13058
1.13059
1.13061
1.13064
1.13069
1.13076
1.13084
1.13093
1.13105
1.13119
1.13135
1.13153
1.13174
1.13197
1.13223
1.13252
1.13283
1.13318
1.13357
1.13398
1.13443
1.13492
1.13544
1.13601
1.13662
1.13727
1.13796
1.1387
1.13949
1.14033
1.14123
1.14219
1.14321
1.1443
1.14546
1.14671
1.14805
1.1495
1.15108
1.15279
1.15468
1.15677
1.1591
1.16171
1.16464
1.16795
1.17159
1.17533
1.17868
1.18098
1.18037
1.09581
1.09536
1.09555
1.09629
1.09727
1.0983
1.09928
1.10014
1.10088
1.1015
1.10202
1.10246
1.10282
1.10313
1.10338
1.10359
1.10377
1.10391
1.10403
1.10413
1.1042
1.10427
1.10431
1.10435
1.10438
1.10439
1.1044
1.1044
1.1044
1.10439
1.10438
1.10436
1.10434
1.10431
1.10429
1.10426
1.10424
1.10421
1.10418
1.10416
1.10413
1.1041
1.10408
1.10406
1.10404
1.10402
1.10401
1.104
1.10399
1.10399
1.10399
1.104
1.10402
1.10404
1.10406
1.1041
1.10414
1.10418
1.10424
1.1043
1.10438
1.10446
1.10455
1.10465
1.10476
1.10487
1.105
1.10514
1.10529
1.10545
1.10562
1.10579
1.10598
1.10618
1.10639
1.1066
1.10683
1.10706
1.1073
1.10755
1.10781
1.10808
1.10835
1.10863
1.10891
1.1092
1.10949
1.10979
1.11009
1.11039
1.11069
1.11099
1.11129
1.11159
1.11189
1.11218
1.11247
1.11275
1.11303
1.1133
1.11356
1.11382
1.11406
1.1143
1.11453
1.11474
1.11495
1.11514
1.11533
1.1155
1.11565
1.1158
1.11593
1.11605
1.11615
1.11624
1.11632
1.11638
1.11643
1.11647
1.1165
1.11651
1.11652
1.11651
1.11649
1.11647
1.11644
1.1164
1.11635
1.1163
1.11624
1.11618
1.11611
1.11604
1.11597
1.1159
1.11582
1.11575
1.11567
1.1156
1.11553
1.11546
1.11539
1.11532
1.11525
1.11519
1.11513
1.11507
1.11502
1.11496
1.11492
1.11487
1.11483
1.1148
1.11477
1.11474
1.11471
1.11469
1.11468
1.11466
1.11465
1.11465
1.11465
1.11465
1.11466
1.11467
1.11468
1.1147
1.11472
1.11474
1.11477
1.1148
1.11483
1.11486
1.1149
1.11494
1.11499
1.11503
1.11508
1.11513
1.11518
1.11524
1.11529
1.11535
1.11541
1.11547
1.11553
1.1156
1.11566
1.11573
1.1158
1.11586
1.11593
1.116
1.11607
1.11614
1.11621
1.11628
1.11635
1.11642
1.11649
1.11655
1.11662
1.11669
1.11675
1.11681
1.11687
1.11693
1.11699
1.11704
1.11709
1.11714
1.11719
1.11724
1.11728
1.11732
1.11736
1.1174
1.11743
1.11747
1.1175
1.11753
1.11755
1.11758
1.11761
1.11763
1.11765
1.11768
1.1177
1.11772
1.11775
1.11777
1.1178
1.11782
1.11785
1.11788
1.11791
1.11795
1.11799
1.11803
1.11807
1.11812
1.11817
1.11823
1.11829
1.11835
1.11842
1.1185
1.11858
1.11867
1.11876
1.11886
1.11896
1.11908
1.1192
1.11932
1.11945
1.11959
1.11974
1.11989
1.12006
1.12022
1.1204
1.12058
1.12077
1.12096
1.12116
1.12137
1.12158
1.1218
1.12202
1.12225
1.12248
1.12271
1.12294
1.12318
1.12342
1.12366
1.12389
1.12413
1.12437
1.1246
1.12483
1.12506
1.12529
1.12551
1.12573
1.12594
1.12615
1.12636
1.12656
1.12676
1.12696
1.12715
1.12733
1.12752
1.1277
1.12787
1.12804
1.12821
1.12838
1.12854
1.1287
1.12886
1.12901
1.12916
1.12931
1.12946
1.12959
1.12973
1.12986
1.12999
1.13011
1.13022
1.13033
1.13044
1.13054
1.13063
1.13071
1.13079
1.13085
1.13092
1.13097
1.13101
1.13105
1.13108
1.1311
1.13111
1.13112
1.13112
1.13111
1.13109
1.13107
1.13105
1.13102
1.13098
1.13094
1.1309
1.13086
1.13082
1.13077
1.13073
1.13069
1.13065
1.13061
1.13058
1.13055
1.13053
1.13052
1.13052
1.13053
1.13055
1.13058
1.13063
1.13069
1.13077
1.13086
1.13098
1.13112
1.13127
1.13145
1.13166
1.13189
1.13215
1.13244
1.13275
1.1331
1.13348
1.1339
1.13435
1.13483
1.13536
1.13592
1.13653
1.13717
1.13786
1.1386
1.13939
1.14023
1.14112
1.14206
1.14307
1.14414
1.14529
1.14651
1.14782
1.14923
1.15075
1.15239
1.15418
1.15613
1.15826
1.1606
1.16314
1.16585
1.16862
1.17123
1.17325
1.17427
1.17403
1.09762
1.09717
1.09717
1.09755
1.09815
1.09886
1.09958
1.10026
1.10088
1.10142
1.10189
1.10229
1.10264
1.10293
1.10318
1.10339
1.10357
1.10372
1.10385
1.10395
1.10403
1.1041
1.10416
1.1042
1.10423
1.10425
1.10426
1.10427
1.10427
1.10427
1.10426
1.10424
1.10423
1.10421
1.10419
1.10416
1.10414
1.10411
1.10409
1.10406
1.10404
1.10402
1.104
1.10397
1.10396
1.10394
1.10393
1.10392
1.10392
1.10391
1.10392
1.10393
1.10394
1.10396
1.10399
1.10402
1.10407
1.10411
1.10417
1.10423
1.10431
1.10439
1.10448
1.10458
1.10469
1.10481
1.10494
1.10508
1.10523
1.10538
1.10555
1.10573
1.10592
1.10612
1.10633
1.10655
1.10677
1.10701
1.10725
1.1075
1.10776
1.10803
1.1083
1.10858
1.10886
1.10915
1.10945
1.10975
1.11005
1.11035
1.11065
1.11096
1.11126
1.11156
1.11186
1.11215
1.11244
1.11273
1.11301
1.11328
1.11354
1.1138
1.11405
1.11429
1.11451
1.11473
1.11494
1.11513
1.11531
1.11548
1.11564
1.11578
1.11591
1.11603
1.11613
1.11622
1.1163
1.11636
1.11641
1.11645
1.11647
1.11648
1.11649
1.11648
1.11646
1.11643
1.1164
1.11636
1.11631
1.11625
1.11619
1.11613
1.11606
1.11599
1.11592
1.11585
1.11578
1.1157
1.11563
1.11555
1.11548
1.11541
1.11534
1.11527
1.11521
1.11515
1.11509
1.11503
1.11498
1.11493
1.11488
1.11484
1.1148
1.11477
1.11474
1.11471
1.11469
1.11467
1.11465
1.11464
1.11463
1.11463
1.11463
1.11463
1.11464
1.11465
1.11466
1.11468
1.1147
1.11472
1.11475
1.11478
1.11481
1.11485
1.11488
1.11493
1.11497
1.11501
1.11506
1.11511
1.11516
1.11522
1.11527
1.11533
1.11539
1.11545
1.11552
1.11558
1.11564
1.11571
1.11578
1.11585
1.11591
1.11598
1.11605
1.11612
1.11619
1.11626
1.11633
1.1164
1.11647
1.11653
1.1166
1.11666
1.11673
1.11679
1.11685
1.11691
1.11696
1.11702
1.11707
1.11712
1.11717
1.11721
1.11726
1.1173
1.11734
1.11737
1.11741
1.11744
1.11747
1.1175
1.11753
1.11756
1.11758
1.11761
1.11763
1.11765
1.11768
1.1177
1.11772
1.11775
1.11777
1.1178
1.11783
1.11786
1.11789
1.11792
1.11796
1.118
1.11804
1.11809
1.11814
1.1182
1.11826
1.11832
1.11839
1.11847
1.11855
1.11863
1.11873
1.11882
1.11893
1.11904
1.11916
1.11929
1.11942
1.11956
1.11971
1.11986
1.12002
1.12019
1.12037
1.12055
1.12074
1.12093
1.12114
1.12135
1.12156
1.12178
1.122
1.12223
1.12246
1.1227
1.12293
1.12317
1.12341
1.12365
1.12389
1.12413
1.12437
1.12461
1.12484
1.12507
1.1253
1.12552
1.12574
1.12596
1.12617
1.12637
1.12658
1.12677
1.12697
1.12716
1.12734
1.12752
1.1277
1.12788
1.12805
1.12822
1.12838
1.12854
1.1287
1.12886
1.12901
1.12916
1.12931
1.12945
1.12959
1.12972
1.12985
1.12998
1.1301
1.13021
1.13032
1.13043
1.13052
1.13061
1.1307
1.13077
1.13084
1.1309
1.13095
1.13099
1.13103
1.13106
1.13108
1.13109
1.13109
1.13109
1.13108
1.13106
1.13104
1.13101
1.13098
1.13094
1.1309
1.13086
1.13082
1.13077
1.13072
1.13068
1.13063
1.13059
1.13055
1.13052
1.13049
1.13047
1.13046
1.13045
1.13046
1.13048
1.13051
1.13055
1.13061
1.13068
1.13078
1.13089
1.13102
1.13118
1.13136
1.13156
1.13179
1.13204
1.13233
1.13264
1.13299
1.13337
1.13378
1.13423
1.13471
1.13523
1.13579
1.13639
1.13703
1.13772
1.13845
1.13923
1.14006
1.14094
1.14187
1.14286
1.14391
1.14503
1.14622
1.14748
1.14884
1.15028
1.15183
1.1535
1.15529
1.15721
1.15925
1.16139
1.16355
1.16563
1.16742
1.1687
1.16921
1.169
1.09887
1.09847
1.09839
1.09857
1.09894
1.09942
1.09994
1.10047
1.10097
1.10143
1.10184
1.1022
1.10252
1.10279
1.10303
1.10324
1.10341
1.10356
1.10369
1.10379
1.10388
1.10395
1.10401
1.10405
1.10409
1.10412
1.10413
1.10414
1.10415
1.10415
1.10414
1.10413
1.10412
1.1041
1.10408
1.10406
1.10404
1.10402
1.104
1.10397
1.10395
1.10393
1.10391
1.10389
1.10387
1.10386
1.10385
1.10384
1.10384
1.10384
1.10384
1.10385
1.10387
1.10389
1.10391
1.10395
1.10399
1.10404
1.10409
1.10416
1.10423
1.10431
1.1044
1.1045
1.10461
1.10473
1.10486
1.105
1.10515
1.10531
1.10548
1.10566
1.10585
1.10605
1.10626
1.10648
1.1067
1.10694
1.10718
1.10744
1.1077
1.10796
1.10824
1.10852
1.10881
1.1091
1.1094
1.1097
1.11
1.1103
1.11061
1.11092
1.11122
1.11152
1.11182
1.11212
1.11241
1.1127
1.11298
1.11325
1.11352
1.11378
1.11403
1.11427
1.11449
1.11471
1.11492
1.11511
1.1153
1.11547
1.11562
1.11577
1.1159
1.11601
1.11612
1.1162
1.11628
1.11634
1.11639
1.11642
1.11644
1.11646
1.11646
1.11644
1.11642
1.1164
1.11636
1.11631
1.11626
1.11621
1.11615
1.11608
1.11602
1.11595
1.11587
1.1158
1.11573
1.11565
1.11558
1.11551
1.11543
1.11536
1.11529
1.11523
1.11516
1.1151
1.11504
1.11499
1.11494
1.11489
1.11484
1.1148
1.11477
1.11473
1.1147
1.11468
1.11465
1.11464
1.11462
1.11461
1.1146
1.1146
1.1146
1.1146
1.11461
1.11462
1.11464
1.11466
1.11468
1.1147
1.11473
1.11476
1.11479
1.11482
1.11486
1.1149
1.11495
1.11499
1.11504
1.11509
1.11514
1.1152
1.11525
1.11531
1.11537
1.11543
1.11549
1.11556
1.11562
1.11569
1.11575
1.11582
1.11589
1.11596
1.11603
1.1161
1.11617
1.11623
1.1163
1.11637
1.11644
1.11651
1.11657
1.11663
1.1167
1.11676
1.11682
1.11688
1.11693
1.11699
1.11704
1.11709
1.11714
1.11718
1.11723
1.11727
1.11731
1.11734
1.11738
1.11741
1.11744
1.11747
1.1175
1.11753
1.11755
1.11758
1.1176
1.11762
1.11765
1.11767
1.11769
1.11772
1.11774
1.11777
1.1178
1.11783
1.11786
1.11789
1.11793
1.11797
1.11801
1.11806
1.11811
1.11816
1.11822
1.11828
1.11835
1.11843
1.11851
1.11859
1.11868
1.11878
1.11889
1.119
1.11912
1.11924
1.11937
1.11951
1.11966
1.11981
1.11998
1.12014
1.12032
1.12051
1.1207
1.12089
1.1211
1.12131
1.12152
1.12175
1.12197
1.1222
1.12244
1.12268
1.12292
1.12316
1.1234
1.12365
1.12389
1.12413
1.12437
1.12461
1.12485
1.12508
1.12531
1.12553
1.12575
1.12597
1.12618
1.12639
1.12659
1.12679
1.12698
1.12717
1.12735
1.12753
1.12771
1.12788
1.12805
1.12822
1.12839
1.12855
1.1287
1.12886
1.12901
1.12916
1.1293
1.12944
1.12958
1.12972
1.12985
1.12997
1.13009
1.1302
1.13031
1.13042
1.13051
1.1306
1.13068
1.13076
1.13082
1.13088
1.13093
1.13097
1.13101
1.13103
1.13105
1.13106
1.13106
1.13106
1.13105
1.13103
1.13101
1.13098
1.13094
1.1309
1.13086
1.13081
1.13077
1.13072
1.13067
1.13062
1.13057
1.13053
1.13049
1.13045
1.13042
1.1304
1.13038
1.13037
1.13037
1.13039
1.13041
1.13045
1.13051
1.13058
1.13067
1.13078
1.13091
1.13106
1.13123
1.13143
1.13166
1.13191
1.13219
1.1325
1.13284
1.13321
1.13362
1.13406
1.13454
1.13506
1.13561
1.13621
1.13684
1.13752
1.13824
1.13901
1.13982
1.14069
1.1416
1.14257
1.14359
1.14468
1.14582
1.14704
1.14833
1.14969
1.15114
1.15267
1.15429
1.15599
1.15774
1.15951
1.16123
1.16279
1.16404
1.16487
1.16515
1.16486
1.09978
1.09944
1.09932
1.09939
1.09961
1.09993
1.10031
1.10071
1.10111
1.10149
1.10184
1.10216
1.10244
1.10269
1.10291
1.10311
1.10327
1.10342
1.10354
1.10365
1.10373
1.10381
1.10387
1.10392
1.10395
1.10398
1.104
1.10402
1.10403
1.10403
1.10402
1.10402
1.10401
1.10399
1.10398
1.10396
1.10394
1.10392
1.1039
1.10388
1.10386
1.10384
1.10382
1.1038
1.10379
1.10377
1.10376
1.10375
1.10375
1.10375
1.10376
1.10377
1.10378
1.1038
1.10383
1.10386
1.10391
1.10395
1.10401
1.10407
1.10415
1.10423
1.10432
1.10442
1.10453
1.10465
1.10478
1.10492
1.10507
1.10523
1.1054
1.10558
1.10577
1.10597
1.10618
1.1064
1.10663
1.10687
1.10711
1.10737
1.10763
1.1079
1.10817
1.10846
1.10874
1.10904
1.10934
1.10964
1.10995
1.11025
1.11056
1.11087
1.11118
1.11148
1.11179
1.11209
1.11238
1.11267
1.11295
1.11323
1.1135
1.11375
1.114
1.11424
1.11447
1.11469
1.1149
1.1151
1.11528
1.11545
1.11561
1.11575
1.11588
1.116
1.1161
1.11618
1.11626
1.11632
1.11636
1.1164
1.11642
1.11642
1.11642
1.11641
1.11639
1.11635
1.11632
1.11627
1.11622
1.11616
1.1161
1.11603
1.11596
1.11589
1.11582
1.11575
1.11567
1.1156
1.11552
1.11545
1.11538
1.11531
1.11524
1.11518
1.11511
1.11505
1.115
1.11494
1.11489
1.11485
1.1148
1.11476
1.11473
1.11469
1.11467
1.11464
1.11462
1.1146
1.11459
1.11458
1.11457
1.11457
1.11457
1.11458
1.11458
1.1146
1.11461
1.11463
1.11465
1.11467
1.1147
1.11473
1.11477
1.1148
1.11484
1.11488
1.11492
1.11497
1.11502
1.11507
1.11512
1.11517
1.11523
1.11529
1.11534
1.11541
1.11547
1.11553
1.1156
1.11566
1.11573
1.11579
1.11586
1.11593
1.116
1.11607
1.11614
1.11621
1.11627
1.11634
1.11641
1.11648
1.11654
1.1166
1.11667
1.11673
1.11679
1.11685
1.1169
1.11696
1.11701
1.11706
1.11711
1.11715
1.11719
1.11724
1.11728
1.11731
1.11735
1.11738
1.11741
1.11744
1.11747
1.1175
1.11752
1.11755
1.11757
1.11759
1.11762
1.11764
1.11766
1.11768
1.11771
1.11774
1.11776
1.11779
1.11782
1.11785
1.11789
1.11793
1.11797
1.11802
1.11807
1.11812
1.11818
1.11824
1.11831
1.11838
1.11846
1.11854
1.11863
1.11873
1.11883
1.11894
1.11906
1.11919
1.11932
1.11946
1.1196
1.11976
1.11992
1.12009
1.12027
1.12045
1.12065
1.12084
1.12105
1.12126
1.12148
1.12171
1.12194
1.12217
1.12241
1.12265
1.12289
1.12314
1.12339
1.12363
1.12388
1.12413
1.12437
1.12461
1.12485
1.12509
1.12532
1.12554
1.12576
1.12598
1.12619
1.1264
1.1266
1.1268
1.12699
1.12718
1.12736
1.12754
1.12772
1.12789
1.12806
1.12823
1.12839
1.12855
1.1287
1.12886
1.12901
1.12915
1.1293
1.12944
1.12957
1.12971
1.12984
1.12996
1.13008
1.13019
1.1303
1.1304
1.1305
1.13059
1.13067
1.13074
1.13081
1.13086
1.13091
1.13095
1.13099
1.13101
1.13103
1.13103
1.13104
1.13103
1.13101
1.13099
1.13097
1.13093
1.1309
1.13086
1.13081
1.13076
1.13071
1.13066
1.13061
1.13056
1.13051
1.13046
1.13042
1.13038
1.13034
1.13031
1.13029
1.13028
1.13028
1.13029
1.13031
1.13035
1.1304
1.13047
1.13055
1.13066
1.13078
1.13093
1.13109
1.13129
1.13151
1.13175
1.13203
1.13233
1.13267
1.13303
1.13344
1.13387
1.13434
1.13485
1.1354
1.13598
1.13661
1.13728
1.13799
1.13874
1.13954
1.14038
1.14127
1.14221
1.1432
1.14425
1.14535
1.1465
1.14772
1.149
1.15033
1.15173
1.15318
1.15467
1.15616
1.15762
1.15898
1.16015
1.16105
1.1616
1.16174
1.16143
1.10045
1.10017
1.10003
1.10004
1.10017
1.10039
1.10066
1.10097
1.10128
1.10159
1.10188
1.10215
1.1024
1.10263
1.10283
1.10301
1.10317
1.1033
1.10342
1.10352
1.10361
1.10368
1.10374
1.10379
1.10383
1.10386
1.10388
1.1039
1.10391
1.10391
1.10391
1.10391
1.1039
1.10389
1.10387
1.10386
1.10384
1.10382
1.1038
1.10378
1.10376
1.10374
1.10373
1.10371
1.1037
1.10368
1.10367
1.10367
1.10366
1.10366
1.10367
1.10368
1.1037
1.10372
1.10374
1.10378
1.10382
1.10387
1.10392
1.10399
1.10406
1.10414
1.10423
1.10433
1.10444
1.10456
1.10469
1.10483
1.10498
1.10514
1.10531
1.10549
1.10568
1.10588
1.10609
1.10631
1.10654
1.10678
1.10703
1.10728
1.10755
1.10782
1.1081
1.10838
1.10867
1.10897
1.10927
1.10957
1.10988
1.11019
1.1105
1.11081
1.11112
1.11143
1.11174
1.11204
1.11234
1.11263
1.11292
1.11319
1.11346
1.11372
1.11398
1.11422
1.11445
1.11467
1.11488
1.11507
1.11526
1.11543
1.11559
1.11573
1.11586
1.11598
1.11608
1.11616
1.11624
1.11629
1.11634
1.11637
1.11639
1.11639
1.11639
1.11637
1.11635
1.11631
1.11627
1.11622
1.11617
1.11611
1.11605
1.11598
1.11591
1.11584
1.11576
1.11569
1.11561
1.11554
1.11547
1.11539
1.11532
1.11525
1.11519
1.11512
1.11506
1.115
1.11495
1.11489
1.11484
1.1148
1.11476
1.11472
1.11468
1.11465
1.11462
1.1146
1.11458
1.11456
1.11455
1.11454
1.11454
1.11454
1.11454
1.11454
1.11455
1.11457
1.11458
1.1146
1.11462
1.11465
1.11467
1.1147
1.11474
1.11477
1.11481
1.11485
1.11489
1.11494
1.11499
1.11504
1.11509
1.11514