# vtk DataFile Version 2.0
LBE mesh
ASCII
DATASET STRUCTURED_POINTS
DIMENSIONS 400 100 1
ASPECT_RATIO 1 1 1
ORIGIN 0 0 0
POINT_DATA 40000
SCALARS rho double 1
LOOKUP_TABLE default
1.19346
1.29138
1.3191
1.32371
1.32576
1.32781
1.32935
1.33035
1.33101
1.3315
1.33188
1.33219
1.33243
1.33262
1.33278
1.33292
1.33302
1.33311
1.33318
1.33324
1.33328
1.33331
1.33333
1.33335
1.33335
1.33335
1.33334
1.33332
1.33329
1.33327
1.33323
1.3332
1.33315
1.33311
1.33306
1.33301
1.33295
1.3329
1.33284
1.33278
1.33272
1.33266
1.3326
1.33254
1.33248
1.33243
1.33237
1.33232
1.33227
1.33222
1.33218
1.33214
1.3321
1.33208
1.33205
1.33203
1.33202
1.33201
1.33201
1.33202
1.33204
1.33206
1.33209
1.33213
1.33218
1.33224
1.3323
1.33238
1.33246
1.33255
1.33265
1.33276
1.33288
1.33301
1.33315
1.33329
1.33345
1.33361
1.33378
1.33396
1.33415
1.33434
1.33454
1.33475
1.33497
1.33519
1.33542
1.33566
1.3359
1.33614
1.33639
1.33665
1.33691
1.33717
1.33743
1.3377
1.33797
1.33823
1.3385
1.33877
1.33904
1.3393
1.33956
1.33982
1.34008
1.34033
1.34058
1.34082
1.34105
1.34128
1.3415
1.34171
1.34191
1.34211
1.34229
1.34247
1.34263
1.34279
1.34293
1.34307
1.34319
1.3433
1.3434
1.34349
1.34357
1.34364
1.3437
1.34375
1.34379
1.34382
1.34385
1.34387
1.34388
1.34388
1.34388
1.34387
1.34386
1.34384
1.34382
1.34379
1.34376
1.34373
1.34369
1.34365
1.34361
1.34357
1.34353
1.34348
1.34344
1.34339
1.34334
1.34329
1.34324
1.3432
1.34315
1.3431
1.34305
1.343
1.34295
1.3429
1.34285
1.3428
1.34276
1.34271
1.34266
1.34261
1.34257
1.34252
1.34248
1.34243
1.34239
1.34234
1.3423
1.34226
1.34222
1.34217
1.34213
1.34209
1.34205
1.34201
1.34197
1.34193
1.34189
1.34185
1.34182
1.34178
1.34174
1.34171
1.34167
1.34164
1.3416
1.34157
1.34154
1.3415
1.34147
1.34144
1.34142
1.34139
1.34136
1.34134
1.34131
1.34129
1.34127
1.34125
1.34123
1.34122
1.3412
1.34119
1.34118
1.34118
1.34117
1.34117
1.34118
1.34118
1.34119
1.3412
1.34122
1.34124
1.34126
1.34129
1.34132
1.34136
1.3414
1.34145
1.3415
1.34156
1.34162
1.34169
1.34177
1.34185
1.34194
1.34204
1.34214
1.34225
1.34237
1.34249
1.34262
1.34277
1.34291
1.34307
1.34324
1.34341
1.34359
1.34379
1.34399
1.3442
1.34441
1.34464
1.34488
1.34512
1.34537
1.34564
1.34591
1.34619
1.34648
1.34677
1.34708
1.34739
1.34771
1.34803
1.34837
1.34871
1.34905
1.3494
1.34975
1.35011
1.35047
1.35084
1.35121
1.35157
1.35194
1.35231
1.35267
1.35304
1.3534
1.35376
1.35411
1.35446
1.3548
1.35514
1.35546
1.35578
1.35609
1.35639
1.35668
1.35696
1.35723
1.35748
1.35773
1.35797
1.35819
1.35841
1.35861
1.3588
1.35898
1.35916
1.35932
1.35947
1.35962
1.35976
1.35989
1.36001
1.36013
1.36024
1.36034
1.36044
1.36053
1.36062
1.36071
1.36079
1.36087
1.36094
1.36101
1.36108
1.36115
1.36122
1.36128
1.36134
1.3614
1.36146
1.36152
1.36157
1.36163
1.36168
1.36174
1.36179
1.36184
1.3619
1.36195
1.36201
1.36206
1.36212
1.36218
1.36224
1.36231
1.36238
1.36245
1.36252
1.36261
1.36269
1.36279
1.36289
1.36299
1.36311
1.36324
1.36337
1.36352
1.36368
1.36385
1.36403
1.36423
1.36445
1.36468
1.36492
1.36519
1.36547
1.36577
1.3661
1.36644
1.36681
1.3672
1.36761
1.36805
1.36852
1.36901
1.36953
1.37008
1.37066
1.37127
1.37192
1.3726
1.37332
1.37407
1.37487
1.37571
1.37659
1.37752
1.3785
1.37953
1.38062
1.38178
1.38301
1.38432
1.38572
1.38722
1.38883
1.39057
1.39248
1.39456
1.39688
1.39947
1.40242
1.40583
1.40986
1.41477
1.42111
1.42993
1.44235
1.46063
1.49792
1.28374
1.29149
1.30472
1.31671
1.3228
1.32574
1.32753
1.32883
1.3298
1.33052
1.33106
1.33148
1.33182
1.33209
1.33232
1.3325
1.33265
1.33278
1.33288
1.33296
1.33303
1.33308
1.33312
1.33314
1.33316
1.33317
1.33317
1.33316
1.33315
1.33313
1.3331
1.33307
1.33304
1.333
1.33295
1.33291
1.33286
1.33281
1.33275
1.3327
1.33264
1.33259
1.33253
1.33247
1.33242
1.33237
1.33231
1.33226
1.33222
1.33217
1.33213
1.3321
1.33206
1.33204
1.33202
1.332
1.33199
1.33199
1.33199
1.332
1.33202
1.33204
1.33208
1.33212
1.33217
1.33223
1.3323
1.33237
1.33246
1.33255
1.33265
1.33277
1.33289
1.33302
1.33316
1.3333
1.33346
1.33362
1.33379
1.33397
1.33416
1.33436
1.33456
1.33477
1.33499
1.33521
1.33544
1.33568
1.33592
1.33616
1.33641
1.33667
1.33693
1.33719
1.33745
1.33772
1.33798
1.33825
1.33852
1.33878
1.33905
1.33931
1.33957
1.33983
1.34009
1.34034
1.34058
1.34082
1.34105
1.34128
1.3415
1.34171
1.34191
1.3421
1.34229
1.34246
1.34262
1.34278
1.34292
1.34305
1.34317
1.34328
1.34338
1.34347
1.34355
1.34361
1.34367
1.34372
1.34376
1.3438
1.34382
1.34384
1.34385
1.34385
1.34385
1.34384
1.34383
1.34381
1.34379
1.34376
1.34373
1.3437
1.34367
1.34363
1.34359
1.34355
1.34351
1.34346
1.34342
1.34337
1.34332
1.34328
1.34323
1.34318
1.34313
1.34308
1.34303
1.34298
1.34293
1.34289
1.34284
1.34279
1.34274
1.3427
1.34265
1.3426
1.34256
1.34251
1.34247
1.34242
1.34238
1.34234
1.34229
1.34225
1.34221
1.34217
1.34212
1.34208
1.34204
1.342
1.34196
1.34192
1.34189
1.34185
1.34181
1.34177
1.34174
1.3417
1.34167
1.34163
1.3416
1.34157
1.34153
1.3415
1.34147
1.34144
1.34141
1.34139
1.34136
1.34133
1.34131
1.34129
1.34127
1.34125
1.34123
1.34122
1.34121
1.3412
1.34119
1.34118
1.34118
1.34118
1.34118
1.34119
1.3412
1.34121
1.34122
1.34125
1.34127
1.3413
1.34133
1.34137
1.34141
1.34146
1.34151
1.34157
1.34164
1.34171
1.34178
1.34187
1.34196
1.34205
1.34216
1.34227
1.34239
1.34251
1.34265
1.34279
1.34294
1.3431
1.34326
1.34344
1.34362
1.34381
1.34402
1.34423
1.34444
1.34467
1.34491
1.34515
1.34541
1.34567
1.34594
1.34622
1.34651
1.34681
1.34711
1.34743
1.34775
1.34807
1.3484
1.34874
1.34909
1.34944
1.34979
1.35015
1.35051
1.35087
1.35124
1.35161
1.35197
1.35234
1.3527
1.35307
1.35343
1.35378
1.35413
1.35448
1.35482
1.35515
1.35548
1.35579
1.3561
1.3564
1.35668
1.35696
1.35723
1.35748
1.35773
1.35796
1.35819
1.3584
1.3586
1.35879
1.35897
1.35914
1.35931
1.35946
1.3596
1.35974
1.35987
1.35999
1.36011
1.36022
1.36032
1.36042
1.36052
1.36061
1.36069
1.36077
1.36085
1.36093
1.361
1.36107
1.36114
1.3612
1.36127
1.36133
1.36139
1.36145
1.36151
1.36156
1.36162
1.36167
1.36173
1.36178
1.36184
1.36189
1.36195
1.362
1.36206
1.36212
1.36218
1.36224
1.36231
1.36238
1.36245
1.36253
1.36261
1.3627
1.36279
1.36289
1.363
1.36312
1.36325
1.36339
1.36354
1.3637
1.36387
1.36406
1.36426
1.36448
1.36471
1.36496
1.36522
1.36551
1.36582
1.36614
1.36649
1.36686
1.36725
1.36767
1.36811
1.36858
1.36908
1.36961
1.37016
1.37075
1.37136
1.37202
1.3727
1.37342
1.37419
1.37499
1.37583
1.37672
1.37766
1.37865
1.37969
1.3808
1.38197
1.38321
1.38454
1.38596
1.38748
1.38912
1.39091
1.39285
1.395
1.39739
1.40009
1.40317
1.40676
1.41105
1.41635
1.42304
1.43175
1.44451
1.4668
1.50196
1.30546
1.30114
1.30945
1.31651
1.32079
1.32387
1.32611
1.32768
1.32881
1.32966
1.33033
1.33085
1.33127
1.33161
1.33188
1.33211
1.3323
1.33246
1.33259
1.3327
1.33278
1.33285
1.33291
1.33295
1.33298
1.333
1.33301
1.33302
1.33301
1.333
1.33298
1.33295
1.33292
1.33289
1.33285
1.33281
1.33277
1.33272
1.33267
1.33262
1.33257
1.33251
1.33246
1.33241
1.33236
1.3323
1.33225
1.33221
1.33216
1.33212
1.33208
1.33205
1.33202
1.332
1.33198
1.33196
1.33195
1.33195
1.33196
1.33197
1.33199
1.33202
1.33205
1.3321
1.33215
1.33221
1.33228
1.33236
1.33245
1.33254
1.33265
1.33276
1.33288
1.33301
1.33315
1.3333
1.33346
1.33363
1.3338
1.33398
1.33417
1.33437
1.33457
1.33478
1.335
1.33522
1.33545
1.33569
1.33593
1.33618
1.33643
1.33668
1.33694
1.3372
1.33747
1.33773
1.338
1.33827
1.33853
1.3388
1.33906
1.33933
1.33959
1.33985
1.3401
1.34035
1.34059
1.34083
1.34106
1.34129
1.34151
1.34172
1.34192
1.34211
1.34229
1.34246
1.34262
1.34277
1.34291
1.34304
1.34316
1.34327
1.34337
1.34346
1.34353
1.3436
1.34366
1.34371
1.34375
1.34378
1.3438
1.34382
1.34383
1.34383
1.34383
1.34382
1.34381
1.34379
1.34377
1.34374
1.34371
1.34368
1.34365
1.34361
1.34357
1.34353
1.34349
1.34344
1.3434
1.34335
1.34331
1.34326
1.34321
1.34316
1.34312
1.34307
1.34302
1.34297
1.34292
1.34287
1.34283
1.34278
1.34273
1.34269
1.34264
1.34259
1.34255
1.3425
1.34246
1.34241
1.34237
1.34233
1.34228
1.34224
1.3422
1.34216
1.34212
1.34208
1.34204
1.342
1.34196
1.34192
1.34188
1.34184
1.34181
1.34177
1.34173
1.3417
1.34166
1.34163
1.3416
1.34156
1.34153
1.3415
1.34147
1.34144
1.34141
1.34138
1.34136
1.34133
1.34131
1.34129
1.34127
1.34125
1.34123
1.34122
1.34121
1.3412
1.34119
1.34118
1.34118
1.34118
1.34118
1.34119
1.3412
1.34121
1.34123
1.34125
1.34128
1.3413
1.34134
1.34138
1.34142
1.34147
1.34152
1.34158
1.34165
1.34172
1.3418
1.34188
1.34197
1.34207
1.34217
1.34228
1.3424
1.34253
1.34266
1.34281
1.34296
1.34312
1.34328
1.34346
1.34364
1.34384
1.34404
1.34425
1.34447
1.3447
1.34493
1.34518
1.34544
1.3457
1.34597
1.34625
1.34654
1.34684
1.34714
1.34746
1.34778
1.3481
1.34844
1.34878
1.34912
1.34947
1.34983
1.35018
1.35054
1.35091
1.35127
1.35164
1.35201
1.35237
1.35274
1.3531
1.35346
1.35381
1.35416
1.35451
1.35484
1.35518
1.3555
1.35581
1.35612
1.35641
1.3567
1.35698
1.35724
1.35749
1.35774
1.35797
1.35819
1.3584
1.3586
1.35879
1.35897
1.35914
1.3593
1.35945
1.3596
1.35973
1.35986
1.35999
1.3601
1.36021
1.36031
1.36041
1.36051
1.3606
1.36068
1.36076
1.36084
1.36092
1.36099
1.36106
1.36113
1.3612
1.36126
1.36132
1.36138
1.36144
1.3615
1.36156
1.36161
1.36167
1.36172
1.36178
1.36183
1.36189
1.36194
1.362
1.36205
1.36211
1.36217
1.36224
1.3623
1.36237
1.36245
1.36252
1.36261
1.3627
1.36279
1.3629
1.36301
1.36313
1.36325
1.36339
1.36354
1.36371
1.36388
1.36407
1.36427
1.36449
1.36472
1.36498
1.36524
1.36553
1.36584
1.36617
1.36652
1.36689
1.36729
1.36771
1.36815
1.36863
1.36913
1.36965
1.37021
1.3708
1.37142
1.37208
1.37277
1.37349
1.37426
1.37506
1.37591
1.37681
1.37775
1.37874
1.37979
1.3809
1.38208
1.38333
1.38467
1.38609
1.38763
1.38928
1.39108
1.39304
1.3952
1.39761
1.40032
1.40342
1.40701
1.41125
1.41638
1.4228
1.43112
1.44157
1.45293
1.46358
1.31321
1.31195
1.31439
1.31726
1.32066
1.32343
1.32543
1.32693
1.3281
1.32902
1.32974
1.33032
1.33079
1.33118
1.3315
1.33176
1.33198
1.33217
1.33232
1.33245
1.33256
1.33264
1.33271
1.33277
1.33281
1.33284
1.33286
1.33287
1.33288
1.33287
1.33286
1.33284
1.33282
1.33279
1.33275
1.33272
1.33268
1.33263
1.33259
1.33254
1.33249
1.33244
1.33239
1.33234
1.33229
1.33224
1.33219
1.33215
1.33211
1.33207
1.33203
1.332
1.33197
1.33195
1.33193
1.33192
1.33191
1.33191
1.33192
1.33194
1.33196
1.33199
1.33203
1.33207
1.33213
1.33219
1.33226
1.33234
1.33243
1.33253
1.33263
1.33275
1.33287
1.33301
1.33315
1.3333
1.33345
1.33362
1.3338
1.33398
1.33417
1.33437
1.33457
1.33478
1.335
1.33523
1.33546
1.3357
1.33594
1.33619
1.33644
1.3367
1.33695
1.33722
1.33748
1.33775
1.33801
1.33828
1.33855
1.33882
1.33908
1.33935
1.33961
1.33986
1.34012
1.34037
1.34061
1.34085
1.34108
1.3413
1.34152
1.34173
1.34193
1.34212
1.3423
1.34247
1.34263
1.34278
1.34292
1.34305
1.34317
1.34327
1.34337
1.34345
1.34353
1.3436
1.34365
1.3437
1.34374
1.34377
1.34379
1.34381
1.34381
1.34382
1.34381
1.34381
1.34379
1.34377
1.34375
1.34373
1.3437
1.34367
1.34363
1.34359
1.34355
1.34351
1.34347
1.34343
1.34338
1.34334
1.34329
1.34325
1.3432
1.34315
1.3431
1.34305
1.34301
1.34296
1.34291
1.34286
1.34282
1.34277
1.34272
1.34268
1.34263
1.34259
1.34254
1.3425
1.34245
1.34241
1.34236
1.34232
1.34228
1.34224
1.3422
1.34215
1.34211
1.34207
1.34203
1.34199
1.34195
1.34192
1.34188
1.34184
1.3418
1.34177
1.34173
1.3417
1.34166
1.34163
1.34159
1.34156
1.34153
1.3415
1.34147
1.34144
1.34141
1.34138
1.34136
1.34133
1.34131
1.34129
1.34127
1.34125
1.34123
1.34122
1.34121
1.3412
1.34119
1.34118
1.34118
1.34118
1.34118
1.34119
1.3412
1.34121
1.34123
1.34125
1.34128
1.34131
1.34134
1.34138
1.34142
1.34147
1.34153
1.34159
1.34165
1.34172
1.3418
1.34189
1.34198
1.34208
1.34218
1.34229
1.34241
1.34254
1.34267
1.34282
1.34297
1.34313
1.3433
1.34347
1.34366
1.34385
1.34405
1.34427
1.34449
1.34472
1.34495
1.3452
1.34546
1.34572
1.34599
1.34628
1.34657
1.34686
1.34717
1.34748
1.3478
1.34813
1.34847
1.34881
1.34915
1.3495
1.34986
1.35022
1.35058
1.35094
1.35131
1.35167
1.35204
1.35241
1.35277
1.35313
1.35349
1.35385
1.3542
1.35454
1.35488
1.35521
1.35553
1.35584
1.35615
1.35644
1.35673
1.357
1.35726
1.35751
1.35776
1.35799
1.3582
1.35841
1.35861
1.3588
1.35898
1.35915
1.35931
1.35946
1.3596
1.35973
1.35986
1.35998
1.3601
1.36021
1.36031
1.36041
1.3605
1.36059
1.36068
1.36076
1.36084
1.36091
1.36098
1.36106
1.36112
1.36119
1.36125
1.36132
1.36138
1.36144
1.36149
1.36155
1.36161
1.36166
1.36172
1.36177
1.36183
1.36188
1.36194
1.36199
1.36205
1.36211
1.36217
1.36223
1.3623
1.36237
1.36244
1.36252
1.3626
1.36269
1.36279
1.36289
1.363
1.36312
1.36325
1.36339
1.36354
1.3637
1.36388
1.36407
1.36427
1.36449
1.36473
1.36498
1.36525
1.36554
1.36585
1.36618
1.36653
1.3669
1.3673
1.36772
1.36817
1.36864
1.36915
1.36968
1.37024
1.37083
1.37145
1.37211
1.3728
1.37353
1.37429
1.3751
1.37595
1.37685
1.37779
1.37878
1.37983
1.38095
1.38212
1.38337
1.38471
1.38613
1.38766
1.3893
1.39109
1.39303
1.39517
1.39754
1.40019
1.4032
1.40664
1.41063
1.41532
1.42081
1.42719
1.43425
1.44
1.44013
1.31789
1.31746
1.31797
1.31961
1.32173
1.32362
1.32525
1.32661
1.32771
1.3286
1.32933
1.32992
1.33042
1.33083
1.33117
1.33146
1.3317
1.33191
1.33208
1.33223
1.33235
1.33245
1.33253
1.3326
1.33265
1.33269
1.33272
1.33274
1.33275
1.33275
1.33274
1.33273
1.33271
1.33269
1.33266
1.33263
1.33259
1.33255
1.33251
1.33246
1.33242
1.33237
1.33232
1.33227
1.33223
1.33218
1.33213
1.33209
1.33205
1.33201
1.33198
1.33195
1.33192
1.3319
1.33189
1.33187
1.33187
1.33187
1.33188
1.3319
1.33192
1.33195
1.33199
1.33204
1.33209
1.33216
1.33223
1.33231
1.3324
1.3325
1.33261
1.33273
1.33285
1.33299
1.33313
1.33328
1.33344
1.33361
1.33379
1.33397
1.33416
1.33436
1.33457
1.33478
1.335
1.33523
1.33546
1.3357
1.33594
1.33619
1.33645
1.3367
1.33697
1.33723
1.33749
1.33776
1.33803
1.3383
1.33857
1.33884
1.3391
1.33937
1.33963
1.33988
1.34014
1.34039
1.34063
1.34087
1.3411
1.34133
1.34154
1.34175
1.34195
1.34214
1.34232
1.34249
1.34265
1.3428
1.34294
1.34306
1.34318
1.34328
1.34338
1.34346
1.34354
1.3436
1.34365
1.3437
1.34374
1.34377
1.34379
1.3438
1.34381
1.34381
1.34381
1.3438
1.34378
1.34376
1.34374
1.34371
1.34368
1.34365
1.34362
1.34358
1.34354
1.3435
1.34346
1.34342
1.34337
1.34333
1.34328
1.34323
1.34319
1.34314
1.34309
1.34304
1.343
1.34295
1.3429
1.34286
1.34281
1.34276
1.34272
1.34267
1.34262
1.34258
1.34254
1.34249
1.34245
1.3424
1.34236
1.34232
1.34228
1.34223
1.34219
1.34215
1.34211
1.34207
1.34203
1.34199
1.34195
1.34191
1.34188
1.34184
1.3418
1.34177
1.34173
1.34169
1.34166
1.34163
1.34159
1.34156
1.34153
1.3415
1.34147
1.34144
1.34141
1.34138
1.34136
1.34133
1.34131
1.34129
1.34127
1.34125
1.34123
1.34122
1.34121
1.3412
1.34119
1.34118
1.34118
1.34118
1.34118
1.34119
1.3412
1.34121
1.34123
1.34125
1.34128
1.34131
1.34134
1.34138
1.34142
1.34147
1.34153
1.34159
1.34165
1.34173
1.3418
1.34189
1.34198
1.34208
1.34218
1.3423
1.34242
1.34254
1.34268
1.34282
1.34297
1.34313
1.3433
1.34348
1.34367
1.34386
1.34406
1.34428
1.3445
1.34473
1.34497
1.34521
1.34547
1.34574
1.34601
1.34629
1.34658
1.34688
1.34719
1.3475
1.34783
1.34815
1.34849
1.34883
1.34918
1.34953
1.34988
1.35024
1.35061
1.35097
1.35134
1.35171
1.35208
1.35244
1.35281
1.35317
1.35353
1.35389
1.35424
1.35458
1.35492
1.35525
1.35557
1.35588
1.35618
1.35648
1.35676
1.35703
1.35729
1.35755
1.35778
1.35801
1.35823
1.35844
1.35863
1.35882
1.35899
1.35916
1.35932
1.35947
1.35961
1.35974
1.35987
1.35999
1.3601
1.36021
1.36031
1.36041
1.3605
1.36059
1.36067
1.36076
1.36083
1.36091
1.36098
1.36105
1.36112
1.36119
1.36125
1.36131
1.36137
1.36143
1.36149
1.36155
1.3616
1.36166
1.36171
1.36177
1.36182
1.36188
1.36193
1.36199
1.36204
1.3621
1.36216
1.36223
1.36229
1.36236
1.36243
1.36251
1.36259
1.36268
1.36278
1.36288
1.36299
1.36311
1.36324
1.36338
1.36353
1.36369
1.36387
1.36406
1.36426
1.36448
1.36471
1.36497
1.36524
1.36553
1.36584
1.36617
1.36652
1.36689
1.36729
1.36771
1.36816
1.36864
1.36914
1.36967
1.37023
1.37082
1.37144
1.3721
1.37279
1.37352
1.37429
1.37509
1.37594
1.37684
1.37778
1.37877
1.37982
1.38092
1.38209
1.38333
1.38465
1.38606
1.38757
1.38919
1.39094
1.39284
1.39491
1.3972
1.39973
1.40256
1.40573
1.40931
1.41333
1.41776
1.42231
1.42639
1.42918
1.42842
1.32136
1.32075
1.32084
1.32175
1.32294
1.32425
1.32551
1.32662
1.32758
1.32839
1.32908
1.32966
1.33015
1.33056
1.33091
1.33121
1.33147
1.33169
1.33187
1.33203
1.33216
1.33227
1.33237
1.33244
1.3325
1.33255
1.33259
1.33261
1.33263
1.33264
1.33264
1.33263
1.33261
1.33259
1.33257
1.33254
1.3325
1.33247
1.33243
1.33239
1.33234
1.3323
1.33225
1.33221
1.33216
1.33212
1.33207
1.33203
1.33199
1.33196
1.33192
1.33189
1.33187
1.33185
1.33183
1.33183
1.33182
1.33183
1.33184
1.33185
1.33188
1.33191
1.33195
1.332
1.33206
1.33212
1.3322
1.33228
1.33237
1.33247
1.33258
1.3327
1.33283
1.33297
1.33311
1.33326
1.33343
1.3336
1.33377
1.33396
1.33415
1.33435
1.33456
1.33478
1.335
1.33523
1.33546
1.3357
1.33595
1.3362
1.33645
1.33671
1.33697
1.33724
1.33751
1.33778
1.33804
1.33832
1.33859
1.33885
1.33912
1.33939
1.33965
1.33991
1.34016
1.34041
1.34066
1.3409
1.34113
1.34136
1.34157
1.34178
1.34198
1.34217
1.34235
1.34252
1.34268
1.34283
1.34296
1.34309
1.3432
1.3433
1.3434
1.34348
1.34355
1.34361
1.34366
1.34371
1.34374
1.34377
1.34379
1.3438
1.34381
1.34381
1.3438
1.34379
1.34378
1.34376
1.34373
1.34371
1.34368
1.34364
1.34361
1.34357
1.34353
1.34349
1.34345
1.34341
1.34336
1.34332
1.34327
1.34322
1.34318
1.34313
1.34308
1.34304
1.34299
1.34294
1.3429
1.34285
1.3428
1.34276
1.34271
1.34267
1.34262
1.34258
1.34253
1.34249
1.34244
1.3424
1.34236
1.34232
1.34227
1.34223
1.34219
1.34215
1.34211
1.34207
1.34203
1.34199
1.34195
1.34191
1.34188
1.34184
1.3418
1.34177
1.34173
1.34169
1.34166
1.34163
1.34159
1.34156
1.34153
1.3415
1.34147
1.34144
1.34141
1.34138
1.34136
1.34133
1.34131
1.34129
1.34127
1.34125
1.34123
1.34122
1.3412
1.34119
1.34119
1.34118
1.34118
1.34118
1.34118
1.34119
1.3412
1.34121
1.34123
1.34125
1.34128
1.34131
1.34134
1.34138
1.34142
1.34147
1.34153
1.34159
1.34165
1.34172
1.3418
1.34189
1.34198
1.34208
1.34218
1.34229
1.34241
1.34254
1.34268
1.34282
1.34297
1.34313
1.3433
1.34348
1.34367
1.34386
1.34407
1.34428
1.3445
1.34473
1.34497
1.34522
1.34548
1.34574
1.34602
1.3463
1.34659
1.34689
1.3472
1.34752
1.34784
1.34817
1.34851
1.34885
1.3492
1.34955
1.34991
1.35027
1.35064
1.351
1.35137
1.35174
1.35211
1.35248
1.35285
1.35321
1.35357
1.35393
1.35428
1.35463
1.35496
1.35529
1.35562
1.35593
1.35623
1.35652
1.35681
1.35708
1.35734
1.35759
1.35782
1.35805
1.35826
1.35847
1.35866
1.35885
1.35902
1.35918
1.35934
1.35949
1.35962
1.35976
1.35988
1.36
1.36011
1.36022
1.36032
1.36041
1.3605
1.36059
1.36068
1.36076
1.36083
1.36091
1.36098
1.36105
1.36112
1.36118
1.36125
1.36131
1.36137
1.36143
1.36149
1.36155
1.3616
1.36166
1.36171
1.36176
1.36182
1.36187
1.36193
1.36198
1.36204
1.3621
1.36216
1.36222
1.36228
1.36235
1.36242
1.3625
1.36258
1.36267
1.36276
1.36286
1.36297
1.36309
1.36322
1.36336
1.36351
1.36367
1.36384
1.36403
1.36424
1.36445
1.36469
1.36494
1.36521
1.3655
1.36581
1.36614
1.36649
1.36686
1.36726
1.36768
1.36813
1.3686
1.36911
1.36964
1.3702
1.37079
1.37141
1.37206
1.37275
1.37348
1.37424
1.37505
1.37589
1.37678
1.37771
1.3787
1.37974
1.38083
1.38199
1.38321
1.38451
1.38589
1.38737
1.38895
1.39064
1.39247
1.39446
1.39662
1.39898
1.40158
1.40442
1.40751
1.41081
1.41418
1.41737
1.41982
1.42106
1.42076
1.32371
1.32304
1.32301
1.32345
1.32416
1.32506
1.32597
1.32685
1.32764
1.32835
1.32897
1.32951
1.32997
1.33037
1.33072
1.33102
1.33128
1.3315
1.3317
1.33186
1.332
1.33212
1.33222
1.3323
1.33237
1.33243
1.33247
1.3325
1.33252
1.33253
1.33253
1.33253
1.33252
1.3325
1.33248
1.33246
1.33242
1.33239
1.33235
1.33231
1.33227
1.33223
1.33218
1.33214
1.3321
1.33205
1.33201
1.33197
1.33193
1.3319
1.33187
1.33184
1.33182
1.3318
1.33178
1.33177
1.33177
1.33178
1.33179
1.33181
1.33183
1.33187
1.33191
1.33196
1.33202
1.33208
1.33216
1.33224
1.33234
1.33244
1.33255
1.33267
1.3328
1.33294
1.33308
1.33324
1.3334
1.33357
1.33375
1.33394
1.33413
1.33434
1.33455
1.33476
1.33499
1.33522
1.33545
1.3357
1.33594
1.3362
1.33645
1.33671
1.33698
1.33725
1.33752
1.33779
1.33806
1.33833
1.3386
1.33887
1.33914
1.33941
1.33967
1.33993
1.34019
1.34044
1.34069
1.34093
1.34116
1.34139
1.34161
1.34182
1.34202
1.34221
1.34239
1.34255
1.34271
1.34286
1.34299
1.34312
1.34323
1.34333
1.34342
1.3435
1.34357
1.34363
1.34368
1.34372
1.34376
1.34378
1.3438
1.34381
1.34381
1.34381
1.3438
1.34379
1.34377
1.34375
1.34373
1.3437
1.34367
1.34364
1.3436
1.34356
1.34352
1.34348
1.34344
1.3434
1.34335
1.34331
1.34326
1.34322
1.34317
1.34312
1.34308
1.34303
1.34298
1.34294
1.34289
1.34284
1.3428
1.34275
1.34271
1.34266
1.34262
1.34257
1.34253
1.34249
1.34244
1.3424
1.34236
1.34231
1.34227
1.34223
1.34219
1.34215
1.34211
1.34207
1.34203
1.34199
1.34195
1.34192
1.34188
1.34184
1.3418
1.34177
1.34173
1.3417
1.34166
1.34163
1.34159
1.34156
1.34153
1.3415
1.34147
1.34144
1.34141
1.34138
1.34136
1.34133
1.34131
1.34129
1.34127
1.34125
1.34123
1.34122
1.3412
1.34119
1.34118
1.34118
1.34118
1.34118
1.34118
1.34119
1.3412
1.34121
1.34123
1.34125
1.34127
1.3413
1.34133
1.34137
1.34142
1.34147
1.34152
1.34158
1.34165
1.34172
1.3418
1.34188
1.34197
1.34207
1.34217
1.34229
1.34241
1.34254
1.34267
1.34282
1.34297
1.34313
1.3433
1.34347
1.34366
1.34386
1.34406
1.34427
1.3445
1.34473
1.34497
1.34522
1.34548
1.34574
1.34602
1.3463
1.3466
1.3469
1.34721
1.34753
1.34785
1.34818
1.34852
1.34887
1.34922
1.34957
1.34993
1.35029
1.35066
1.35103
1.3514
1.35177
1.35215
1.35252
1.35289
1.35325
1.35362
1.35398
1.35433
1.35467
1.35501
1.35535
1.35567
1.35598
1.35628
1.35658
1.35686
1.35713
1.35739
1.35763
1.35787
1.35809
1.35831
1.35851
1.3587
1.35888
1.35905
1.35921
1.35937
1.35951
1.35965
1.35978
1.3599
1.36001
1.36012
1.36023
1.36033
1.36042
1.36051
1.3606
1.36068
1.36076
1.36084
1.36091
1.36098
1.36105
1.36112
1.36119
1.36125
1.36131
1.36137
1.36143
1.36149
1.36155
1.3616
1.36166
1.36171
1.36176
1.36182
1.36187
1.36192
1.36198
1.36203
1.36209
1.36215
1.36221
1.36227
1.36234
1.36241
1.36249
1.36257
1.36265
1.36274
1.36284
1.36295
1.36307
1.36319
1.36333
1.36348
1.36364
1.36381
1.364
1.3642
1.36442
1.36465
1.3649
1.36517
1.36546
1.36576
1.36609
1.36644
1.36681
1.36721
1.36763
1.36808
1.36855
1.36905
1.36958
1.37013
1.37072
1.37134
1.37199
1.37268
1.3734
1.37416
1.37496
1.3758
1.37668
1.3776
1.37858
1.3796
1.38068
1.38182
1.38302
1.38429
1.38563
1.38706
1.38858
1.39021
1.39195
1.39382
1.39584
1.39801
1.40034
1.40282
1.40542
1.40807
1.4106
1.41279
1.41435
1.41496
1.4147
1.32532
1.32476
1.32463
1.32482
1.32526
1.32586
1.32652
1.32719
1.32784
1.32843
1.32897
1.32945
1.32988
1.33026
1.33059
1.33088
1.33114
1.33136
1.33155
1.33172
1.33186
1.33199
1.33209
1.33218
1.33225
1.33231
1.33236
1.33239
1.33242
1.33243
1.33244
1.33244
1.33243
1.33242
1.3324
1.33237
1.33235
1.33231
1.33228
1.33224
1.3322
1.33216
1.33212
1.33208
1.33203
1.33199
1.33195
1.33191
1.33187
1.33184
1.33181
1.33178
1.33176
1.33174
1.33173
1.33172
1.33172
1.33172
1.33174
1.33176
1.33178
1.33182
1.33186
1.33191
1.33197
1.33204
1.33212
1.3322
1.3323
1.3324
1.33251
1.33264
1.33277
1.33291
1.33305
1.33321
1.33337
1.33355
1.33373
1.33392
1.33411
1.33432
1.33453
1.33475
1.33497
1.3352
1.33544
1.33569
1.33594
1.33619
1.33645
1.33671
1.33698
1.33725
1.33752
1.3378
1.33807
1.33835
1.33862
1.33889
1.33916
1.33943
1.3397
1.33996
1.34022
1.34047
1.34072
1.34096
1.3412
1.34143
1.34165
1.34186
1.34206
1.34225
1.34243
1.3426
1.34276
1.3429
1.34304
1.34316
1.34327
1.34337
1.34346
1.34354
1.3436
1.34366
1.34371
1.34375
1.34378
1.3438
1.34381
1.34382
1.34382
1.34382
1.34381
1.3438
1.34378
1.34376
1.34373
1.3437
1.34367
1.34363
1.3436
1.34356
1.34352
1.34348
1.34344
1.34339
1.34335
1.3433
1.34326
1.34321
1.34316
1.34312
1.34307
1.34303
1.34298
1.34293
1.34289
1.34284
1.34279
1.34275
1.3427
1.34266
1.34261
1.34257
1.34253
1.34248
1.34244
1.3424
1.34236
1.34232
1.34227
1.34223
1.34219
1.34215
1.34211
1.34207
1.34203
1.34199
1.34196
1.34192
1.34188
1.34184
1.34181
1.34177
1.34173
1.3417
1.34166
1.34163
1.3416
1.34156
1.34153
1.3415
1.34147
1.34144
1.34141
1.34138
1.34136
1.34133
1.34131
1.34129
1.34127
1.34125
1.34123
1.34121
1.3412
1.34119
1.34118
1.34118
1.34117
1.34117
1.34118
1.34118
1.34119
1.3412
1.34122
1.34124
1.34126
1.34129
1.34133
1.34137
1.34141
1.34146
1.34151
1.34157
1.34164
1.34171
1.34178
1.34187
1.34196
1.34206
1.34216
1.34228
1.3424
1.34252
1.34266
1.3428
1.34296
1.34312
1.34328
1.34346
1.34365
1.34385
1.34405
1.34426
1.34449
1.34472
1.34496
1.34521
1.34547
1.34574
1.34601
1.3463
1.34659
1.3469
1.34721
1.34753
1.34785
1.34819
1.34853
1.34888
1.34923
1.34959
1.34995
1.35031
1.35068
1.35106
1.35143
1.35181
1.35218
1.35256
1.35293
1.3533
1.35366
1.35402
1.35438
1.35473
1.35507
1.3554
1.35573
1.35604
1.35634
1.35664
1.35692
1.35719
1.35745
1.35769
1.35793
1.35815
1.35836
1.35856
1.35875
1.35892
1.35909
1.35925
1.3594
1.35954
1.35968
1.3598
1.35992
1.36004
1.36014
1.36024
1.36034
1.36043
1.36052
1.36061
1.36069
1.36077
1.36084
1.36092
1.36099
1.36106
1.36112
1.36119
1.36125
1.36131
1.36137
1.36143
1.36149
1.36155
1.3616
1.36166
1.36171
1.36176
1.36182
1.36187
1.36192
1.36198
1.36203
1.36208
1.36214
1.3622
1.36226
1.36233
1.3624
1.36247
1.36255
1.36263
1.36272
1.36282
1.36293
1.36304
1.36316
1.3633
1.36344
1.3636
1.36377
1.36396
1.36415
1.36437
1.3646
1.36485
1.36511
1.3654
1.3657
1.36603
1.36638
1.36675
1.36714
1.36756
1.368
1.36847
1.36897
1.36949
1.37004
1.37063
1.37124
1.37189
1.37257
1.37329
1.37404
1.37483
1.37566
1.37653
1.37744
1.3784
1.37941
1.38046
1.38158
1.38275
1.38398
1.38528
1.38666
1.38812
1.38966
1.3913
1.39305
1.3949
1.39686
1.39892
1.40106
1.40322
1.40531
1.40721
1.40875
1.40976
1.41009
1.40973
1.3265
1.32605
1.32587
1.32593
1.3262
1.3266
1.32708
1.32759
1.3281
1.32859
1.32905
1.32948
1.32986
1.33021
1.33052
1.33079
1.33104
1.33125
1.33144
1.33161
1.33175
1.33187
1.33198
1.33207
1.33215
1.33221
1.33226
1.33229
1.33232
1.33234
1.33235
1.33235
1.33235
1.33234
1.33232
1.3323
1.33227
1.33224
1.33221
1.33217
1.33214
1.3321
1.33206
1.33201
1.33197
1.33193
1.33189
1.33185
1.33182
1.33178
1.33175
1.33173
1.3317
1.33169
1.33167
1.33167
1.33167
1.33167
1.33168
1.3317
1.33173
1.33177
1.33181
1.33186
1.33192
1.33199
1.33207
1.33216
1.33225
1.33236
1.33247
1.3326
1.33273
1.33287
1.33302
1.33318
1.33334
1.33352
1.3337
1.33389
1.33409
1.33429
1.33451
1.33473
1.33495
1.33519
1.33543
1.33567
1.33593
1.33618
1.33644
1.33671
1.33698
1.33725
1.33753
1.3378
1.33808
1.33836
1.33864
1.33891
1.33919
1.33946
1.33973
1.33999
1.34025
1.34051
1.34076
1.341
1.34124
1.34147
1.34169
1.3419
1.3421
1.3423
1.34248
1.34265
1.3428
1.34295
1.34308
1.34321
1.34331
1.34341
1.3435
1.34357
1.34364
1.34369
1.34374
1.34377
1.3438
1.34382
1.34383
1.34384
1.34384
1.34383
1.34382
1.3438
1.34378
1.34376
1.34373
1.3437
1.34367
1.34364
1.3436
1.34356
1.34352
1.34348
1.34343
1.34339
1.34334
1.3433
1.34325
1.34321
1.34316
1.34312
1.34307
1.34302
1.34298
1.34293
1.34288
1.34284
1.34279
1.34275
1.3427
1.34266
1.34262
1.34257
1.34253
1.34249
1.34244
1.3424
1.34236
1.34232
1.34228
1.34224
1.3422
1.34216
1.34212
1.34208
1.34204
1.342
1.34196
1.34192
1.34188
1.34185
1.34181
1.34177
1.34174
1.3417
1.34167
1.34163
1.3416
1.34157
1.34153
1.3415
1.34147
1.34144
1.34141
1.34139
1.34136
1.34133
1.34131
1.34129
1.34127
1.34125
1.34123
1.34121
1.3412
1.34119
1.34118
1.34117
1.34117
1.34117
1.34117
1.34118
1.34118
1.3412
1.34121
1.34123
1.34126
1.34128
1.34132
1.34135
1.3414
1.34144
1.3415
1.34156
1.34162
1.34169
1.34177
1.34185
1.34194
1.34204
1.34215
1.34226
1.34238
1.34251
1.34264
1.34278
1.34294
1.3431
1.34327
1.34344
1.34363
1.34383
1.34403
1.34425
1.34447
1.3447
1.34494
1.34519
1.34545
1.34572
1.346
1.34629
1.34658
1.34689
1.3472
1.34752
1.34785
1.34819
1.34853
1.34888
1.34923
1.34959
1.34996
1.35033
1.3507
1.35108
1.35146
1.35183
1.35221
1.35259
1.35297
1.35334
1.35371
1.35408
1.35443
1.35479
1.35513
1.35547
1.35579
1.35611
1.35641
1.3567
1.35699
1.35726
1.35751
1.35776
1.35799
1.35821
1.35842
1.35861
1.3588
1.35897
1.35914
1.3593
1.35944
1.35958
1.35971
1.35983
1.35995
1.36006
1.36017
1.36027
1.36036
1.36045
1.36054
1.36062
1.3607
1.36078
1.36085
1.36093
1.361
1.36106
1.36113
1.3612
1.36126
1.36132
1.36138
1.36144
1.3615
1.36155
1.36161
1.36166
1.36171
1.36177
1.36182
1.36187
1.36192
1.36197
1.36203
1.36208
1.36213
1.36219
1.36225
1.36231
1.36238
1.36245
1.36253
1.36261
1.3627
1.36279
1.36289
1.36301
1.36313
1.36326
1.3634
1.36356
1.36372
1.3639
1.3641
1.36431
1.36454
1.36478
1.36505
1.36533
1.36563
1.36595
1.36629
1.36666
1.36705
1.36747
1.3679
1.36837
1.36886
1.36938
1.36993
1.37051
1.37112
1.37176
1.37243
1.37314
1.37388
1.37466
1.37548
1.37634
1.37723
1.37817
1.37916
1.38019
1.38127
1.38241
1.3836
1.38485
1.38617
1.38756
1.38901
1.39055
1.39216
1.39384
1.3956
1.3974
1.39922
1.401
1.40266
1.40409
1.40519
1.40586
1.40603
1.40564
1.32741
1.32703
1.32684
1.32684
1.32699
1.32726
1.3276
1.32799
1.3284
1.3288
1.32919
1.32955
1.32989
1.3302
1.33049
1.33074
1.33097
1.33118
1.33136
1.33152
1.33166
1.33178
1.33189
1.33198
1.33205
1.33212
1.33217
1.33221
1.33224
1.33226
1.33227
1.33227
1.33227
1.33226
1.33225
1.33223
1.3322
1.33218
1.33214
1.33211
1.33207
1.33203
1.33199
1.33195
1.33191
1.33187
1.33183
1.3318
1.33176
1.33173
1.3317
1.33167
1.33165
1.33163
1.33162
1.33161
1.33161
1.33162
1.33163
1.33165
1.33168
1.33172
1.33176
1.33181
1.33187
1.33194
1.33202
1.33211
1.33221
1.33232
1.33243
1.33256
1.33269
1.33283
1.33298
1.33314
1.33331
1.33348
1.33367
1.33386
1.33406
1.33427
1.33448
1.3347
1.33493
1.33517
1.33541
1.33566
1.33591
1.33617
1.33644
1.33671
1.33698
1.33726
1.33753
1.33781
1.33809
1.33837
1.33865
1.33893
1.33921
1.33948
1.33975
1.34002
1.34028
1.34054
1.3408
1.34104
1.34128
1.34152
1.34174
1.34195
1.34216
1.34235
1.34253
1.3427
1.34286
1.34301
1.34314
1.34326
1.34337
1.34346
1.34354
1.34362
1.34368
1.34373
1.34377
1.34381
1.34383
1.34385
1.34386
1.34386
1.34386
1.34385
1.34383
1.34382
1.34379
1.34377
1.34374
1.34371
1.34367
1.34364
1.3436
1.34356
1.34352
1.34348
1.34343
1.34339
1.34334
1.3433
1.34325
1.34321
1.34316
1.34311
1.34307
1.34302
1.34297
1.34293
1.34288
1.34284
1.34279
1.34275
1.3427
1.34266
1.34262
1.34257
1.34253
1.34249
1.34245
1.3424
1.34236
1.34232
1.34228
1.34224
1.3422
1.34216
1.34212
1.34208
1.34204
1.342
1.34197
1.34193
1.34189