# vtk DataFile Version 2.0
LBE mesh
ASCII
DATASET STRUCTURED_POINTS
DIMENSIONS 400 100 1
ASPECT_RATIO 1 1 1
ORIGIN 0 0 0
POINT_DATA 40000
SCALARS rho double 1
LOOKUP_TABLE default
1.00939
1.05698
1.07144
1.07553
1.0778
1.07948
1.08064
1.0814
1.08192
1.08229
1.08256
1.08276
1.0829
1.08299
1.08306
1.08309
1.0831
1.0831
1.08308
1.08305
1.08301
1.08297
1.08291
1.08286
1.08279
1.08273
1.08266
1.08259
1.08252
1.08245
1.08238
1.08231
1.08223
1.08216
1.08209
1.08202
1.08194
1.08187
1.0818
1.08173
1.08166
1.08159
1.08152
1.08146
1.08139
1.08132
1.08126
1.08119
1.08113
1.08107
1.08101
1.08095
1.08089
1.08084
1.08079
1.08074
1.08069
1.08065
1.0806
1.08057
1.08053
1.08051
1.08048
1.08046
1.08045
1.08044
1.08044
1.08045
1.08046
1.08048
1.08051
1.08055
1.08059
1.08064
1.08071
1.08078
1.08086
1.08095
1.08105
1.08116
1.08127
1.0814
1.08153
1.08168
1.08183
1.08199
1.08216
1.08233
1.08251
1.08269
1.08288
1.08307
1.08327
1.08346
1.08366
1.08386
1.08405
1.08425
1.08444
1.08463
1.08481
1.08499
1.08516
1.08532
1.08548
1.08562
1.08576
1.08589
1.08601
1.08611
1.0862
1.08628
1.08635
1.08641
1.08645
1.08649
1.0865
1.08651
1.08651
1.08649
1.08647
1.08643
1.08639
1.08634
1.08628
1.08622
1.08615
1.08607
1.086
1.08592
1.08584
1.08576
1.08568
1.0856
1.08552
1.08544
1.08537
1.0853
1.08523
1.08517
1.08511
1.08505
1.085
1.08495
1.08491
1.08487
1.08483
1.0848
1.08477
1.08475
1.08472
1.0847
1.08468
1.08466
1.08464
1.08463
1.08461
1.08459
1.08458
1.08456
1.08454
1.08451
1.08449
1.08446
1.08443
1.08439
1.08435
1.08431
1.08426
1.08421
1.08415
1.08409
1.08402
1.08395
1.08388
1.08379
1.08371
1.08362
1.08352
1.08342
1.08332
1.08321
1.0831
1.08299
1.08287
1.08275
1.08263
1.0825
1.08238
1.08225
1.08212
1.08199
1.08186
1.08173
1.08159
1.08146
1.08133
1.08121
1.08108
1.08095
1.08083
1.08071
1.08059
1.08048
1.08037
1.08026
1.08016
1.08006
1.07996
1.07987
1.07978
1.0797
1.07962
1.07955
1.07948
1.07941
1.07936
1.0793
1.07925
1.07921
1.07917
1.07913
1.0791
1.07908
1.07906
1.07904
1.07903
1.07903
1.07903
1.07903
1.07904
1.07905
1.07907
1.07909
1.07911
1.07914
1.07918
1.07922
1.07926
1.07931
1.07936
1.07941
1.07947
1.07954
1.0796
1.07967
1.07975
1.07983
1.07991
1.07999
1.08008
1.08017
1.08026
1.08035
1.08045
1.08055
1.08064
1.08075
1.08085
1.08095
1.08106
1.08116
1.08127
1.08137
1.08148
1.08159
1.08169
1.0818
1.08191
1.08201
1.08211
1.08222
1.08232
1.08242
1.08252
1.08262
1.08271
1.08281
1.0829
1.08299
1.08308
1.08317
1.08326
1.08334
1.08343
1.08351
1.08359
1.08368
1.08376
1.08384
1.08392
1.08401
1.08409
1.08417
1.08426
1.08435
1.08444
1.08453
1.08462
1.08472
1.08481
1.08491
1.08501
1.08511
1.08521
1.08531
1.08541
1.08551
1.0856
1.0857
1.08579
1.08587
1.08596
1.08604
1.08611
1.08617
1.08623
1.08629
1.08633
1.08637
1.0864
1.08642
1.08643
1.08643
1.08642
1.08641
1.08639
1.08636
1.08633
1.08628
1.08624
1.08618
1.08612
1.08606
1.086
1.08593
1.08586
1.08578
1.08571
1.08563
1.08556
1.08548
1.08541
1.08533
1.08526
1.08519
1.08513
1.08507
1.08501
1.08496
1.08491
1.08487
1.08484
1.08481
1.0848
1.08479
1.0848
1.08481
1.08484
1.08488
1.08494
1.08501
1.0851
1.08521
1.08534
1.08549
1.08567
1.08587
1.0861
1.08635
1.08664
1.08696
1.08732
1.08771
1.08815
1.08863
1.08915
1.08973
1.09036
1.09105
1.09179
1.09261
1.0935
1.09447
1.09553
1.09669
1.09797
1.09938
1.10094
1.10269
1.10467
1.10693
1.10957
1.1127
1.11654
1.12153
1.12839
1.13803
1.15357
1.18775
1.04177
1.05405
1.06446
1.07175
1.07566
1.07784
1.07926
1.08026
1.08099
1.08151
1.0819
1.08218
1.0824
1.08255
1.08266
1.08274
1.08278
1.08281
1.08282
1.08281
1.08279
1.08276
1.08273
1.08268
1.08263
1.08258
1.08252
1.08246
1.0824
1.08234
1.08227
1.08221
1.08214
1.08207
1.082
1.08194
1.08187
1.0818
1.08173
1.08167
1.0816
1.08154
1.08147
1.08141
1.08134
1.08128
1.08122
1.08115
1.08109
1.08103
1.08098
1.08092
1.08086
1.08081
1.08076
1.08071
1.08067
1.08063
1.08059
1.08055
1.08052
1.08049
1.08047
1.08045
1.08044
1.08044
1.08044
1.08045
1.08046
1.08048
1.08051
1.08055
1.0806
1.08065
1.08072
1.08079
1.08087
1.08097
1.08107
1.08118
1.08129
1.08142
1.08156
1.0817
1.08185
1.08201
1.08218
1.08235
1.08253
1.08272
1.0829
1.0831
1.08329
1.08349
1.08368
1.08388
1.08407
1.08426
1.08445
1.08464
1.08482
1.085
1.08516
1.08533
1.08548
1.08562
1.08576
1.08588
1.08599
1.0861
1.08619
1.08626
1.08633
1.08638
1.08642
1.08645
1.08647
1.08648
1.08647
1.08645
1.08643
1.08639
1.08635
1.08629
1.08624
1.08617
1.0861
1.08603
1.08595
1.08588
1.0858
1.08572
1.08564
1.08556
1.08548
1.08541
1.08534
1.08527
1.0852
1.08514
1.08508
1.08503
1.08498
1.08493
1.08489
1.08485
1.08481
1.08478
1.08475
1.08473
1.0847
1.08468
1.08466
1.08465
1.08463
1.08461
1.08459
1.08458
1.08456
1.08454
1.08452
1.08449
1.08447
1.08444
1.0844
1.08437
1.08433
1.08428
1.08424
1.08418
1.08413
1.08406
1.084
1.08393
1.08385
1.08377
1.08368
1.08359
1.0835
1.0834
1.08329
1.08319
1.08308
1.08296
1.08284
1.08272
1.0826
1.08248
1.08235
1.08222
1.08209
1.08196
1.08183
1.0817
1.08157
1.08144
1.08131
1.08118
1.08106
1.08093
1.08081
1.08069
1.08057
1.08046
1.08035
1.08024
1.08014
1.08004
1.07994
1.07985
1.07977
1.07968
1.07961
1.07953
1.07946
1.0794
1.07934
1.07929
1.07924
1.07919
1.07916
1.07912
1.07909
1.07907
1.07905
1.07903
1.07902
1.07902
1.07902
1.07902
1.07903
1.07904
1.07906
1.07908
1.07911
1.07914
1.07917
1.07921
1.07926
1.0793
1.07936
1.07941
1.07947
1.07954
1.0796
1.07967
1.07975
1.07983
1.07991
1.07999
1.08008
1.08017
1.08026
1.08036
1.08046
1.08055
1.08065
1.08076
1.08086
1.08096
1.08107
1.08118
1.08128
1.08139
1.0815
1.0816
1.08171
1.08182
1.08192
1.08203
1.08213
1.08224
1.08234
1.08244
1.08254
1.08264
1.08273
1.08283
1.08292
1.08301
1.0831
1.08319
1.08327
1.08336
1.08344
1.08352
1.08361
1.08369
1.08377
1.08385
1.08393
1.08402
1.0841
1.08418
1.08427
1.08435
1.08444
1.08453
1.08463
1.08472
1.08481
1.08491
1.08501
1.08511
1.08521
1.0853
1.0854
1.0855
1.08559
1.08569
1.08578
1.08586
1.08594
1.08602
1.08609
1.08616
1.08621
1.08626
1.08631
1.08634
1.08637
1.08639
1.0864
1.0864
1.08639
1.08638
1.08636
1.08633
1.08629
1.08625
1.0862
1.08615
1.08609
1.08603
1.08597
1.0859
1.08583
1.08575
1.08568
1.08561
1.08553
1.08546
1.08538
1.08531
1.08524
1.08518
1.08511
1.08505
1.085
1.08495
1.0849
1.08486
1.08483
1.08481
1.0848
1.08479
1.0848
1.08482
1.08485
1.08489
1.08495
1.08503
1.08512
1.08523
1.08537
1.08552
1.0857
1.08591
1.08614
1.0864
1.0867
1.08703
1.08739
1.08779
1.08824
1.08872
1.08926
1.08984
1.09048
1.09118
1.09194
1.09277
1.09368
1.09467
1.09575
1.09694
1.09825
1.09969
1.1013
1.10312
1.10517
1.10754
1.11032
1.11367
1.1178
1.12305
1.12998
1.14031
1.15801
1.18517
1.05926
1.06027
1.06624
1.07109
1.07429
1.07658
1.07821
1.07937
1.0802
1.08083
1.0813
1.08166
1.08193
1.08213
1.08228
1.08239
1.08247
1.08253
1.08256
1.08257
1.08257
1.08256
1.08253
1.0825
1.08247
1.08242
1.08238
1.08233
1.08227
1.08222
1.08216
1.0821
1.08204
1.08198
1.08191
1.08185
1.08179
1.08172
1.08166
1.0816
1.08153
1.08147
1.08141
1.08134
1.08128
1.08122
1.08116
1.0811
1.08104
1.08098
1.08093
1.08087
1.08082
1.08077
1.08072
1.08067
1.08063
1.08059
1.08055
1.08051
1.08048
1.08046
1.08044
1.08042
1.08041
1.08041
1.08041
1.08042
1.08044
1.08046
1.08049
1.08054
1.08058
1.08064
1.08071
1.08078
1.08087
1.08096
1.08106
1.08117
1.08129
1.08142
1.08156
1.08171
1.08186
1.08202
1.08219
1.08236
1.08254
1.08273
1.08291
1.08311
1.0833
1.08349
1.08369
1.08389
1.08408
1.08427
1.08446
1.08464
1.08482
1.085
1.08516
1.08532
1.08547
1.08561
1.08574
1.08587
1.08598
1.08607
1.08616
1.08624
1.0863
1.08635
1.08639
1.08641
1.08643
1.08643
1.08642
1.0864
1.08638
1.08634
1.08629
1.08624
1.08618
1.08612
1.08605
1.08597
1.0859
1.08582
1.08574
1.08566
1.08559
1.08551
1.08543
1.08536
1.08529
1.08522
1.08516
1.08509
1.08504
1.08498
1.08493
1.08489
1.08485
1.08481
1.08478
1.08474
1.08472
1.08469
1.08467
1.08465
1.08463
1.08461
1.08459
1.08457
1.08456
1.08454
1.08452
1.0845
1.08448
1.08445
1.08443
1.0844
1.08436
1.08433
1.08428
1.08424
1.08419
1.08414
1.08408
1.08402
1.08395
1.08388
1.0838
1.08372
1.08363
1.08354
1.08345
1.08335
1.08324
1.08314
1.08303
1.08291
1.0828
1.08268
1.08255
1.08243
1.0823
1.08218
1.08205
1.08192
1.08179
1.08166
1.08153
1.0814
1.08127
1.08114
1.08102
1.08089
1.08077
1.08065
1.08054
1.08042
1.08031
1.08021
1.0801
1.08001
1.07991
1.07982
1.07973
1.07965
1.07957
1.0795
1.07943
1.07937
1.07931
1.07926
1.07921
1.07917
1.07913
1.07909
1.07906
1.07904
1.07902
1.07901
1.079
1.07899
1.07899
1.07899
1.079
1.07902
1.07903
1.07906
1.07908
1.07912
1.07915
1.07919
1.07924
1.07928
1.07934
1.07939
1.07945
1.07952
1.07959
1.07966
1.07974
1.07981
1.0799
1.07998
1.08007
1.08016
1.08025
1.08035
1.08045
1.08055
1.08065
1.08075
1.08085
1.08096
1.08106
1.08117
1.08128
1.08139
1.08149
1.0816
1.08171
1.08182
1.08192
1.08203
1.08213
1.08224
1.08234
1.08244
1.08254
1.08264
1.08274
1.08283
1.08292
1.08302
1.08311
1.08319
1.08328
1.08337
1.08345
1.08353
1.08361
1.08369
1.08378
1.08386
1.08394
1.08402
1.0841
1.08419
1.08427
1.08436
1.08445
1.08454
1.08463
1.08472
1.08481
1.08491
1.08501
1.0851
1.0852
1.0853
1.0854
1.08549
1.08559
1.08568
1.08577
1.08585
1.08593
1.08601
1.08607
1.08614
1.08619
1.08624
1.08628
1.08632
1.08634
1.08636
1.08637
1.08637
1.08636
1.08635
1.08633
1.0863
1.08626
1.08622
1.08617
1.08612
1.08606
1.086
1.08593
1.08587
1.0858
1.08572
1.08565
1.08558
1.0855
1.08543
1.08536
1.08529
1.08522
1.08515
1.08509
1.08503
1.08497
1.08492
1.08488
1.08484
1.08481
1.08479
1.08478
1.08478
1.08478
1.0848
1.08483
1.08488
1.08494
1.08502
1.08511
1.08523
1.08537
1.08552
1.08571
1.08591
1.08615
1.08642
1.08672
1.08705
1.08742
1.08782
1.08827
1.08877
1.08931
1.0899
1.09054
1.09125
1.09202
1.09286
1.09377
1.09477
1.09586
1.09706
1.09838
1.09984
1.10147
1.1033
1.10537
1.10775
1.11053
1.11383
1.11784
1.12289
1.12944
1.13774
1.14678
1.15458
1.06763
1.067
1.0691
1.07165
1.07416
1.07614
1.07763
1.07875
1.07962
1.08028
1.0808
1.0812
1.0815
1.08174
1.08193
1.08207
1.08217
1.08225
1.0823
1.08233
1.08235
1.08235
1.08234
1.08232
1.0823
1.08226
1.08223
1.08218
1.08214
1.08209
1.08204
1.08198
1.08193
1.08187
1.08181
1.08175
1.08169
1.08163
1.08157
1.08151
1.08145
1.08139
1.08133
1.08127
1.08121
1.08115
1.08109
1.08103
1.08098
1.08092
1.08086
1.08081
1.08076
1.08071
1.08066
1.08061
1.08057
1.08053
1.08049
1.08046
1.08043
1.08041
1.08039
1.08037
1.08037
1.08036
1.08037
1.08038
1.0804
1.08042
1.08046
1.0805
1.08055
1.08061
1.08067
1.08075
1.08084
1.08093
1.08104
1.08115
1.08127
1.0814
1.08154
1.08169
1.08185
1.08201
1.08218
1.08235
1.08253
1.08272
1.08291
1.0831
1.08329
1.08349
1.08369
1.08388
1.08407
1.08427
1.08445
1.08464
1.08481
1.08499
1.08515
1.08531
1.08546
1.0856
1.08572
1.08584
1.08595
1.08605
1.08613
1.0862
1.08626
1.08631
1.08635
1.08637
1.08638
1.08638
1.08637
1.08635
1.08632
1.08628
1.08623
1.08618
1.08611
1.08605
1.08598
1.0859
1.08583
1.08575
1.08567
1.08559
1.08552
1.08544
1.08536
1.08529
1.08522
1.08515
1.08509
1.08503
1.08498
1.08492
1.08487
1.08483
1.08479
1.08475
1.08472
1.08469
1.08466
1.08464
1.08461
1.08459
1.08457
1.08455
1.08454
1.08452
1.0845
1.08448
1.08446
1.08444
1.08442
1.08439
1.08437
1.08434
1.0843
1.08426
1.08422
1.08418
1.08413
1.08407
1.08401
1.08395
1.08388
1.08381
1.08373
1.08365
1.08356
1.08347
1.08338
1.08328
1.08317
1.08307
1.08296
1.08284
1.08273
1.08261
1.08249
1.08236
1.08224
1.08211
1.08198
1.08185
1.08172
1.0816
1.08147
1.08134
1.08121
1.08108
1.08096
1.08084
1.08072
1.0806
1.08048
1.08037
1.08026
1.08015
1.08005
1.07995
1.07986
1.07977
1.07968
1.0796
1.07953
1.07945
1.07939
1.07932
1.07927
1.07921
1.07917
1.07912
1.07908
1.07905
1.07902
1.079
1.07898
1.07897
1.07896
1.07895
1.07895
1.07896
1.07897
1.07898
1.079
1.07902
1.07905
1.07908
1.07912
1.07916
1.0792
1.07925
1.07931
1.07936
1.07943
1.07949
1.07956
1.07963
1.07971
1.07979
1.07987
1.07995
1.08004
1.08013
1.08023
1.08032
1.08042
1.08052
1.08062
1.08072
1.08083
1.08093
1.08104
1.08115
1.08126
1.08137
1.08147
1.08158
1.08169
1.0818
1.08191
1.08201
1.08212
1.08223
1.08233
1.08243
1.08253
1.08263
1.08273
1.08283
1.08292
1.08301
1.0831
1.08319
1.08328
1.08336
1.08345
1.08353
1.08361
1.08369
1.08378
1.08386
1.08394
1.08402
1.0841
1.08418
1.08427
1.08436
1.08444
1.08453
1.08462
1.08471
1.08481
1.0849
1.085
1.0851
1.08519
1.08529
1.08539
1.08548
1.08557
1.08566
1.08575
1.08584
1.08591
1.08599
1.08606
1.08612
1.08617
1.08622
1.08626
1.08629
1.08632
1.08633
1.08634
1.08634
1.08633
1.08632
1.08629
1.08626
1.08623
1.08618
1.08614
1.08608
1.08602
1.08596
1.0859
1.08583
1.08576
1.08569
1.08561
1.08554
1.08547
1.08539
1.08532
1.08525
1.08518
1.08512
1.08505
1.085
1.08494
1.08489
1.08485
1.08481
1.08478
1.08476
1.08475
1.08474
1.08475
1.08477
1.0848
1.08485
1.08491
1.08499
1.08508
1.0852
1.08534
1.08549
1.08568
1.08589
1.08613
1.08639
1.08669
1.08703
1.0874
1.08781
1.08826
1.08876
1.0893
1.08989
1.09054
1.09125
1.09202
1.09286
1.09378
1.09478
1.09587
1.09707
1.09838
1.09983
1.10144
1.10324
1.10527
1.10758
1.11024
1.11334
1.117
1.12131
1.12632
1.13184
1.13633
1.1363
1.07156
1.07105
1.07174
1.07312
1.07473
1.07618
1.07741
1.07842
1.07924
1.07988
1.0804
1.08082
1.08114
1.0814
1.08161
1.08177
1.08189
1.08199
1.08205
1.0821
1.08213
1.08215
1.08215
1.08214
1.08212
1.0821
1.08207
1.08204
1.082
1.08195
1.08191
1.08186
1.08181
1.08176
1.0817
1.08165
1.08159
1.08153
1.08148
1.08142
1.08136
1.0813
1.08124
1.08119
1.08113
1.08107
1.08101
1.08095
1.0809
1.08084
1.08079
1.08073
1.08068
1.08063
1.08058
1.08054
1.08049
1.08046
1.08042
1.08039
1.08036
1.08034
1.08032
1.0803
1.0803
1.08029
1.0803
1.08031
1.08033
1.08036
1.08039
1.08044
1.08049
1.08055
1.08062
1.0807
1.08079
1.08088
1.08099
1.0811
1.08123
1.08136
1.0815
1.08165
1.08181
1.08198
1.08215
1.08232
1.08251
1.08269
1.08288
1.08308
1.08327
1.08347
1.08367
1.08386
1.08406
1.08425
1.08444
1.08462
1.0848
1.08497
1.08513
1.08529
1.08543
1.08557
1.0857
1.08581
1.08592
1.08601
1.08609
1.08616
1.08622
1.08627
1.0863
1.08632
1.08633
1.08632
1.08631
1.08628
1.08625
1.08621
1.08616
1.0861
1.08604
1.08597
1.0859
1.08582
1.08575
1.08567
1.08559
1.08551
1.08543
1.08535
1.08528
1.08521
1.08514
1.08507
1.08501
1.08495
1.0849
1.08484
1.0848
1.08475
1.08471
1.08468
1.08464
1.08461
1.08459
1.08456
1.08454
1.08452
1.0845
1.08448
1.08446
1.08444
1.08443
1.08441
1.08439
1.08436
1.08434
1.08431
1.08429
1.08425
1.08422
1.08418
1.08414
1.08409
1.08404
1.08399
1.08393
1.08386
1.08379
1.08372
1.08364
1.08356
1.08347
1.08338
1.08329
1.08319
1.08309
1.08298
1.08287
1.08276
1.08264
1.08252
1.0824
1.08228
1.08215
1.08203
1.0819
1.08177
1.08164
1.08151
1.08139
1.08126
1.08113
1.08101
1.08088
1.08076
1.08064
1.08052
1.08041
1.0803
1.08019
1.08009
1.07998
1.07989
1.07979
1.0797
1.07962
1.07954
1.07946
1.07939
1.07932
1.07926
1.07921
1.07915
1.07911
1.07906
1.07903
1.07899
1.07897
1.07894
1.07893
1.07891
1.0789
1.0789
1.0789
1.07891
1.07892
1.07893
1.07895
1.07898
1.079
1.07904
1.07907
1.07911
1.07916
1.07921
1.07926
1.07932
1.07938
1.07945
1.07952
1.07959
1.07966
1.07974
1.07983
1.07991
1.08
1.08009
1.08018
1.08028
1.08038
1.08048
1.08058
1.08068
1.08079
1.08089
1.081
1.08111
1.08122
1.08133
1.08144
1.08155
1.08165
1.08176
1.08187
1.08198
1.08209
1.0822
1.0823
1.08241
1.08251
1.08261
1.08271
1.08281
1.0829
1.083
1.08309
1.08318
1.08327
1.08335
1.08344
1.08352
1.08361
1.08369
1.08377
1.08385
1.08393
1.08401
1.0841
1.08418
1.08426
1.08435
1.08443
1.08452
1.08461
1.08471
1.0848
1.08489
1.08499
1.08508
1.08518
1.08528
1.08537
1.08547
1.08556
1.08565
1.08574
1.08582
1.0859
1.08597
1.08604
1.0861
1.08615
1.0862
1.08624
1.08627
1.08629
1.08631
1.08631
1.08631
1.0863
1.08628
1.08626
1.08623
1.08619
1.08615
1.0861
1.08604
1.08599
1.08592
1.08586
1.08579
1.08572
1.08565
1.08557
1.0855
1.08543
1.08535
1.08528
1.08521
1.08514
1.08508
1.08501
1.08495
1.0849
1.08485
1.0848
1.08477
1.08474
1.08471
1.0847
1.08469
1.0847
1.08472
1.08475
1.0848
1.08486
1.08493
1.08503
1.08514
1.08528
1.08544
1.08562
1.08583
1.08606
1.08633
1.08663
1.08696
1.08733
1.08774
1.0882
1.08869
1.08924
1.08983
1.09048
1.09118
1.09195
1.09279
1.0937
1.09469
1.09577
1.09695
1.09824
1.09966
1.10122
1.10295
1.10489
1.10706
1.10951
1.11229
1.11542
1.11887
1.12243
1.12561
1.12774
1.12713
1.07403
1.07359
1.07379
1.07452
1.07549
1.07651
1.07748
1.07831
1.07903
1.07962
1.08011
1.08051
1.08084
1.08111
1.08132
1.08149
1.08163
1.08174
1.08181
1.08187
1.08191
1.08194
1.08195
1.08195
1.08195
1.08193
1.08191
1.08188
1.08185
1.08181
1.08177
1.08173
1.08168
1.08163
1.08158
1.08153
1.08148
1.08143
1.08137
1.08132
1.08126
1.0812
1.08115
1.08109
1.08103
1.08097
1.08092
1.08086
1.0808
1.08075
1.08069
1.08064
1.08059
1.08054
1.08049
1.08045
1.08041
1.08037
1.08033
1.0803
1.08027
1.08025
1.08023
1.08022
1.08021
1.08021
1.08022
1.08023
1.08025
1.08028
1.08031
1.08036
1.08041
1.08048
1.08055
1.08063
1.08072
1.08082
1.08092
1.08104
1.08117
1.0813
1.08145
1.0816
1.08176
1.08193
1.0821
1.08228
1.08247
1.08266
1.08285
1.08304
1.08324
1.08344
1.08364
1.08383
1.08403
1.08422
1.08441
1.08459
1.08477
1.08494
1.0851
1.08525
1.0854
1.08554
1.08566
1.08578
1.08588
1.08597
1.08605
1.08612
1.08617
1.08621
1.08624
1.08626
1.08626
1.08625
1.08624
1.08621
1.08617
1.08613
1.08607
1.08601
1.08595
1.08588
1.0858
1.08573
1.08565
1.08557
1.08549
1.08541
1.08533
1.08526
1.08518
1.08511
1.08504
1.08497
1.08491
1.08485
1.0848
1.08475
1.0847
1.08466
1.08462
1.08458
1.08455
1.08452
1.0845
1.08447
1.08445
1.08443
1.08441
1.08439
1.08437
1.08435
1.08433
1.08431
1.08429
1.08427
1.08425
1.08422
1.08419
1.08416
1.08412
1.08408
1.08404
1.08399
1.08394
1.08388
1.08382
1.08376
1.08369
1.08361
1.08354
1.08345
1.08337
1.08328
1.08318
1.08308
1.08298
1.08287
1.08276
1.08265
1.08253
1.08242
1.08229
1.08217
1.08205
1.08192
1.0818
1.08167
1.08154
1.08142
1.08129
1.08116
1.08104
1.08091
1.08079
1.08067
1.08055
1.08043
1.08032
1.08021
1.0801
1.08
1.0799
1.0798
1.07971
1.07962
1.07954
1.07946
1.07938
1.07931
1.07925
1.07919
1.07913
1.07908
1.07903
1.07899
1.07896
1.07892
1.0789
1.07888
1.07886
1.07885
1.07884
1.07884
1.07884
1.07884
1.07886
1.07887
1.07889
1.07892
1.07894
1.07898
1.07902
1.07906
1.0791
1.07915
1.07921
1.07926
1.07933
1.07939
1.07946
1.07953
1.07961
1.07969
1.07977
1.07986
1.07994
1.08003
1.08013
1.08022
1.08032
1.08042
1.08052
1.08062
1.08073
1.08084
1.08094
1.08105
1.08116
1.08127
1.08138
1.08149
1.0816
1.08171
1.08182
1.08194
1.08204
1.08215
1.08226
1.08237
1.08247
1.08258
1.08268
1.08278
1.08288
1.08297
1.08307
1.08316
1.08325
1.08334
1.08342
1.08351
1.08359
1.08368
1.08376
1.08384
1.08392
1.084
1.08408
1.08417
1.08425
1.08434
1.08442
1.08451
1.0846
1.08469
1.08478
1.08488
1.08497
1.08507
1.08516
1.08526
1.08535
1.08545
1.08554
1.08563
1.08572
1.0858
1.08588
1.08595
1.08601
1.08607
1.08613
1.08617
1.08621
1.08624
1.08626
1.08628
1.08628
1.08628
1.08627
1.08625
1.08622
1.08619
1.08615
1.08611
1.08606
1.086
1.08594
1.08588
1.08581
1.08575
1.08567
1.0856
1.08553
1.08545
1.08538
1.08531
1.08523
1.08516
1.08509
1.08503
1.08496
1.0849
1.08485
1.0848
1.08475
1.08471
1.08468
1.08465
1.08464
1.08463
1.08464
1.08465
1.08468
1.08472
1.08478
1.08486
1.08495
1.08506
1.08519
1.08535
1.08553
1.08574
1.08597
1.08624
1.08653
1.08686
1.08723
1.08764
1.08809
1.08858
1.08912
1.08971
1.09035
1.09105
1.09181
1.09264
1.09354
1.09451
1.09557
1.09672
1.09797
1.09933
1.10083
1.10247
1.10427
1.10626
1.10845
1.11085
1.11341
1.11603
1.11851
1.12041
1.12134
1.12107
1.07571
1.07528
1.07529
1.07568
1.07627
1.07698
1.07769
1.07835
1.07895
1.07947
1.07991
1.08029
1.0806
1.08086
1.08108
1.08125
1.08139
1.0815
1.08159
1.08166
1.08171
1.08174
1.08176
1.08177
1.08177
1.08176
1.08175
1.08172
1.0817
1.08167
1.08163
1.08159
1.08155
1.08151
1.08146
1.08141
1.08136
1.08131
1.08126
1.0812
1.08115
1.08109
1.08104
1.08098
1.08093
1.08087
1.08081
1.08076
1.0807
1.08065
1.08059
1.08054
1.08049
1.08044
1.08039
1.08034
1.0803
1.08026
1.08022
1.08019
1.08017
1.08014
1.08012
1.08011
1.08011
1.08011
1.08011
1.08013
1.08015
1.08018
1.08021
1.08026
1.08032
1.08038
1.08045
1.08054
1.08063
1.08073
1.08084
1.08096
1.08109
1.08123
1.08137
1.08153
1.08169
1.08186
1.08204
1.08222
1.08241
1.0826
1.08279
1.08299
1.08319
1.08339
1.08359
1.08379
1.08398
1.08418
1.08436
1.08455
1.08472
1.0849
1.08506
1.08521
1.08536
1.08549
1.08562
1.08573
1.08583
1.08592
1.086
1.08606
1.08611
1.08615
1.08617
1.08619
1.08619
1.08618
1.08616
1.08612
1.08608
1.08603
1.08598
1.08592
1.08585
1.08577
1.0857
1.08562
1.08554
1.08546
1.08538
1.0853
1.08522
1.08514
1.08507
1.085
1.08493
1.08486
1.0848
1.08474
1.08469
1.08464
1.08459
1.08455
1.08451
1.08448
1.08444
1.08441
1.08439
1.08436
1.08434
1.08432
1.0843
1.08428
1.08426
1.08424
1.08422
1.0842
1.08418
1.08416
1.08413
1.0841
1.08407
1.08404
1.084
1.08396
1.08392
1.08387
1.08382
1.08376
1.0837
1.08363
1.08356
1.08349
1.08341
1.08333
1.08324
1.08315
1.08305
1.08295
1.08285
1.08274
1.08264
1.08252
1.08241
1.08229
1.08217
1.08205
1.08193
1.0818
1.08168
1.08155
1.08142
1.0813
1.08117
1.08105
1.08092
1.0808
1.08068
1.08056
1.08044
1.08033
1.08021
1.08011
1.08
1.0799
1.0798
1.0797
1.07961
1.07952
1.07944
1.07936
1.07929
1.07922
1.07916
1.0791
1.07904
1.07899
1.07895
1.07891
1.07887
1.07884
1.07882
1.0788
1.07878
1.07877
1.07876
1.07876
1.07876
1.07877
1.07878
1.0788
1.07882
1.07884
1.07887
1.07891
1.07895
1.07899
1.07903
1.07908
1.07914
1.0792
1.07926
1.07932
1.07939
1.07946
1.07954
1.07962
1.0797
1.07978
1.07987
1.07996
1.08005
1.08015
1.08025
1.08034
1.08045
1.08055
1.08065
1.08076
1.08087
1.08098
1.08109
1.0812
1.08131
1.08142
1.08153
1.08165
1.08176
1.08187
1.08198
1.08209
1.08221
1.08231
1.08242
1.08253
1.08263
1.08274
1.08284
1.08294
1.08303
1.08313
1.08322
1.08331
1.0834
1.08349
1.08357
1.08366
1.08374
1.08382
1.0839
1.08398
1.08407
1.08415
1.08423
1.08432
1.0844
1.08449
1.08458
1.08467
1.08476
1.08486
1.08495
1.08505
1.08514
1.08524
1.08533
1.08543
1.08552
1.08561
1.08569
1.08578
1.08585
1.08592
1.08599
1.08605
1.0861
1.08615
1.08618
1.08621
1.08623
1.08625
1.08625
1.08625
1.08623
1.08621
1.08619
1.08615
1.08611
1.08607
1.08602
1.08596
1.0859
1.08583
1.08577
1.0857
1.08563
1.08555
1.08548
1.0854
1.08533
1.08525
1.08518
1.08511
1.08504
1.08497
1.08491
1.08484
1.08479
1.08473
1.08469
1.08465
1.08461
1.08458
1.08457
1.08456
1.08456
1.08457
1.0846
1.08464
1.08469
1.08476
1.08485
1.08496
1.08509
1.08524
1.08541
1.08562
1.08585
1.08611
1.0864
1.08672
1.08709
1.08749
1.08793
1.08842
1.08895
1.08953
1.09017
1.09085
1.0916
1.09241
1.09329
1.09424
1.09526
1.09637
1.09757
1.09887
1.10028
1.10181
1.10347
1.10525
1.10716
1.10918
1.11123
1.11319
1.11489
1.11608
1.11653
1.11628
1.07685
1.07647
1.0764
1.07659
1.07696
1.07743
1.07795
1.07847
1.07896
1.0794
1.07978
1.08012
1.08041
1.08066
1.08086
1.08103
1.08117
1.08129
1.08138
1.08145
1.08151
1.08155
1.08157
1.08159
1.08159
1.08159
1.08158
1.08156
1.08154
1.08152
1.08148
1.08145
1.08141
1.08137
1.08133
1.08128
1.08124
1.08119
1.08114
1.08108
1.08103
1.08098
1.08092
1.08087
1.08081
1.08076
1.0807
1.08064
1.08059
1.08053
1.08048
1.08042
1.08037
1.08032
1.08027
1.08023
1.08018
1.08014
1.08011
1.08008
1.08005
1.08002
1.08001
1.07999
1.07999
1.07999
1.08
1.08001
1.08003
1.08006
1.0801
1.08015
1.0802
1.08027
1.08034
1.08043
1.08052
1.08063
1.08074
1.08086
1.08099
1.08113
1.08128
1.08144
1.0816
1.08178
1.08196
1.08214
1.08233
1.08253
1.08273
1.08293
1.08313
1.08333
1.08353
1.08373
1.08393
1.08412
1.08431
1.0845
1.08467
1.08484
1.08501
1.08516
1.0853
1.08544
1.08556
1.08567
1.08577
1.08586
1.08593
1.08599
1.08604
1.08608
1.0861
1.08611
1.0861
1.08609
1.08606
1.08603
1.08598
1.08593
1.08587
1.0858
1.08573
1.08566
1.08558
1.0855
1.08542
1.08533
1.08525
1.08517
1.08509
1.08501
1.08494
1.08487
1.0848
1.08473
1.08467
1.08462
1.08456
1.08451
1.08447
1.08443
1.08439
1.08435
1.08432
1.08429
1.08427
1.08424
1.08422
1.0842
1.08418
1.08416
1.08414
1.08412
1.0841
1.08408
1.08405
1.08403
1.084
1.08397
1.08394
1.08391
1.08387
1.08383
1.08378
1.08373
1.08368
1.08362
1.08356
1.08349
1.08342
1.08335
1.08327
1.08318
1.0831
1.08301
1.08291
1.08281
1.08271
1.0826
1.08249
1.08238
1.08227
1.08215
1.08203
1.08191
1.08179
1.08166
1.08154
1.08142
1.08129
1.08117
1.08104
1.08092
1.08079
1.08067
1.08055
1.08043
1.08032
1.0802
1.08009
1.07999
1.07988
1.07978
1.07968
1.07959
1.0795
1.07941
1.07933
1.07926
1.07918
1.07912
1.07905
1.07899
1.07894
1.07889
1.07885
1.07881
1.07878
1.07875
1.07872
1.0787
1.07869
1.07868
1.07867
1.07867
1.07868
1.07868
1.0787
1.07871
1.07874
1.07876
1.07879
1.07883
1.07886
1.07891
1.07895
1.079
1.07906
1.07912
1.07918
1.07924
1.07931
1.07938
1.07946
1.07954
1.07962
1.0797
1.07979
1.07988
1.07997
1.08006
1.08016
1.08026
1.08036
1.08046
1.08056
1.08067
1.08078
1.08089
1.081
1.08111
1.08122
1.08134
1.08145
1.08156
1.08168
1.08179
1.08191
1.08202
1.08214
1.08225
1.08236
1.08247
1.08258
1.08269
1.08279
1.08289
1.08299
1.08309
1.08318
1.08328
1.08337
1.08346
1.08354
1.08363
1.08371
1.0838
1.08388
1.08396
1.08404
1.08412
1.08421
1.08429
1.08438
1.08447
1.08455
1.08464
1.08474
1.08483
1.08492
1.08502
1.08511
1.08521
1.0853
1.0854
1.08549
1.08558
1.08566
1.08575
1.08582
1.0859
1.08596
1.08602
1.08607
1.08612
1.08615
1.08618
1.0862
1.08621
1.08621
1.08621
1.0862
1.08617
1.08615
1.08611
1.08607
1.08602
1.08597
1.08591
1.08585
1.08578
1.08572
1.08565
1.08557
1.0855
1.08542
1.08535
1.08527
1.0852
1.08512
1.08505
1.08498
1.08491
1.08484
1.08478
1.08472
1.08467
1.08462
1.08457
1.08454
1.08451
1.08448
1.08447
1.08447
1.08448
1.0845
1.08454
1.08458
1.08465
1.08473
1.08484
1.08496
1.08511
1.08528
1.08547
1.0857
1.08595
1.08624
1.08656
1.08691
1.0873
1.08774
1.08822
1.08874
1.08931
1.08993
1.0906
1.09133
1.09212
1.09297
1.09389
1.09488
1.09594
1.09708
1.09831
1.09962
1.10102
1.10252
1.1041
1.10574
1.10741
1.10904
1.11051
1.11169
1.11246
1.11269
1.11236
1.07766
1.07733
1.07723
1.0773
1.07753
1.07785
1.07823
1.07863
1.07901
1.07938
1.07971
1.08001
1.08027
1.08049
1.08068
1.08085
1.08098
1.0811
1.08119
1.08126
1.08132
1.08136
1.08139
1.08141
1.08142
1.08142
1.08142
1.08141
1.08139
1.08137
1.08134
1.08131
1.08127
1.08124
1.08119
1.08115
1.08111
1.08106
1.08101
1.08096
1.08091
1.08085
1.0808
1.08075
1.08069
1.08063
1.08058
1.08052
1.08046
1.08041
1.08035
1.0803
1.08025
1.0802
1.08015
1.0801
1.08006
1.08002
1.07998
1.07995
1.07992
1.07989
1.07987
1.07986
1.07985
1.07986
1.07986
1.07988
1.0799
1.07993
1.07997
1.08002
1.08008
1.08014
1.08022
1.0803
1.0804
1.08051
1.08062
1.08074
1.08088
1.08102
1.08117
1.08133
1.0815
1.08168
1.08186
1.08205
1.08224
1.08244
1.08264
1.08284
1.08305
1.08325
1.08346
1.08366
1.08386
1.08405
1.08424
1.08443
1.08461
1.08478
1.08494
1.08509
1.08524
1.08537
1.08549
1.0856
1.0857
1.08579
1.08586
1.08592
1.08596
1.08599
1.08601
1.08602
1.08601
1.08599
1.08596
1.08592
1.08587
1.08582
1.08575
1.08568
1.08561
1.08553
1.08545
1.08536
1.08528
1.0852
1.08511
1.08503
1.08495
1.08487
1.0848
1.08473
1.08466
1.08459
1.08453
1.08448
1.08442
1.08437
1.08433
1.08429
1.08425
1.08422
1.08418
1.08416
1.08413
1.0841
1.08408
1.08406
1.08404
1.08402
1.084
1.08398
1.08396
1.08394
1.08391
1.08389
1.08386
1.08383
1.08379
1.08376
1.08372
1.08368
1.08363
1.08358
1.08352
1.08346
1.0834
1.08333
1.08326
1.08319
1.08311
1.08302
1.08294
1.08284
1.08275
1.08265
1.08255
1.08244
1.08233
1.08222
1.08211
1.08199
1.08187
1.08175
1.08163
1.08151
1.08139
1.08126
1.08114
1.08102
1.08089
1.08077
1.08065
1.08053
1.08041
1.08029
1.08018
1.08007
1.07996
1.07985
1.07975
1.07965
1.07955
1.07946
1.07937
1.07929
1.07921
1.07913
1.07906
1.079
1.07893
1.07888
1.07883
1.07878
1.07874
1.0787
1.07867
1.07864
1.07862
1.0786
1.07858
1.07858
1.07857
1.07857
1.07858
1.07859
1.0786
1.07862
1.07864
1.07867
1.0787
1.07873
1.07877
1.07882
1.07886
1.07891
1.07897
1.07902
1.07909
1.07915
1.07922
1.07929
1.07936
1.07944
1.07952
1.0796
1.07969
1.07978
1.07987
1.07996
1.08006
1.08015
1.08025
1.08036
1.08046
1.08056
1.08067
1.08078
1.08089
1.081
1.08112
1.08123
1.08135
1.08147
1.08158
1.0817
1.08182
1.08194
1.08205
1.08217
1.08228
1.0824
1.08251
1.08262
1.08273
1.08284
1.08294
1.08304
1.08314
1.08323
1.08333
1.08342
1.08351
1.08359
1.08368
1.08376
1.08385
1.08393
1.08401
1.08409
1.08418
1.08426
1.08435
1.08443
1.08452
1.08461
1.0847
1.0848
1.08489
1.08499
1.08508
1.08518
1.08527
1.08536
1.08546
1.08555
1.08563
1.08571
1.08579
1.08586
1.08593
1.08599
1.08604
1.08608
1.08612
1.08615
1.08617
1.08618
1.08618
1.08617
1.08616
1.08613
1.0861
1.08607
1.08602
1.08597
1.08592
1.08586
1.0858
1.08573
1.08566
1.08559
1.08552
1.08544
1.08536
1.08529
1.08521
1.08513
1.08506
1.08498
1.08491
1.08484
1.08477
1.08471
1.08465
1.08459
1.08454
1.08449
1.08445
1.08442
1.08439
1.08438
1.08437
1.08437
1.08439
1.08442
1.08446
1.08452
1.0846
1.0847
1.08481
1.08495
1.08511
1.0853
1.08552
1.08576
1.08604
1.08635
1.0867
1.08708
1.08751
1.08797
1.08848
1.08904
1.08964
1.0903
1.091
1.09177
1.09259
1.09347
1.09441
1.09542
1.0965
1.09764
1.09886
1.10014
1.10148
1.10286
1.10427
1.10564
1.10693
1.10804
1.10889
1.10939
1.10949
1.10913
1.07823
1.07796
1.07784
1.07786
1.07799
1.07821
1.07848
1.07878
1.07909
1.07939
1.07966
1.07992
1.08015
1.08035
1.08053
1.08068
1.08081
1.08091
1.081
1.08108
1.08114
1.08118
1.08121
1.08124
1.08125
1.08125
1.08125
1.08124
1.08123
1.08121
1.08119
1.08116
1.08113
1.08109
1.08105
1.08101
1.08097
1.08092
1.08088
1.08083
1.08078
1.08072
1.08067
1.08062
1.08056
1.0805
1.08045
1.08039
1.08033
1.08028
1.08022
1.08017
1.08011
1.08006
1.08001
1.07997
1.07992
1.07988
1.07984
1.07981
1.07978
1.07975
1.07973
1.07972
1.07971
1.07971
1.07972
1.07974
1.07976
1.07979
1.07983
1.07988
1.07994
1.08001
1.08008
1.08017
1.08027
1.08037
1.08049
1.08062
1.08075
1.0809
1.08105
1.08122
1.08139
1.08157
1.08175
1.08194
1.08214
1.08234
1.08254
1.08275
1.08296
1.08316
1.08337
1.08357
1.08378
1.08397
1.08416
1.08435
1.08453
1.0847
1.08486
1.08501
1.08516
1.08529
1.08541
1.08552
1.08562
1.0857
1.08577
1.08583
1.08587
1.0859
1.08591
1.08591
1.0859
1.08588
1.08585
1.0858
1.08575
1.08569
1.08562
1.08555
1.08547
1.08539
1.0853
1.08522
1.08513
1.08504
1.08496
1.08488
1.0848
1.08472
1.08464
1.08457
1.0845
1.08444
1.08438
1.08432
1.08427
1.08422
1.08418
1.08414
1.0841
1.08407
1.08403
1.08401
1.08398
1.08396
1.08393
1.08391
1.08389
1.08387
1.08385
1.08383
1.0838
1.08378
1.08376
1.08373
1.0837
1.08367
1.08363
1.0836
1.08356
1.08351
1.08346
1.08341
1.08336
1.0833
1.08323
1.08316
1.08309
1.08301
1.08293
1.08285
1.08276