# vtk DataFile Version 2.0
LBE mesh
ASCII
DATASET STRUCTURED_POINTS
DIMENSIONS 400 100 1
ASPECT_RATIO 1 1 1
ORIGIN 0 0 0
POINT_DATA 40000
SCALARS rho double 1
LOOKUP_TABLE default
1.07338
1.13818
1.15729
1.16158
1.16376
1.16555
1.16684
1.16768
1.16826
1.16869
1.16902
1.16928
1.16949
1.16967
1.16981
1.16992
1.17002
1.1701
1.17017
1.17023
1.17028
1.17033
1.17036
1.17039
1.17042
1.17044
1.17045
1.17047
1.17048
1.17049
1.17049
1.17049
1.17049
1.17049
1.17049
1.17048
1.17048
1.17047
1.17046
1.17045
1.17044
1.17043
1.17041
1.1704
1.17039
1.17038
1.17037
1.17036
1.17035
1.17034
1.17034
1.17033
1.17033
1.17033
1.17034
1.17035
1.17036
1.17038
1.1704
1.17042
1.17046
1.17049
1.17054
1.17059
1.17064
1.17071
1.17078
1.17086
1.17095
1.17104
1.17114
1.17125
1.17137
1.1715
1.17163
1.17178
1.17193
1.17209
1.17226
1.17243
1.17261
1.17281
1.173
1.17321
1.17342
1.17363
1.17386
1.17408
1.17432
1.17455
1.17479
1.17503
1.17528
1.17553
1.17577
1.17602
1.17627
1.17652
1.17676
1.177
1.17724
1.17748
1.17771
1.17794
1.17816
1.17838
1.17859
1.17879
1.17899
1.17917
1.17935
1.17952
1.17968
1.17983
1.17997
1.1801
1.18022
1.18033
1.18043
1.18051
1.18059
1.18065
1.18071
1.18076
1.18079
1.18082
1.18084
1.18085
1.18085
1.18084
1.18083
1.18082
1.18079
1.18077
1.18073
1.1807
1.18066
1.18061
1.18057
1.18052
1.18047
1.18042
1.18036
1.1803
1.18025
1.18019
1.18013
1.18007
1.18001
1.17995
1.17988
1.17982
1.17976
1.1797
1.17964
1.17957
1.17951
1.17945
1.17939
1.17933
1.17927
1.17922
1.17916
1.1791
1.17905
1.17899
1.17894
1.17889
1.17884
1.17879
1.17874
1.1787
1.17866
1.17861
1.17857
1.17853
1.1785
1.17846
1.17843
1.1784
1.17837
1.17834
1.17832
1.17829
1.17827
1.17825
1.17824
1.17822
1.17821
1.17819
1.17818
1.17818
1.17817
1.17817
1.17816
1.17816
1.17816
1.17816
1.17817
1.17817
1.17818
1.17818
1.17819
1.1782
1.17821
1.17823
1.17824
1.17826
1.17827
1.17829
1.17831
1.17833
1.17835
1.17837
1.17839
1.17841
1.17844
1.17847
1.17849
1.17852
1.17856
1.17859
1.17862
1.17866
1.1787
1.17874
1.17878
1.17883
1.17888
1.17893
1.17899
1.17905
1.17911
1.17918
1.17925
1.17932
1.17941
1.17949
1.17958
1.17968
1.17978
1.17989
1.18
1.18013
1.18025
1.18039
1.18053
1.18068
1.18084
1.18101
1.18119
1.18137
1.18156
1.18176
1.18197
1.18219
1.18242
1.18266
1.1829
1.18315
1.18341
1.18368
1.18396
1.18425
1.18454
1.18483
1.18514
1.18545
1.18576
1.18608
1.1864
1.18673
1.18705
1.18738
1.1877
1.18803
1.18835
1.18867
1.18899
1.1893
1.18961
1.18991
1.19021
1.1905
1.19077
1.19105
1.19131
1.19156
1.1918
1.19204
1.19226
1.19247
1.19267
1.19287
1.19305
1.19323
1.19339
1.19355
1.19369
1.19383
1.19396
1.19409
1.1942
1.19431
1.19441
1.19451
1.1946
1.19468
1.19476
1.19483
1.19489
1.19495
1.19501
1.19506
1.1951
1.19514
1.19518
1.1952
1.19523
1.19525
1.19526
1.19527
1.19527
1.19527
1.19526
1.19525
1.19524
1.19522
1.1952
1.19517
1.19514
1.19511
1.19508
1.19505
1.19501
1.19498
1.19495
1.19492
1.19489
1.19487
1.19485
1.19483
1.19483
1.19483
1.19483
1.19485
1.19488
1.19492
1.19497
1.19504
1.19512
1.19521
1.19532
1.19545
1.1956
1.19577
1.19595
1.19616
1.1964
1.19665
1.19693
1.19723
1.19757
1.19792
1.19831
1.19873
1.19917
1.19965
1.20016
1.2007
1.20128
1.20189
1.20254
1.20323
1.20396
1.20474
1.20555
1.20642
1.20734
1.20831
1.20934
1.21043
1.21159
1.21284
1.21417
1.21561
1.21716
1.21885
1.22071
1.22276
1.22506
1.22767
1.23068
1.23424
1.23857
1.24415
1.25192
1.26285
1.27882
1.31103
1.12578
1.13643
1.14778
1.15668
1.16134
1.16378
1.16532
1.16643
1.16725
1.16786
1.16833
1.16869
1.16898
1.16922
1.16941
1.16957
1.1697
1.16982
1.16991
1.17
1.17007
1.17013
1.17018
1.17022
1.17026
1.17029
1.17032
1.17034
1.17036
1.17037
1.17038
1.17039
1.1704
1.1704
1.1704
1.1704
1.1704
1.17039
1.17039
1.17038
1.17037
1.17036
1.17035
1.17035
1.17034
1.17033
1.17032
1.17031
1.1703
1.1703
1.1703
1.17029
1.17029
1.1703
1.17031
1.17032
1.17033
1.17035
1.17037
1.1704
1.17044
1.17048
1.17052
1.17058
1.17063
1.1707
1.17077
1.17086
1.17094
1.17104
1.17114
1.17126
1.17138
1.17151
1.17164
1.17179
1.17194
1.1721
1.17227
1.17245
1.17263
1.17282
1.17302
1.17323
1.17344
1.17366
1.17388
1.17411
1.17434
1.17457
1.17481
1.17506
1.1753
1.17555
1.17579
1.17604
1.17629
1.17653
1.17678
1.17702
1.17726
1.17749
1.17772
1.17795
1.17817
1.17838
1.17859
1.17879
1.17898
1.17917
1.17935
1.17951
1.17967
1.17982
1.17996
1.18009
1.1802
1.18031
1.1804
1.18049
1.18056
1.18063
1.18068
1.18073
1.18076
1.18079
1.1808
1.18081
1.18082
1.18081
1.1808
1.18078
1.18076
1.18073
1.1807
1.18067
1.18063
1.18058
1.18054
1.18049
1.18044
1.18039
1.18033
1.18028
1.18022
1.18016
1.1801
1.18004
1.17998
1.17992
1.17986
1.1798
1.17974
1.17968
1.17962
1.17956
1.1795
1.17944
1.17938
1.17932
1.17926
1.1792
1.17915
1.17909
1.17904
1.17898
1.17893
1.17888
1.17883
1.17878
1.17874
1.17869
1.17865
1.17861
1.17857
1.17853
1.17849
1.17846
1.17843
1.17839
1.17837
1.17834
1.17831
1.17829
1.17827
1.17825
1.17823
1.17822
1.1782
1.17819
1.17818
1.17818
1.17817
1.17816
1.17816
1.17816
1.17816
1.17816
1.17817
1.17817
1.17818
1.17818
1.17819
1.1782
1.17821
1.17823
1.17824
1.17825
1.17827
1.17829
1.17831
1.17832
1.17835
1.17837
1.17839
1.17841
1.17844
1.17847
1.17849
1.17852
1.17856
1.17859
1.17862
1.17866
1.1787
1.17874
1.17879
1.17883
1.17888
1.17894
1.17899
1.17905
1.17911
1.17918
1.17925
1.17933
1.17941
1.1795
1.17959
1.17969
1.17979
1.1799
1.18002
1.18014
1.18027
1.1804
1.18055
1.1807
1.18086
1.18103
1.18121
1.18139
1.18158
1.18179
1.182
1.18222
1.18244
1.18268
1.18293
1.18318
1.18344
1.18371
1.18399
1.18428
1.18457
1.18487
1.18517
1.18548
1.18579
1.18611
1.18643
1.18675
1.18708
1.1874
1.18773
1.18805
1.18838
1.1887
1.18901
1.18932
1.18963
1.18993
1.19022
1.19051
1.19078
1.19105
1.19131
1.19156
1.1918
1.19204
1.19226
1.19247
1.19267
1.19286
1.19304
1.19322
1.19338
1.19354
1.19368
1.19382
1.19395
1.19407
1.19419
1.1943
1.1944
1.19449
1.19458
1.19466
1.19474
1.19481
1.19488
1.19494
1.19499
1.19504
1.19509
1.19512
1.19516
1.19519
1.19521
1.19523
1.19524
1.19525
1.19525
1.19525
1.19524
1.19523
1.19521
1.19519
1.19517
1.19515
1.19512
1.19509
1.19506
1.19502
1.19499
1.19496
1.19493
1.1949
1.19487
1.19485
1.19483
1.19482
1.19482
1.19482
1.19483
1.19485
1.19488
1.19492
1.19497
1.19504
1.19513
1.19522
1.19534
1.19547
1.19562
1.19579
1.19598
1.1962
1.19643
1.19669
1.19697
1.19728
1.19762
1.19798
1.19837
1.19879
1.19924
1.19972
1.20024
1.20079
1.20137
1.20199
1.20264
1.20334
1.20407
1.20485
1.20568
1.20655
1.20748
1.20846
1.2095
1.21061
1.21179
1.21305
1.21441
1.21587
1.21745
1.21918
1.22109
1.22321
1.2256
1.22832
1.23149
1.23528
1.23995
1.24584
1.25349
1.26467
1.28421
1.31507
1.14467
1.14384
1.1506
1.1562
1.15977
1.16233
1.16417
1.16548
1.16643
1.16715
1.16771
1.16815
1.16851
1.1688
1.16904
1.16924
1.16941
1.16955
1.16967
1.16977
1.16986
1.16994
1.17
1.17006
1.17011
1.17015
1.17018
1.17021
1.17024
1.17026
1.17028
1.17029
1.1703
1.17031
1.17032
1.17032
1.17032
1.17032
1.17032
1.17031
1.17031
1.1703
1.17029
1.17029
1.17028
1.17027
1.17027
1.17026
1.17026
1.17025
1.17025
1.17025
1.17025
1.17026
1.17027
1.17028
1.1703
1.17032
1.17034
1.17038
1.17041
1.17045
1.1705
1.17056
1.17062
1.17068
1.17076
1.17084
1.17093
1.17103
1.17114
1.17125
1.17137
1.1715
1.17164
1.17179
1.17194
1.17211
1.17228
1.17246
1.17264
1.17283
1.17303
1.17324
1.17345
1.17367
1.17389
1.17412
1.17435
1.17459
1.17483
1.17507
1.17532
1.17556
1.17581
1.17606
1.1763
1.17655
1.17679
1.17703
1.17727
1.17751
1.17773
1.17796
1.17818
1.17839
1.1786
1.1788
1.17899
1.17917
1.17935
1.17951
1.17967
1.17982
1.17995
1.18008
1.18019
1.1803
1.18039
1.18047
1.18054
1.18061
1.18066
1.1807
1.18074
1.18076
1.18078
1.18079
1.18079
1.18078
1.18077
1.18075
1.18073
1.1807
1.18067
1.18064
1.1806
1.18055
1.18051
1.18046
1.18041
1.18036
1.1803
1.18025
1.18019
1.18014
1.18008
1.18002
1.17996
1.1799
1.17984
1.17978
1.17972
1.17966
1.1796
1.17954
1.17948
1.17942
1.17936
1.1793
1.17925
1.17919
1.17913
1.17908
1.17902
1.17897
1.17892
1.17887
1.17882
1.17877
1.17873
1.17868
1.17864
1.1786
1.17856
1.17852
1.17849
1.17845
1.17842
1.17839
1.17836
1.17834
1.17831
1.17829
1.17827
1.17825
1.17823
1.17822
1.1782
1.17819
1.17818
1.17817
1.17817
1.17816
1.17816
1.17816
1.17816
1.17816
1.17816
1.17817
1.17818
1.17818
1.17819
1.1782
1.17821
1.17823
1.17824
1.17825
1.17827
1.17829
1.1783
1.17832
1.17834
1.17836
1.17839
1.17841
1.17844
1.17846
1.17849
1.17852
1.17855
1.17859
1.17862
1.17866
1.1787
1.17874
1.17878
1.17883
1.17888
1.17893
1.17899
1.17905
1.17911
1.17918
1.17925
1.17933
1.17941
1.1795
1.17959
1.17969
1.17979
1.1799
1.18002
1.18014
1.18027
1.18041
1.18056
1.18071
1.18087
1.18104
1.18122
1.1814
1.1816
1.1818
1.18201
1.18223
1.18246
1.1827
1.18295
1.1832
1.18346
1.18373
1.18401
1.1843
1.18459
1.18489
1.18519
1.1855
1.18582
1.18614
1.18646
1.18678
1.18711
1.18743
1.18776
1.18808
1.1884
1.18872
1.18903
1.18935
1.18965
1.18995
1.19024
1.19052
1.1908
1.19107
1.19132
1.19157
1.19181
1.19204
1.19226
1.19247
1.19267
1.19286
1.19304
1.19321
1.19338
1.19353
1.19368
1.19381
1.19394
1.19406
1.19418
1.19429
1.19439
1.19448
1.19457
1.19465
1.19473
1.1948
1.19486
1.19492
1.19498
1.19503
1.19507
1.19511
1.19514
1.19517
1.19519
1.19521
1.19522
1.19523
1.19523
1.19523
1.19522
1.19521
1.19519
1.19518
1.19515
1.19513
1.1951
1.19507
1.19504
1.195
1.19497
1.19494
1.19491
1.19488
1.19485
1.19483
1.19481
1.1948
1.1948
1.1948
1.19481
1.19484
1.19487
1.19491
1.19497
1.19504
1.19512
1.19522
1.19534
1.19547
1.19562
1.1958
1.19599
1.19621
1.19644
1.19671
1.19699
1.1973
1.19764
1.19801
1.1984
1.19883
1.19928
1.19976
1.20028
1.20083
1.20142
1.20204
1.2027
1.2034
1.20414
1.20493
1.20576
1.20663
1.20756
1.20855
1.2096
1.21071
1.2119
1.21317
1.21453
1.216
1.2176
1.21934
1.22126
1.2234
1.2258
1.22853
1.23171
1.23545
1.23996
1.24561
1.25292
1.26209
1.27204
1.28146
1.15284
1.15201
1.15422
1.15687
1.15968
1.16193
1.16359
1.16485
1.16583
1.16661
1.16722
1.16771
1.16811
1.16844
1.16871
1.16894
1.16913
1.1693
1.16944
1.16956
1.16966
1.16975
1.16983
1.1699
1.16996
1.17001
1.17005
1.17009
1.17012
1.17015
1.17017
1.17019
1.17021
1.17022
1.17023
1.17024
1.17024
1.17024
1.17024
1.17024
1.17024
1.17024
1.17023
1.17023
1.17022
1.17022
1.17021
1.17021
1.1702
1.1702
1.1702
1.1702
1.17021
1.17022
1.17023
1.17024
1.17026
1.17028
1.17031
1.17034
1.17038
1.17042
1.17047
1.17053
1.17059
1.17066
1.17074
1.17082
1.17091
1.17101
1.17112
1.17124
1.17136
1.17149
1.17163
1.17178
1.17194
1.1721
1.17228
1.17246
1.17264
1.17284
1.17304
1.17325
1.17346
1.17368
1.1739
1.17413
1.17437
1.17461
1.17485
1.17509
1.17534
1.17558
1.17583
1.17608
1.17632
1.17657
1.17681
1.17705
1.17729
1.17752
1.17775
1.17798
1.17819
1.17841
1.17861
1.17881
1.179
1.17918
1.17936
1.17952
1.17967
1.17982
1.17995
1.18008
1.18019
1.18029
1.18038
1.18046
1.18053
1.18059
1.18064
1.18068
1.18072
1.18074
1.18075
1.18076
1.18076
1.18075
1.18074
1.18072
1.1807
1.18067
1.18064
1.1806
1.18056
1.18052
1.18048
1.18043
1.18038
1.18033
1.18027
1.18022
1.18016
1.18011
1.18005
1.17999
1.17993
1.17987
1.17981
1.17976
1.1797
1.17964
1.17958
1.17952
1.17946
1.1794
1.17934
1.17929
1.17923
1.17917
1.17912
1.17906
1.17901
1.17896
1.17891
1.17886
1.17881
1.17876
1.17872
1.17868
1.17863
1.17859
1.17855
1.17852
1.17848
1.17845
1.17842
1.17839
1.17836
1.17833
1.17831
1.17829
1.17827
1.17825
1.17823
1.17822
1.1782
1.17819
1.17818
1.17817
1.17817
1.17816
1.17816
1.17816
1.17816
1.17816
1.17816
1.17817
1.17817
1.17818
1.17819
1.1782
1.17821
1.17822
1.17824
1.17825
1.17827
1.17828
1.1783
1.17832
1.17834
1.17836
1.17838
1.17841
1.17843
1.17846
1.17849
1.17852
1.17855
1.17858
1.17862
1.17865
1.17869
1.17873
1.17878
1.17882
1.17887
1.17893
1.17898
1.17904
1.17911
1.17918
1.17925
1.17933
1.17941
1.17949
1.17959
1.17968
1.17979
1.1799
1.18002
1.18014
1.18027
1.18041
1.18055
1.18071
1.18087
1.18104
1.18122
1.1814
1.1816
1.1818
1.18202
1.18224
1.18247
1.18271
1.18295
1.18321
1.18347
1.18375
1.18403
1.18431
1.18461
1.18491
1.18521
1.18552
1.18584
1.18616
1.18648
1.1868
1.18713
1.18746
1.18778
1.18811
1.18843
1.18875
1.18906
1.18937
1.18968
1.18997
1.19026
1.19055
1.19082
1.19109
1.19134
1.19159
1.19183
1.19206
1.19228
1.19248
1.19268
1.19287
1.19305
1.19322
1.19338
1.19353
1.19368
1.19381
1.19394
1.19406
1.19417
1.19428
1.19438
1.19447
1.19456
1.19464
1.19472
1.19479
1.19485
1.19491
1.19497
1.19502
1.19506
1.1951
1.19513
1.19516
1.19518
1.1952
1.19521
1.19522
1.19522
1.19521
1.19521
1.19519
1.19518
1.19516
1.19513
1.19511
1.19508
1.19505
1.19502
1.19498
1.19495
1.19492
1.19489
1.19486
1.19483
1.19481
1.19479
1.19478
1.19478
1.19478
1.19479
1.19481
1.19485
1.19489
1.19495
1.19502
1.1951
1.1952
1.19532
1.19546
1.19561
1.19579
1.19598
1.1962
1.19644
1.1967
1.19699
1.1973
1.19764
1.19801
1.19841
1.19883
1.19929
1.19978
1.2003
1.20085
1.20144
1.20206
1.20272
1.20343
1.20417
1.20495
1.20578
1.20666
1.20759
1.20858
1.20963
1.21074
1.21192
1.21319
1.21455
1.21601
1.2176
1.21933
1.22123
1.22333
1.22567
1.22833
1.23137
1.23489
1.23901
1.24384
1.24945
1.25566
1.26071
1.26085
1.15708
1.15661
1.15724
1.1587
1.16048
1.16207
1.16344
1.16458
1.1655
1.16625
1.16686
1.16737
1.16779
1.16814
1.16843
1.16868
1.16889
1.16907
1.16923
1.16937
1.16948
1.16959
1.16968
1.16975
1.16982
1.16988
1.16993
1.16998
1.17001
1.17005
1.17007
1.1701
1.17012
1.17013
1.17015
1.17016
1.17016
1.17017
1.17017
1.17017
1.17017
1.17017
1.17017
1.17017
1.17016
1.17016
1.17015
1.17015
1.17015
1.17015
1.17015
1.17016
1.17016
1.17017
1.17018
1.1702
1.17021
1.17024
1.17027
1.1703
1.17034
1.17038
1.17043
1.17049
1.17056
1.17063
1.17071
1.17079
1.17089
1.17099
1.1711
1.17121
1.17134
1.17147
1.17162
1.17177
1.17192
1.17209
1.17227
1.17245
1.17264
1.17283
1.17303
1.17324
1.17346
1.17368
1.17391
1.17414
1.17438
1.17461
1.17486
1.1751
1.17535
1.1756
1.17584
1.17609
1.17634
1.17659
1.17683
1.17707
1.17731
1.17754
1.17777
1.17799
1.17821
1.17842
1.17863
1.17883
1.17902
1.1792
1.17937
1.17953
1.17969
1.17983
1.17996
1.18008
1.18019
1.18029
1.18038
1.18046
1.18053
1.18059
1.18063
1.18067
1.1807
1.18072
1.18073
1.18074
1.18074
1.18073
1.18071
1.1807
1.18067
1.18064
1.18061
1.18057
1.18053
1.18049
1.18044
1.1804
1.18035
1.1803
1.18024
1.18019
1.18013
1.18008
1.18002
1.17996
1.1799
1.17985
1.17979
1.17973
1.17967
1.17961
1.17955
1.17949
1.17944
1.17938
1.17932
1.17927
1.17921
1.17916
1.1791
1.17905
1.179
1.17895
1.1789
1.17885
1.1788
1.17875
1.17871
1.17867
1.17862
1.17859
1.17855
1.17851
1.17848
1.17844
1.17841
1.17838
1.17835
1.17833
1.17831
1.17828
1.17826
1.17824
1.17823
1.17821
1.1782
1.17819
1.17818
1.17817
1.17817
1.17816
1.17816
1.17816
1.17816
1.17816
1.17816
1.17817
1.17817
1.17818
1.17819
1.1782
1.17821
1.17822
1.17823
1.17825
1.17826
1.17828
1.1783
1.17832
1.17834
1.17836
1.17838
1.1784
1.17843
1.17845
1.17848
1.17851
1.17854
1.17857
1.17861
1.17864
1.17868
1.17872
1.17877
1.17881
1.17886
1.17892
1.17897
1.17903
1.1791
1.17916
1.17924
1.17931
1.17939
1.17948
1.17957
1.17967
1.17978
1.17989
1.18
1.18013
1.18026
1.1804
1.18054
1.1807
1.18086
1.18103
1.18121
1.1814
1.18159
1.1818
1.18201
1.18223
1.18246
1.1827
1.18295
1.18321
1.18348
1.18375
1.18403
1.18432
1.18461
1.18492
1.18522
1.18554
1.18585
1.18617
1.1865
1.18682
1.18715
1.18748
1.18781
1.18813
1.18845
1.18877
1.18909
1.1894
1.1897
1.19
1.19029
1.19058
1.19085
1.19111
1.19137
1.19162
1.19185
1.19208
1.19229
1.1925
1.1927
1.19288
1.19306
1.19323
1.19339
1.19354
1.19368
1.19382
1.19394
1.19406
1.19417
1.19428
1.19438
1.19447
1.19456
1.19464
1.19471
1.19478
1.19485
1.19491
1.19496
1.19501
1.19505
1.19509
1.19512
1.19515
1.19517
1.19519
1.1952
1.19521
1.19521
1.1952
1.1952
1.19518
1.19517
1.19514
1.19512
1.19509
1.19506
1.19503
1.195
1.19496
1.19493
1.1949
1.19486
1.19483
1.19481
1.19478
1.19477
1.19475
1.19475
1.19475
1.19476
1.19479
1.19482
1.19486
1.19492
1.19499
1.19507
1.19517
1.19529
1.19543
1.19558
1.19576
1.19595
1.19617
1.19641
1.19667
1.19696
1.19728
1.19762
1.19799
1.19838
1.19881
1.19927
1.19976
1.20028
1.20083
1.20142
1.20204
1.20271
1.20341
1.20415
1.20493
1.20576
1.20664
1.20757
1.20855
1.20959
1.21069
1.21187
1.21312
1.21446
1.2159
1.21746
1.21915
1.22099
1.22301
1.22525
1.22775
1.23055
1.2337
1.23725
1.24114
1.24514
1.24873
1.25119
1.25054
1.15996
1.15947
1.15963
1.16042
1.16147
1.16258
1.16365
1.16458
1.16539
1.16607
1.16665
1.16714
1.16755
1.16791
1.16821
1.16847
1.16869
1.16888
1.16905
1.16919
1.16932
1.16943
1.16953
1.16962
1.16969
1.16976
1.16981
1.16986
1.16991
1.16994
1.16998
1.17
1.17003
1.17005
1.17006
1.17008
1.17009
1.17009
1.1701
1.1701
1.1701
1.1701
1.1701
1.1701
1.1701
1.1701
1.1701
1.1701
1.17009
1.1701
1.1701
1.1701
1.17011
1.17012
1.17013
1.17015
1.17017
1.17019
1.17022
1.17025
1.17029
1.17034
1.17039
1.17045
1.17052
1.17059
1.17067
1.17076
1.17085
1.17095
1.17107
1.17119
1.17131
1.17145
1.17159
1.17174
1.1719
1.17207
1.17225
1.17243
1.17262
1.17282
1.17303
1.17324
1.17346
1.17368
1.17391
1.17414
1.17438
1.17462
1.17486
1.17511
1.17536
1.17561
1.17586
1.17611
1.17636
1.1766
1.17685
1.17709
1.17733
1.17756
1.17779
1.17802
1.17823
1.17845
1.17865
1.17885
1.17904
1.17922
1.17939
1.17955
1.1797
1.17984
1.17997
1.18009
1.1802
1.1803
1.18039
1.18046
1.18053
1.18058
1.18063
1.18066
1.18069
1.18071
1.18072
1.18072
1.18072
1.18071
1.18069
1.18067
1.18064
1.18061
1.18058
1.18054
1.1805
1.18046
1.18041
1.18036
1.18031
1.18026
1.18021
1.18016
1.1801
1.18005
1.17999
1.17993
1.17987
1.17982
1.17976
1.1797
1.17964
1.17959
1.17953
1.17947
1.17941
1.17936
1.1793
1.17925
1.17919
1.17914
1.17908
1.17903
1.17898
1.17893
1.17888
1.17883
1.17879
1.17874
1.1787
1.17866
1.17862
1.17858
1.17854
1.1785
1.17847
1.17844
1.17841
1.17838
1.17835
1.17833
1.1783
1.17828
1.17826
1.17824
1.17823
1.17821
1.1782
1.17819
1.17818
1.17817
1.17817
1.17816
1.17816
1.17816
1.17816
1.17816
1.17816
1.17817
1.17817
1.17818
1.17819
1.1782
1.17821
1.17822
1.17823
1.17824
1.17826
1.17828
1.17829
1.17831
1.17833
1.17835
1.17837
1.17839
1.17842
1.17844
1.17847
1.1785
1.17853
1.17856
1.1786
1.17863
1.17867
1.17871
1.17876
1.1788
1.17885
1.1789
1.17896
1.17902
1.17908
1.17915
1.17922
1.1793
1.17938
1.17946
1.17956
1.17965
1.17976
1.17987
1.17999
1.18011
1.18024
1.18038
1.18053
1.18068
1.18084
1.18101
1.18119
1.18138
1.18158
1.18178
1.182
1.18222
1.18245
1.18269
1.18294
1.1832
1.18347
1.18374
1.18403
1.18432
1.18462
1.18492
1.18523
1.18554
1.18586
1.18619
1.18651
1.18684
1.18717
1.1875
1.18783
1.18816
1.18848
1.1888
1.18912
1.18943
1.18974
1.19003
1.19033
1.19061
1.19088
1.19115
1.1914
1.19165
1.19188
1.19211
1.19232
1.19253
1.19272
1.19291
1.19308
1.19325
1.1934
1.19355
1.19369
1.19383
1.19395
1.19407
1.19418
1.19428
1.19438
1.19447
1.19456
1.19464
1.19471
1.19478
1.19485
1.1949
1.19496
1.19501
1.19505
1.19509
1.19512
1.19515
1.19517
1.19518
1.19519
1.1952
1.1952
1.1952
1.19519
1.19517
1.19516
1.19513
1.19511
1.19508
1.19505
1.19501
1.19498
1.19494
1.19491
1.19487
1.19484
1.19481
1.19478
1.19476
1.19474
1.19472
1.19472
1.19472
1.19473
1.19475
1.19478
1.19482
1.19488
1.19495
1.19503
1.19513
1.19525
1.19538
1.19554
1.19571
1.19591
1.19613
1.19637
1.19663
1.19692
1.19723
1.19757
1.19794
1.19834
1.19876
1.19922
1.19971
1.20023
1.20078
1.20137
1.20199
1.20265
1.20335
1.20409
1.20487
1.20569
1.20656
1.20748
1.20845
1.20948
1.21057
1.21173
1.21296
1.21427
1.21567
1.21718
1.21881
1.22057
1.22248
1.22458
1.22687
1.22937
1.2321
1.235
1.23797
1.24078
1.24294
1.24405
1.24379
1.16196
1.16145
1.16145
1.16185
1.16248
1.16324
1.16402
1.16476
1.16543
1.16603
1.16655
1.16701
1.1674
1.16774
1.16804
1.1683
1.16853
1.16872
1.1689
1.16905
1.16918
1.1693
1.1694
1.16949
1.16957
1.16964
1.16971
1.16976
1.16981
1.16985
1.16989
1.16992
1.16994
1.16997
1.16999
1.17
1.17001
1.17002
1.17003
1.17004
1.17004
1.17004
1.17004
1.17004
1.17004
1.17004
1.17004
1.17004
1.17004
1.17004
1.17004
1.17005
1.17005
1.17006
1.17008
1.17009
1.17011
1.17014
1.17017
1.1702
1.17024
1.17029
1.17034
1.1704
1.17047
1.17054
1.17062
1.17071
1.17081
1.17091
1.17103
1.17115
1.17128
1.17141
1.17156
1.17171
1.17188
1.17205
1.17222
1.17241
1.1726
1.1728
1.17301
1.17322
1.17344
1.17367
1.1739
1.17414
1.17438
1.17462
1.17487
1.17512
1.17537
1.17562
1.17587
1.17612
1.17637
1.17662
1.17687
1.17711
1.17735
1.17758
1.17781
1.17804
1.17826
1.17847
1.17867
1.17887
1.17906
1.17924
1.17941
1.17957
1.17972
1.17987
1.17999
1.18011
1.18022
1.18032
1.1804
1.18047
1.18053
1.18059
1.18063
1.18066
1.18068
1.1807
1.18071
1.18071
1.1807
1.18069
1.18067
1.18065
1.18062
1.18059
1.18055
1.18051
1.18047
1.18042
1.18038
1.18033
1.18028
1.18023
1.18018
1.18012
1.18007
1.18001
1.17996
1.1799
1.17984
1.17979
1.17973
1.17967
1.17961
1.17956
1.1795
1.17944
1.17939
1.17933
1.17928
1.17922
1.17917
1.17912
1.17906
1.17901
1.17896
1.17891
1.17887
1.17882
1.17877
1.17873
1.17869
1.17865
1.17861
1.17857
1.17853
1.1785
1.17846
1.17843
1.1784
1.17837
1.17835
1.17832
1.1783
1.17828
1.17826
1.17824
1.17823
1.17821
1.1782
1.17819
1.17818
1.17817
1.17817
1.17816
1.17816
1.17816
1.17816
1.17816
1.17816
1.17817
1.17817
1.17818
1.17818
1.17819
1.1782
1.17821
1.17823
1.17824
1.17825
1.17827
1.17829
1.1783
1.17832
1.17834
1.17836
1.17839
1.17841
1.17843
1.17846
1.17849
1.17852
1.17855
1.17858
1.17862
1.17866
1.1787
1.17874
1.17878
1.17883
1.17888
1.17894
1.179
1.17906
1.17913
1.1792
1.17927
1.17935
1.17944
1.17953
1.17963
1.17973
1.17984
1.17996
1.18008
1.18021
1.18035
1.1805
1.18065
1.18081
1.18099
1.18116
1.18135
1.18155
1.18176
1.18197
1.1822
1.18243
1.18267
1.18292
1.18318
1.18345
1.18373
1.18401
1.18431
1.18461
1.18491
1.18523
1.18554
1.18587
1.18619
1.18652
1.18685
1.18718
1.18752
1.18785
1.18818
1.18851
1.18883
1.18915
1.18946
1.18977
1.19007
1.19036
1.19064
1.19092
1.19118
1.19144
1.19168
1.19192
1.19214
1.19235
1.19256
1.19275
1.19293
1.1931
1.19327
1.19342
1.19357
1.19371
1.19384
1.19396
1.19408
1.19419
1.19429
1.19439
1.19448
1.19456
1.19464
1.19471
1.19478
1.19485
1.1949
1.19496
1.195
1.19505
1.19508
1.19512
1.19514
1.19517
1.19518
1.19519
1.1952
1.1952
1.19519
1.19518
1.19517
1.19515
1.19513
1.1951
1.19507
1.19504
1.195
1.19496
1.19493
1.19489
1.19485
1.19482
1.19478
1.19475
1.19473
1.1947
1.19469
1.19468
1.19468
1.19469
1.19471
1.19474
1.19478
1.19483
1.1949
1.19498
1.19508
1.19519
1.19533
1.19548
1.19565
1.19585
1.19606
1.1963
1.19656
1.19685
1.19716
1.1975
1.19787
1.19826
1.19869
1.19914
1.19963
1.20015
1.2007
1.20128
1.2019
1.20256
1.20325
1.20398
1.20476
1.20557
1.20643
1.20734
1.2083
1.20931
1.21038
1.21151
1.21271
1.21398
1.21534
1.21678
1.21833
1.21999
1.22177
1.22369
1.22575
1.22794
1.23024
1.23257
1.2348
1.23673
1.23811
1.23866
1.23844
1.16335
1.16291
1.16282
1.163
1.16339
1.16391
1.16447
1.16505
1.16559
1.1661
1.16655
1.16696
1.16732
1.16765
1.16793
1.16818
1.1684
1.1686
1.16877
1.16892
1.16906
1.16918
1.16929
1.16938
1.16946
1.16954
1.16961
1.16966
1.16971
1.16976
1.1698
1.16983
1.16986
1.16989
1.16991
1.16993
1.16994
1.16995
1.16996
1.16997
1.16997
1.16998
1.16998
1.16998
1.16998
1.16998
1.16998
1.16998
1.16998
1.16998
1.16998
1.16999
1.17
1.17001
1.17002
1.17004
1.17006
1.17008
1.17011
1.17015
1.17019
1.17024
1.17029
1.17035
1.17042
1.17049
1.17058
1.17067
1.17076
1.17087
1.17098
1.17111
1.17124
1.17138
1.17152
1.17168
1.17184
1.17202
1.17219
1.17238
1.17258
1.17278
1.17299
1.17321
1.17343
1.17366
1.17389
1.17413
1.17437
1.17462
1.17487
1.17512
1.17537
1.17563
1.17588
1.17613
1.17639
1.17664
1.17688
1.17713
1.17737
1.17761
1.17784
1.17806
1.17828
1.1785
1.1787
1.1789
1.17909
1.17927
1.17944
1.1796
1.17975
1.17989
1.18002
1.18014
1.18024
1.18033
1.18041
1.18049
1.18054
1.18059
1.18063
1.18066
1.18068
1.18069
1.1807
1.18069
1.18068
1.18067
1.18065
1.18062
1.18059
1.18056
1.18052
1.18048
1.18044
1.18039
1.18034
1.1803
1.18025
1.18019
1.18014
1.18009
1.18003
1.17998
1.17992
1.17987
1.17981
1.17975
1.1797
1.17964
1.17958
1.17953
1.17947
1.17942
1.17936
1.17931
1.17925
1.1792
1.17915
1.1791
1.17905
1.179
1.17895
1.1789
1.17885
1.17881
1.17876
1.17872
1.17868
1.17864
1.1786
1.17856
1.17852
1.17849
1.17846
1.17843
1.1784
1.17837
1.17834
1.17832
1.1783
1.17828
1.17826
1.17824
1.17822
1.17821
1.1782
1.17819
1.17818
1.17817
1.17817
1.17816
1.17816
1.17816
1.17816
1.17816
1.17816
1.17816
1.17817
1.17818
1.17818
1.17819
1.1782
1.17821
1.17822
1.17824
1.17825
1.17826
1.17828
1.1783
1.17832
1.17833
1.17835
1.17838
1.1784
1.17842
1.17845
1.17848
1.1785
1.17854
1.17857
1.1786
1.17864
1.17868
1.17872
1.17876
1.17881
1.17886
1.17892
1.17897
1.17904
1.1791
1.17917
1.17925
1.17933
1.17941
1.1795
1.1796
1.1797
1.17981
1.17993
1.18005
1.18018
1.18032
1.18046
1.18062
1.18078
1.18095
1.18113
1.18132
1.18152
1.18172
1.18194
1.18216
1.1824
1.18264
1.1829
1.18316
1.18343
1.18371
1.18399
1.18429
1.18459
1.1849
1.18522
1.18554
1.18586
1.18619
1.18652
1.18686
1.18719
1.18753
1.18787
1.1882
1.18853
1.18886
1.18918
1.1895
1.1898
1.19011
1.1904
1.19068
1.19096
1.19122
1.19148
1.19172
1.19195
1.19218
1.19239
1.19259
1.19278
1.19296
1.19313
1.19329
1.19345
1.19359
1.19373
1.19386
1.19398
1.19409
1.1942
1.1943
1.19439
1.19448
1.19457
1.19464
1.19472
1.19479
1.19485
1.19491
1.19496
1.19501
1.19505
1.19509
1.19512
1.19515
1.19517
1.19518
1.19519
1.1952
1.1952
1.19519
1.19518
1.19516
1.19514
1.19512
1.19509
1.19506
1.19502
1.19499
1.19495
1.19491
1.19487
1.19483
1.19479
1.19475
1.19472
1.19469
1.19467
1.19465
1.19464
1.19464
1.19464
1.19466
1.19468
1.19472
1.19477
1.19484
1.19492
1.19502
1.19513
1.19526
1.19541
1.19558
1.19577
1.19598
1.19622
1.19648
1.19676
1.19707
1.19741
1.19778
1.19817
1.19859
1.19904
1.19952
1.20004
1.20058
1.20116
1.20178
1.20243
1.20312
1.20384
1.2046
1.20541
1.20626
1.20715
1.20809
1.20908
1.21012
1.21122
1.21238
1.2136
1.2149
1.21627
1.21773
1.21928
1.22092
1.22265
1.22448
1.22636
1.22827
1.23012
1.23179
1.23315
1.23404
1.23435
1.23404
1.16438
1.16401
1.16388
1.16395
1.16419
1.16453
1.16494
1.16538
1.16581
1.16623
1.16662
1.16698
1.16731
1.1676
1.16787
1.1681
1.16832
1.16851
1.16868
1.16883
1.16896
1.16908
1.16919
1.16929
1.16937
1.16945
1.16952
1.16958
1.16963
1.16968
1.16972
1.16976
1.16979
1.16982
1.16984
1.16986
1.16987
1.16989
1.1699
1.16991
1.16991
1.16992
1.16992
1.16992
1.16992
1.16992
1.16992
1.16992
1.16992
1.16993
1.16993
1.16994
1.16994
1.16995
1.16997
1.16998
1.17
1.17003
1.17006
1.1701
1.17014
1.17018
1.17024
1.1703
1.17037
1.17044
1.17052
1.17062
1.17071
1.17082
1.17094
1.17106
1.17119
1.17133
1.17148
1.17164
1.1718
1.17198
1.17216
1.17235
1.17255
1.17275
1.17296
1.17318
1.17341
1.17364
1.17387
1.17412
1.17436
1.17461
1.17486
1.17512
1.17537
1.17563
1.17589
1.17614
1.1764
1.17665
1.1769
1.17715
1.17739
1.17763
1.17786
1.17809
1.17831
1.17852
1.17873
1.17893
1.17912
1.1793
1.17947
1.17963
1.17978
1.17992
1.18005
1.18016
1.18026
1.18036
1.18043
1.1805
1.18056
1.1806
1.18064
1.18066
1.18068
1.18069
1.18069
1.18068
1.18067
1.18065
1.18063
1.1806
1.18057
1.18053
1.18049
1.18045
1.18041
1.18036
1.18031
1.18026
1.18021
1.18016
1.18011
1.18005
1.18
1.17994
1.17989
1.17983
1.17978
1.17972
1.17967
1.17961
1.17955
1.1795
1.17944
1.17939
1.17934
1.17928
1.17923
1.17918
1.17913
1.17908
1.17903
1.17898
1.17893
1.17888
1.17884
1.17879
1.17875
1.17871
1.17867
1.17863
1.17859
1.17855
1.17852
1.17848
1.17845
1.17842
1.17839
1.17837
1.17834
1.17832
1.17829
1.17827
1.17826
1.17824
1.17822
1.17821
1.1782
1.17819
1.17818
1.17817
1.17816
1.17816
1.17816
1.17816
1.17816
1.17816
1.17816
1.17816
1.17817
1.17817
1.17818
1.17819
1.1782
1.17821
1.17822
1.17823
1.17824
1.17826
1.17827
1.17829
1.17831
1.17832
1.17834
1.17837
1.17839
1.17841
1.17843
1.17846
1.17849
1.17852
1.17855
1.17858
1.17862
1.17866
1.1787
1.17874
1.17879
1.17884
1.17889
1.17895
1.17901
1.17907
1.17914
1.17921
1.17929
1.17938
1.17947
1.17956
1.17966
1.17977
1.17989
1.18001
1.18014
1.18028
1.18042
1.18057
1.18074
1.18091
1.18109
1.18128
1.18147
1.18168
1.1819
1.18212
1.18236
1.1826
1.18286
1.18312
1.18339
1.18367
1.18396
1.18426
1.18457
1.18488
1.1852
1.18552
1.18585
1.18618
1.18652
1.18686
1.1872
1.18754
1.18788
1.18822
1.18855
1.18888
1.18921
1.18953
1.18984
1.19014
1.19044
1.19073
1.191
1.19127
1.19152
1.19176
1.192
1.19222
1.19243
1.19263
1.19282
1.193
1.19316
1.19332
1.19347
1.19362
1.19375
1.19388
1.19399
1.19411
1.19421
1.19431
1.1944
1.19449
1.19457
1.19465
1.19472
1.19479
1.19485
1.19491
1.19496
1.19501
1.19505
1.19509
1.19512
1.19515
1.19517
1.19519
1.1952
1.1952
1.1952
1.19519
1.19518
1.19516
1.19514
1.19512
1.19509
1.19505
1.19501
1.19498
1.19493
1.19489
1.19485
1.19481
1.19477
1.19473
1.19469
1.19466
1.19463
1.19461
1.1946
1.19459
1.19459
1.19461
1.19463
1.19466
1.19471
1.19477
1.19485
1.19494
1.19505
1.19518
1.19533
1.19549
1.19568
1.19589
1.19612
1.19638
1.19666
1.19697
1.1973
1.19766
1.19805
1.19847
1.19891
1.19939
1.1999
1.20044
1.20101
1.20162
1.20226
1.20294
1.20366
1.20441
1.2052
1.20603
1.2069
1.20782
1.20878
1.20979
1.21086
1.21197
1.21314
1.21438
1.21567
1.21703
1.21846
1.21996
1.22151
1.2231
1.22471
1.22628
1.22775
1.22902
1.22999
1.23058
1.23074
1.23041
1.16517
1.16486
1.16472
1.16472
1.16486
1.1651
1.16539
1.16572
1.16607
1.16641
1.16674
1.16705
1.16733
1.1676
1.16784
1.16806
1.16826
1.16844
1.16861
1.16875
1.16888
1.169
1.16911
1.16921
1.16929
1.16937
1.16944
1.1695
1.16956
1.16961
1.16965
1.16969
1.16972
1.16975
1.16977
1.16979
1.16981
1.16982
1.16984
1.16985
1.16985
1.16986
1.16986
1.16986
1.16986
1.16986
1.16986
1.16987
1.16987
1.16987
1.16987
1.16988
1.16989
1.1699
1.16991
1.16993
1.16995
1.16997
1.17
1.17004
1.17008
1.17013
1.17018
1.17024
1.17031
1.17039
1.17047
1.17056
1.17066
1.17077
1.17089
1.17101
1.17114
1.17129
1.17144
1.1716
1.17176
1.17194
1.17212
1.17231
1.17251
1.17272
1.17293
1.17315
1.17338
1.17362
1.17385
1.1741
1.17435
1.1746
1.17486
1.17511
1.17537
1.17563
1.17589
1.17615
1.17641
1.17666
1.17692
1.17716
1.17741
1.17765
1.17788
1.17811
1.17833
1.17855
1.17876
1.17896
1.17915
1.17933
1.1795
1.17966
1.17981
1.17995
1.18008
1.18019
1.18029
1.18038
1.18046
1.18052
1.18057
1.18062
1.18065
1.18067
1.18068
1.18069
1.18068
1.18067
1.18066
1.18064
1.18061
1.18058
1.18054
1.1805
1.18046
1.18042
1.18037
1.18033
1.18028
1.18023
1.18018
1.18012
1.18007
1.18002
1.17996
1.17991
1.17985
1.1798
1.17974
1.17969
1.17963
1.17958
1.17952
1.17947
1.17942
1.17936
1.17931
1.17926
1.17921
1.17916
1.1791
1.17906
1.17901
1.17896
1.17891
1.17887
1.17882
1.17878
1.17874
1.17869
1.17865
1.17862
1.17858
1.17854
1.17851
1.17848
1.17845
1.17842
1.17839