# vtk DataFile Version 2.0
LBE mesh
ASCII
DATASET STRUCTURED_POINTS
DIMENSIONS 400 100 1
ASPECT_RATIO 1 1 1
ORIGIN 0 0 0
POINT_DATA 40000
SCALARS rho double 1
LOOKUP_TABLE default
1.12083
1.19858
1.2211
1.22552
1.22764
1.22953
1.23091
1.23181
1.23242
1.23286
1.23321
1.23348
1.23369
1.23386
1.234
1.23411
1.2342
1.23428
1.23434
1.23439
1.23442
1.23445
1.23447
1.23448
1.23448
1.23448
1.23448
1.23446
1.23445
1.23443
1.2344
1.23437
1.23434
1.23431
1.23427
1.23423
1.23419
1.23415
1.23411
1.23406
1.23402
1.23397
1.23393
1.23388
1.23384
1.2338
1.23375
1.23371
1.23368
1.23364
1.23361
1.23358
1.23356
1.23354
1.23352
1.23351
1.2335
1.2335
1.23351
1.23352
1.23354
1.23357
1.2336
1.23364
1.23369
1.23375
1.23382
1.23389
1.23398
1.23407
1.23417
1.23428
1.2344
1.23453
1.23467
1.23482
1.23498
1.23514
1.23532
1.23551
1.2357
1.23591
1.23612
1.23634
1.23657
1.23681
1.23706
1.23732
1.23758
1.23785
1.23813
1.23841
1.2387
1.239
1.2393
1.2396
1.23991
1.24022
1.24053
1.24085
1.24116
1.24148
1.2418
1.24211
1.24242
1.24273
1.24304
1.24334
1.24364
1.24393
1.24422
1.2445
1.24478
1.24504
1.2453
1.24556
1.2458
1.24603
1.24626
1.24647
1.24668
1.24688
1.24707
1.24725
1.24742
1.24758
1.24774
1.24788
1.24802
1.24816
1.24828
1.24841
1.24852
1.24863
1.24874
1.24884
1.24893
1.24903
1.24911
1.2492
1.24928
1.24936
1.24944
1.24952
1.24959
1.24966
1.24974
1.2498
1.24987
1.24994
1.25
1.25007
1.25013
1.2502
1.25026
1.25032
1.25038
1.25044
1.2505
1.25056
1.25062
1.25068
1.25073
1.25079
1.25085
1.2509
1.25096
1.25101
1.25107
1.25112
1.25117
1.25123
1.25128
1.25133
1.25138
1.25143
1.25148
1.25153
1.25158
1.25163
1.25168
1.25172
1.25177
1.25182
1.25186
1.25191
1.25195
1.252
1.25204
1.25209
1.25213
1.25218
1.25222
1.25227
1.25231
1.25236
1.2524
1.25245
1.25249
1.25254
1.25259
1.25263
1.25268
1.25273
1.25279
1.25284
1.25289
1.25295
1.253
1.25306
1.25312
1.25318
1.25325
1.25332
1.25338
1.25346
1.25353
1.25361
1.25369
1.25377
1.25386
1.25395
1.25404
1.25414
1.25424
1.25434
1.25445
1.25457
1.25468
1.25481
1.25493
1.25506
1.2552
1.25534
1.25549
1.25564
1.2558
1.25597
1.25614
1.25631
1.25649
1.25668
1.25688
1.25708
1.25729
1.2575
1.25772
1.25795
1.25819
1.25843
1.25868
1.25894
1.2592
1.25947
1.25975
1.26003
1.26032
1.26062
1.26092
1.26123
1.26155
1.26187
1.2622
1.26253
1.26287
1.26321
1.26355
1.2639
1.26425
1.2646
1.26496
1.26532
1.26567
1.26603
1.26638
1.26673
1.26708
1.26743
1.26777
1.26811
1.26845
1.26877
1.26909
1.26941
1.26972
1.27002
1.27031
1.2706
1.27087
1.27114
1.2714
1.27166
1.2719
1.27214
1.27237
1.27259
1.27281
1.27302
1.27323
1.27343
1.27362
1.27381
1.274
1.27418
1.27435
1.27452
1.27469
1.27486
1.27502
1.27518
1.27534
1.27549
1.27565
1.27579
1.27594
1.27609
1.27623
1.27637
1.2765
1.27664
1.27677
1.2769
1.27703
1.27715
1.27727
1.27739
1.27751
1.27763
1.27774
1.27785
1.27797
1.27808
1.27819
1.2783
1.27841
1.27852
1.27863
1.27874
1.27886
1.27897
1.2791
1.27922
1.27935
1.27949
1.27963
1.27978
1.27993
1.2801
1.28027
1.28046
1.28065
1.28086
1.28108
1.28131
1.28156
1.28183
1.28211
1.2824
1.28272
1.28306
1.28342
1.28379
1.2842
1.28462
1.28507
1.28555
1.28605
1.28658
1.28714
1.28773
1.28835
1.28901
1.2897
1.29043
1.2912
1.29202
1.29287
1.29378
1.29473
1.29574
1.29681
1.29795
1.29917
1.30046
1.30185
1.30335
1.30497
1.30674
1.30868
1.31084
1.31325
1.316
1.31919
1.32295
1.32753
1.33344
1.34174
1.35347
1.36969
1.40066
1.18814
1.1976
1.20967
1.21978
1.225
1.22764
1.22927
1.23045
1.23133
1.23197
1.23246
1.23284
1.23314
1.23338
1.23357
1.23373
1.23387
1.23397
1.23406
1.23413
1.23419
1.23424
1.23427
1.2343
1.23431
1.23433
1.23433
1.23433
1.23432
1.2343
1.23429
1.23426
1.23424
1.23421
1.23418
1.23415
1.23411
1.23407
1.23403
1.23399
1.23395
1.23391
1.23387
1.23382
1.23378
1.23374
1.2337
1.23367
1.23363
1.2336
1.23357
1.23354
1.23352
1.2335
1.23349
1.23348
1.23348
1.23348
1.23349
1.2335
1.23353
1.23355
1.23359
1.23363
1.23369
1.23375
1.23381
1.23389
1.23398
1.23407
1.23417
1.23429
1.23441
1.23454
1.23468
1.23483
1.23499
1.23516
1.23534
1.23552
1.23572
1.23593
1.23614
1.23636
1.2366
1.23684
1.23708
1.23734
1.2376
1.23788
1.23815
1.23844
1.23873
1.23902
1.23932
1.23963
1.23993
1.24024
1.24056
1.24087
1.24118
1.2415
1.24181
1.24213
1.24244
1.24275
1.24305
1.24335
1.24365
1.24394
1.24423
1.24451
1.24478
1.24504
1.2453
1.24555
1.24579
1.24602
1.24625
1.24646
1.24667
1.24686
1.24705
1.24723
1.2474
1.24756
1.24772
1.24786
1.248
1.24814
1.24826
1.24838
1.2485
1.24861
1.24871
1.24882
1.24891
1.249
1.24909
1.24918
1.24926
1.24934
1.24942
1.2495
1.24957
1.24965
1.24972
1.24979
1.24986
1.24992
1.24999
1.25005
1.25012
1.25018
1.25024
1.25031
1.25037
1.25043
1.25049
1.25055
1.25061
1.25066
1.25072
1.25078
1.25084
1.25089
1.25095
1.251
1.25106
1.25111
1.25116
1.25122
1.25127
1.25132
1.25137
1.25142
1.25147
1.25152
1.25157
1.25162
1.25167
1.25172
1.25176
1.25181
1.25185
1.2519
1.25195
1.25199
1.25204
1.25208
1.25213
1.25217
1.25221
1.25226
1.2523
1.25235
1.25239
1.25244
1.25249
1.25253
1.25258
1.25263
1.25268
1.25273
1.25278
1.25283
1.25289
1.25294
1.253
1.25306
1.25312
1.25318
1.25325
1.25331
1.25338
1.25346
1.25353
1.25361
1.25369
1.25377
1.25386
1.25395
1.25404
1.25414
1.25424
1.25435
1.25446
1.25457
1.25469
1.25481
1.25494
1.25507
1.25521
1.25535
1.2555
1.25566
1.25582
1.25598
1.25615
1.25633
1.25651
1.2567
1.2569
1.2571
1.25731
1.25752
1.25775
1.25798
1.25821
1.25846
1.25871
1.25896
1.25923
1.2595
1.25978
1.26006
1.26035
1.26065
1.26095
1.26127
1.26158
1.2619
1.26223
1.26256
1.2629
1.26324
1.26359
1.26393
1.26428
1.26464
1.26499
1.26535
1.2657
1.26606
1.26641
1.26676
1.26711
1.26745
1.2678
1.26813
1.26846
1.26879
1.26911
1.26942
1.26973
1.27003
1.27032
1.2706
1.27088
1.27114
1.2714
1.27166
1.2719
1.27214
1.27237
1.27259
1.27281
1.27302
1.27322
1.27342
1.27361
1.2738
1.27399
1.27417
1.27434
1.27451
1.27468
1.27485
1.27501
1.27517
1.27533
1.27548
1.27563
1.27578
1.27593
1.27607
1.27622
1.27636
1.27649
1.27663
1.27676
1.27689
1.27701
1.27714
1.27726
1.27738
1.2775
1.27762
1.27773
1.27784
1.27796
1.27807
1.27818
1.27829
1.2784
1.27851
1.27862
1.27874
1.27885
1.27897
1.27909
1.27922
1.27935
1.27949
1.27963
1.27978
1.27994
1.28011
1.28028
1.28047
1.28067
1.28088
1.2811
1.28134
1.28159
1.28186
1.28214
1.28244
1.28276
1.2831
1.28346
1.28384
1.28425
1.28468
1.28513
1.28561
1.28612
1.28665
1.28722
1.28781
1.28844
1.28911
1.2898
1.29054
1.29132
1.29214
1.293
1.29391
1.29488
1.2959
1.29699
1.29814
1.29937
1.30068
1.3021
1.30362
1.30528
1.30709
1.30909
1.31132
1.31383
1.3167
1.32005
1.32406
1.32902
1.33527
1.34335
1.35506
1.37582
1.4092
1.20809
1.20588
1.21324
1.21941
1.22325
1.22602
1.22801
1.22942
1.23043
1.2312
1.23179
1.23226
1.23263
1.23293
1.23318
1.23338
1.23354
1.23368
1.2338
1.23389
1.23397
1.23403
1.23408
1.23412
1.23415
1.23417
1.23418
1.23419
1.23419
1.23418
1.23417
1.23416
1.23414
1.23412
1.23409
1.23406
1.23403
1.23399
1.23396
1.23392
1.23388
1.23384
1.2338
1.23377
1.23373
1.23369
1.23365
1.23362
1.23359
1.23356
1.23353
1.2335
1.23348
1.23347
1.23346
1.23345
1.23345
1.23345
1.23346
1.23348
1.2335
1.23353
1.23357
1.23362
1.23367
1.23373
1.2338
1.23388
1.23397
1.23407
1.23417
1.23429
1.23441
1.23454
1.23468
1.23484
1.235
1.23517
1.23534
1.23553
1.23573
1.23594
1.23615
1.23638
1.23661
1.23685
1.2371
1.23736
1.23762
1.2379
1.23817
1.23846
1.23875
1.23905
1.23935
1.23965
1.23996
1.24027
1.24058
1.24089
1.24121
1.24152
1.24183
1.24215
1.24246
1.24277
1.24307
1.24337
1.24367
1.24396
1.24424
1.24452
1.24479
1.24505
1.24531
1.24556
1.2458
1.24603
1.24625
1.24646
1.24666
1.24686
1.24704
1.24722
1.24739
1.24755
1.24771
1.24785
1.24799
1.24812
1.24825
1.24837
1.24848
1.24859
1.2487
1.2488
1.24889
1.24899
1.24908
1.24916
1.24925
1.24933
1.24941
1.24948
1.24956
1.24963
1.2497
1.24977
1.24984
1.24991
1.24997
1.25004
1.2501
1.25017
1.25023
1.25029
1.25035
1.25042
1.25047
1.25053
1.25059
1.25065
1.25071
1.25077
1.25082
1.25088
1.25094
1.25099
1.25105
1.2511
1.25115
1.25121
1.25126
1.25131
1.25136
1.25141
1.25146
1.25151
1.25156
1.25161
1.25166
1.25171
1.25175
1.2518
1.25184
1.25189
1.25194
1.25198
1.25203
1.25207
1.25212
1.25216
1.25221
1.25225
1.2523
1.25234
1.25239
1.25243
1.25248
1.25253
1.25257
1.25262
1.25267
1.25272
1.25277
1.25283
1.25288
1.25294
1.25299
1.25305
1.25311
1.25318
1.25324
1.25331
1.25338
1.25345
1.25353
1.25361
1.25369
1.25377
1.25386
1.25395
1.25404
1.25414
1.25424
1.25435
1.25446
1.25457
1.25469
1.25482
1.25494
1.25508
1.25522
1.25536
1.25551
1.25566
1.25582
1.25599
1.25616
1.25634
1.25652
1.25671
1.25691
1.25711
1.25732
1.25754
1.25776
1.25799
1.25823
1.25847
1.25872
1.25898
1.25925
1.25952
1.2598
1.26008
1.26038
1.26067
1.26098
1.26129
1.26161
1.26193
1.26226
1.26259
1.26293
1.26327
1.26362
1.26396
1.26432
1.26467
1.26502
1.26538
1.26573
1.26609
1.26644
1.26679
1.26714
1.26748
1.26782
1.26816
1.26849
1.26881
1.26913
1.26944
1.26975
1.27005
1.27033
1.27062
1.27089
1.27116
1.27141
1.27166
1.27191
1.27214
1.27237
1.27259
1.27281
1.27302
1.27322
1.27342
1.27361
1.2738
1.27398
1.27416
1.27434
1.27451
1.27468
1.27484
1.27501
1.27517
1.27532
1.27548
1.27563
1.27578
1.27592
1.27607
1.27621
1.27635
1.27648
1.27662
1.27675
1.27688
1.27701
1.27713
1.27725
1.27737
1.27749
1.27761
1.27772
1.27784
1.27795
1.27806
1.27817
1.27828
1.27839
1.2785
1.27861
1.27873
1.27884
1.27896
1.27909
1.27922
1.27935
1.27949
1.27963
1.27978
1.27994
1.28011
1.28028
1.28047
1.28067
1.28088
1.28111
1.28135
1.2816
1.28187
1.28215
1.28246
1.28278
1.28312
1.28349
1.28387
1.28428
1.28471
1.28517
1.28565
1.28616
1.2867
1.28727
1.28787
1.2885
1.28916
1.28987
1.29061
1.29139
1.29221
1.29308
1.294
1.29497
1.296
1.29709
1.29825
1.29948
1.30081
1.30223
1.30377
1.30543
1.30726
1.30927
1.31152
1.31404
1.31693
1.32029
1.32425
1.32903
1.33503
1.3428
1.35251
1.36306
1.37353
1.21607
1.21507
1.21737
1.2201
1.22314
1.2256
1.22739
1.22874
1.22979
1.23061
1.23126
1.23178
1.23219
1.23254
1.23282
1.23305
1.23325
1.23341
1.23355
1.23366
1.23376
1.23384
1.2339
1.23395
1.23399
1.23403
1.23405
1.23406
1.23407
1.23407
1.23406
1.23405
1.23404
1.23402
1.234
1.23397
1.23395
1.23392
1.23388
1.23385
1.23381
1.23378
1.23374
1.23371
1.23367
1.23363
1.2336
1.23357
1.23354
1.23351
1.23348
1.23346
1.23344
1.23343
1.23342
1.23341
1.23341
1.23342
1.23343
1.23345
1.23348
1.23351
1.23355
1.2336
1.23365
1.23371
1.23379
1.23387
1.23396
1.23405
1.23416
1.23428
1.2344
1.23454
1.23468
1.23483
1.23499
1.23517
1.23535
1.23554
1.23574
1.23594
1.23616
1.23639
1.23662
1.23686
1.23711
1.23737
1.23764
1.23791
1.23819
1.23848
1.23877
1.23907
1.23937
1.23967
1.23998
1.24029
1.2406
1.24092
1.24123
1.24155
1.24186
1.24217
1.24248
1.24279
1.24309
1.24339
1.24369
1.24398
1.24426
1.24454
1.24481
1.24507
1.24533
1.24557
1.24581
1.24604
1.24626
1.24647
1.24667
1.24686
1.24705
1.24722
1.24739
1.24755
1.2477
1.24785
1.24798
1.24812
1.24824
1.24836
1.24847
1.24858
1.24869
1.24879
1.24888
1.24897
1.24906
1.24915
1.24923
1.24931
1.24939
1.24947
1.24954
1.24962
1.24969
1.24976
1.24982
1.24989
1.24996
1.25002
1.25009
1.25015
1.25022
1.25028
1.25034
1.2504
1.25046
1.25052
1.25058
1.25064
1.2507
1.25075
1.25081
1.25087
1.25092
1.25098
1.25103
1.25109
1.25114
1.25119
1.25125
1.2513
1.25135
1.2514
1.25145
1.2515
1.25155
1.2516
1.25165
1.25169
1.25174
1.25179
1.25183
1.25188
1.25192
1.25197
1.25202
1.25206
1.2521
1.25215
1.25219
1.25224
1.25228
1.25233
1.25238
1.25242
1.25247
1.25252
1.25256
1.25261
1.25266
1.25271
1.25276
1.25282
1.25287
1.25293
1.25299
1.25305
1.25311
1.25317
1.25323
1.2533
1.25337
1.25345
1.25352
1.2536
1.25368
1.25376
1.25385
1.25394
1.25404
1.25414
1.25424
1.25434
1.25446
1.25457
1.25469
1.25481
1.25494
1.25508
1.25521
1.25536
1.25551
1.25566
1.25582
1.25599
1.25616
1.25634
1.25652
1.25671
1.25691
1.25712
1.25733
1.25754
1.25777
1.258
1.25824
1.25848
1.25873
1.25899
1.25926
1.25953
1.25981
1.2601
1.26039
1.26069
1.261
1.26131
1.26163
1.26195
1.26228
1.26261
1.26295
1.2633
1.26364
1.26399
1.26434
1.2647
1.26505
1.26541
1.26576
1.26612
1.26647
1.26682
1.26717
1.26751
1.26785
1.26819
1.26852
1.26884
1.26916
1.26947
1.26978
1.27007
1.27036
1.27064
1.27091
1.27118
1.27143
1.27168
1.27192
1.27216
1.27238
1.2726
1.27282
1.27302
1.27323
1.27342
1.27362
1.2738
1.27398
1.27416
1.27434
1.27451
1.27468
1.27484
1.275
1.27516
1.27532
1.27547
1.27563
1.27577
1.27592
1.27606
1.27621
1.27634
1.27648
1.27661
1.27675
1.27687
1.277
1.27713
1.27725
1.27737
1.27748
1.2776
1.27771
1.27783
1.27794
1.27805
1.27816
1.27827
1.27838
1.27849
1.2786
1.27872
1.27883
1.27895
1.27908
1.2792
1.27934
1.27947
1.27962
1.27977
1.27993
1.2801
1.28027
1.28046
1.28066
1.28088
1.2811
1.28134
1.28159
1.28186
1.28215
1.28246
1.28278
1.28312
1.28349
1.28387
1.28428
1.28472
1.28518
1.28566
1.28617
1.28671
1.28728
1.28789
1.28852
1.28919
1.28989
1.29064
1.29142
1.29224
1.29311
1.29403
1.295
1.29603
1.29712
1.29828
1.29952
1.30084
1.30225
1.30378
1.30544
1.30725
1.30924
1.31145
1.31392
1.31672
1.31993
1.32367
1.32804
1.33317
1.33912
1.34576
1.35116
1.35138
1.22047
1.22002
1.2206
1.22212
1.22404
1.22574
1.22722
1.22844
1.22942
1.23022
1.23087
1.23141
1.23185
1.23221
1.23252
1.23278
1.23299
1.23317
1.23333
1.23346
1.23357
1.23366
1.23373
1.2338
1.23385
1.23389
1.23392
1.23394
1.23395
1.23396
1.23396
1.23396
1.23395
1.23393
1.23391
1.23389
1.23387
1.23384
1.23381
1.23378
1.23375
1.23372
1.23368
1.23365
1.23361
1.23358
1.23355
1.23352
1.23349
1.23346
1.23344
1.23342
1.2334
1.23339
1.23338
1.23338
1.23338
1.23339
1.2334
1.23342
1.23344
1.23348
1.23352
1.23357
1.23362
1.23369
1.23376
1.23385
1.23394
1.23404
1.23414
1.23426
1.23439
1.23452
1.23467
1.23482
1.23499
1.23516
1.23534
1.23553
1.23573
1.23594
1.23616
1.23639
1.23662
1.23687
1.23712
1.23738
1.23765
1.23792
1.2382
1.23849
1.23878
1.23908
1.23938
1.23969
1.24
1.24031
1.24063
1.24094
1.24126
1.24157
1.24189
1.2422
1.24251
1.24282
1.24312
1.24342
1.24372
1.24401
1.24429
1.24457
1.24483
1.2451
1.24535
1.2456
1.24583
1.24606
1.24628
1.24649
1.24669
1.24688
1.24706
1.24723
1.2474
1.24756
1.24771
1.24785
1.24799
1.24812
1.24824
1.24836
1.24847
1.24858
1.24868
1.24878
1.24887
1.24896
1.24905
1.24914
1.24922
1.2493
1.24938
1.24945
1.24953
1.2496
1.24967
1.24974
1.24981
1.24988
1.24994
1.25001
1.25007
1.25014
1.2502
1.25026
1.25032
1.25039
1.25045
1.25051
1.25056
1.25062
1.25068
1.25074
1.2508
1.25085
1.25091
1.25096
1.25102
1.25107
1.25113
1.25118
1.25123
1.25128
1.25134
1.25139
1.25144
1.25149
1.25153
1.25158
1.25163
1.25168
1.25173
1.25177
1.25182
1.25187
1.25191
1.25196
1.252
1.25205
1.25209
1.25214
1.25218
1.25223
1.25227
1.25232
1.25236
1.25241
1.25246
1.2525
1.25255
1.2526
1.25265
1.2527
1.25275
1.25281
1.25286
1.25292
1.25297
1.25303
1.2531
1.25316
1.25322
1.25329
1.25336
1.25343
1.25351
1.25359
1.25367
1.25375
1.25384
1.25393
1.25403
1.25413
1.25423
1.25434
1.25445
1.25456
1.25468
1.2548
1.25493
1.25507
1.25521
1.25535
1.2555
1.25565
1.25582
1.25598
1.25615
1.25633
1.25652
1.25671
1.25691
1.25711
1.25732
1.25754
1.25777
1.258
1.25824
1.25848
1.25873
1.25899
1.25926
1.25954
1.25982
1.2601
1.2604
1.2607
1.26101
1.26132
1.26164
1.26197
1.2623
1.26263
1.26297
1.26332
1.26366
1.26401
1.26437
1.26472
1.26508
1.26544
1.26579
1.26615
1.2665
1.26686
1.2672
1.26755
1.26789
1.26823
1.26856
1.26888
1.2692
1.26951
1.26981
1.2701
1.27039
1.27067
1.27094
1.2712
1.27146
1.27171
1.27195
1.27218
1.2724
1.27262
1.27283
1.27304
1.27324
1.27344
1.27363
1.27381
1.27399
1.27417
1.27434
1.27451
1.27468
1.27485
1.27501
1.27517
1.27532
1.27547
1.27563
1.27577
1.27592
1.27606
1.2762
1.27634
1.27648
1.27661
1.27674
1.27687
1.277
1.27712
1.27724
1.27736
1.27748
1.27759
1.27771
1.27782
1.27793
1.27804
1.27815
1.27826
1.27837
1.27848
1.27859
1.2787
1.27882
1.27894
1.27906
1.27919
1.27932
1.27945
1.2796
1.27975
1.27991
1.28008
1.28025
1.28044
1.28064
1.28085
1.28108
1.28132
1.28157
1.28184
1.28213
1.28244
1.28276
1.2831
1.28347
1.28386
1.28427
1.2847
1.28516
1.28564
1.28616
1.2867
1.28727
1.28787
1.28851
1.28917
1.28988
1.29062
1.2914
1.29223
1.2931
1.29401
1.29498
1.296
1.29709
1.29824
1.29946
1.30077
1.30216
1.30367
1.3053
1.30706
1.30899
1.31112
1.31348
1.31612
1.31908
1.32242
1.32618
1.33033
1.33458
1.33841
1.34107
1.34036
1.22357
1.22303
1.22317
1.224
1.2251
1.22629
1.22743
1.22843
1.22929
1.23002
1.23064
1.23115
1.23159
1.23196
1.23228
1.23254
1.23277
1.23297
1.23313
1.23327
1.23339
1.23349
1.23358
1.23365
1.23371
1.23376
1.23379
1.23382
1.23384
1.23385
1.23386
1.23386
1.23386
1.23385
1.23383
1.23381
1.23379
1.23377
1.23374
1.23371
1.23368
1.23365
1.23362
1.23359
1.23356
1.23352
1.23349
1.23346
1.23344
1.23341
1.23339
1.23337
1.23335
1.23334
1.23334
1.23333
1.23334
1.23335
1.23336
1.23338
1.23341
1.23344
1.23349
1.23354
1.23359
1.23366
1.23373
1.23382
1.23391
1.23401
1.23412
1.23424
1.23437
1.23451
1.23465
1.23481
1.23497
1.23515
1.23533
1.23552
1.23573
1.23594
1.23616
1.23639
1.23662
1.23687
1.23712
1.23738
1.23765
1.23793
1.23821
1.2385
1.2388
1.2391
1.2394
1.23971
1.24002
1.24033
1.24065
1.24097
1.24128
1.2416
1.24191
1.24223
1.24254
1.24285
1.24315
1.24345
1.24375
1.24404
1.24432
1.2446
1.24487
1.24513
1.24538
1.24563
1.24586
1.24609
1.24631
1.24651
1.24671
1.2469
1.24708
1.24725
1.24742
1.24757
1.24772
1.24786
1.24799
1.24812
1.24824
1.24836
1.24847
1.24857
1.24867
1.24877
1.24887
1.24896
1.24904
1.24913
1.24921
1.24929
1.24937
1.24944
1.24952
1.24959
1.24966
1.24973
1.2498
1.24986
1.24993
1.24999
1.25006
1.25012
1.25018
1.25025
1.25031
1.25037
1.25043
1.25049
1.25055
1.25061
1.25067
1.25072
1.25078
1.25084
1.25089
1.25095
1.251
1.25106
1.25111
1.25116
1.25122
1.25127
1.25132
1.25137
1.25142
1.25147
1.25152
1.25157
1.25162
1.25166
1.25171
1.25176
1.2518
1.25185
1.2519
1.25194
1.25199
1.25203
1.25208
1.25212
1.25217
1.25221
1.25226
1.2523
1.25235
1.2524
1.25244
1.25249
1.25254
1.25259
1.25264
1.25269
1.25274
1.25279
1.25285
1.2529
1.25296
1.25302
1.25308
1.25314
1.25321
1.25328
1.25335
1.25342
1.2535
1.25357
1.25366
1.25374
1.25383
1.25392
1.25401
1.25411
1.25421
1.25432
1.25443
1.25455
1.25467
1.25479
1.25492
1.25505
1.25519
1.25534
1.25549
1.25564
1.2558
1.25597
1.25614
1.25632
1.25651
1.2567
1.2569
1.2571
1.25731
1.25753
1.25776
1.25799
1.25823
1.25847
1.25873
1.25899
1.25926
1.25953
1.25981
1.2601
1.2604
1.2607
1.26101
1.26132
1.26165
1.26197
1.26231
1.26264
1.26298
1.26333
1.26368
1.26403
1.26439
1.26475
1.2651
1.26546
1.26582
1.26618
1.26654
1.26689
1.26724
1.26759
1.26793
1.26827
1.2686
1.26892
1.26924
1.26955
1.26985
1.27015
1.27043
1.27071
1.27098
1.27124
1.27149
1.27174
1.27198
1.27221
1.27243
1.27265
1.27286
1.27306
1.27326
1.27345
1.27364
1.27383
1.27401
1.27418
1.27435
1.27452
1.27469
1.27485
1.27501
1.27517
1.27533
1.27548
1.27563
1.27578
1.27592
1.27607
1.27621
1.27634
1.27648
1.27661
1.27674
1.27687
1.277
1.27712
1.27724
1.27736
1.27747
1.27759
1.2777
1.27781
1.27792
1.27803
1.27814
1.27825
1.27835
1.27846
1.27857
1.27869
1.2788
1.27892
1.27904
1.27916
1.27929
1.27943
1.27957
1.27972
1.27988
1.28005
1.28022
1.28041
1.28061
1.28082
1.28104
1.28128
1.28154
1.28181
1.28209
1.2824
1.28272
1.28306
1.28343
1.28382
1.28422
1.28466
1.28512
1.2856
1.28611
1.28665
1.28722
1.28783
1.28846
1.28913
1.28983
1.29057
1.29135
1.29217
1.29303
1.29394
1.2949
1.29591
1.29698
1.29812
1.29932
1.3006
1.30197
1.30344
1.30501
1.30671
1.30856
1.31057
1.31278
1.3152
1.31785
1.32074
1.32382
1.32698
1.32997
1.33228
1.33347
1.33319
1.22569
1.22512
1.22511
1.22552
1.22619
1.227
1.22783
1.22862
1.22934
1.22997
1.23053
1.23101
1.23142
1.23178
1.23209
1.23236
1.23259
1.23279
1.23297
1.23311
1.23324
1.23335
1.23344
1.23352
1.23358
1.23364
1.23368
1.23371
1.23374
1.23376
1.23377
1.23377
1.23377
1.23376
1.23375
1.23374
1.23372
1.2337
1.23367
1.23365
1.23362
1.23359
1.23356
1.23353
1.2335
1.23347
1.23344
1.23341
1.23339
1.23336
1.23334
1.23332
1.23331
1.2333
1.23329
1.23329
1.23329
1.2333
1.23332
1.23334
1.23337
1.23341
1.23345
1.2335
1.23356
1.23363
1.2337
1.23379
1.23388
1.23398
1.23409
1.23421
1.23434
1.23448
1.23463
1.23479
1.23495
1.23513
1.23531
1.23551
1.23571
1.23592
1.23614
1.23638
1.23661
1.23686
1.23712
1.23738
1.23765
1.23793
1.23822
1.23851
1.23881
1.23911
1.23942
1.23973
1.24004
1.24035
1.24067
1.24099
1.24131
1.24163
1.24194
1.24226
1.24257
1.24288
1.24319
1.24349
1.24379
1.24408
1.24436
1.24464
1.24491
1.24517
1.24542
1.24567
1.2459
1.24613
1.24634
1.24655
1.24674
1.24693
1.24711
1.24728
1.24744
1.24759
1.24774
1.24788
1.24801
1.24813
1.24825
1.24836
1.24847
1.24858
1.24867
1.24877
1.24886
1.24895
1.24904
1.24912
1.2492
1.24928
1.24936
1.24943
1.2495
1.24958
1.24965
1.24971
1.24978
1.24985
1.24991
1.24998
1.25004
1.25011
1.25017
1.25023
1.25029
1.25035
1.25041
1.25047
1.25053
1.25059
1.25065
1.25071
1.25076
1.25082
1.25088
1.25093
1.25099
1.25104
1.25109
1.25115
1.2512
1.25125
1.2513
1.25135
1.2514
1.25145
1.2515
1.25155
1.2516
1.25165
1.25169
1.25174
1.25179
1.25183
1.25188
1.25193
1.25197
1.25202
1.25206
1.25211
1.25215
1.2522
1.25224
1.25229
1.25233
1.25238
1.25243
1.25247
1.25252
1.25257
1.25262
1.25267
1.25272
1.25278
1.25283
1.25289
1.25294
1.253
1.25306
1.25313
1.25319
1.25326
1.25333
1.2534
1.25348
1.25356
1.25364
1.25372
1.25381
1.2539
1.254
1.25409
1.2542
1.2543
1.25441
1.25453
1.25465
1.25477
1.2549
1.25503
1.25517
1.25532
1.25547
1.25562
1.25578
1.25595
1.25612
1.2563
1.25649
1.25668
1.25688
1.25708
1.25729
1.25751
1.25774
1.25797
1.25821
1.25846
1.25871
1.25897
1.25924
1.25952
1.2598
1.26009
1.26039
1.26069
1.261
1.26132
1.26164
1.26197
1.26231
1.26265
1.26299
1.26334
1.26369
1.26405
1.26441
1.26477
1.26513
1.26549
1.26585
1.26621
1.26657
1.26693
1.26728
1.26763
1.26797
1.26831
1.26864
1.26897
1.26929
1.2696
1.2699
1.27019
1.27048
1.27075
1.27102
1.27128
1.27153
1.27178
1.27201
1.27224
1.27246
1.27268
1.27288
1.27309
1.27328
1.27348
1.27366
1.27384
1.27402
1.2742
1.27437
1.27454
1.2747
1.27486
1.27502
1.27518
1.27533
1.27549
1.27564
1.27578
1.27593
1.27607
1.27621
1.27635
1.27648
1.27662
1.27675
1.27687
1.277
1.27712
1.27724
1.27736
1.27747
1.27759
1.2777
1.27781
1.27792
1.27802
1.27813
1.27824
1.27834
1.27845
1.27856
1.27867
1.27878
1.2789
1.27901
1.27914
1.27927
1.2794
1.27954
1.27969
1.27984
1.28001
1.28018
1.28037
1.28057
1.28078
1.281
1.28123
1.28149
1.28175
1.28204
1.28234
1.28266
1.28301
1.28337
1.28375
1.28416
1.28459
1.28505
1.28553
1.28604
1.28658
1.28715
1.28775
1.28838
1.28904
1.28974
1.29047
1.29125
1.29206
1.29291
1.29381
1.29476
1.29576
1.29681
1.29792
1.2991
1.30035
1.30168
1.30309
1.3046
1.30622
1.30796
1.30984
1.31186
1.31403
1.31635
1.31878
1.32126
1.32363
1.32569
1.32716
1.32774
1.32751
1.22716
1.22667
1.22656
1.22675
1.22716
1.22771
1.22831
1.22892
1.2295
1.23003
1.23052
1.23095
1.23133
1.23167
1.23197
1.23223
1.23246
1.23266
1.23283
1.23298
1.23311
1.23322
1.23332
1.2334
1.23347
1.23353
1.23358
1.23361
1.23364
1.23366
1.23368
1.23369
1.23369
1.23368
1.23368
1.23366
1.23365
1.23363
1.23361
1.23358
1.23356
1.23353
1.2335
1.23347
1.23344
1.23342
1.23339
1.23336
1.23334
1.23331
1.23329
1.23327
1.23326
1.23325
1.23324
1.23324
1.23325
1.23326
1.23327
1.2333
1.23333
1.23336
1.23341
1.23346
1.23352
1.23359
1.23366
1.23375
1.23384
1.23395
1.23406
1.23418
1.23431
1.23445
1.2346
1.23476
1.23493
1.23511
1.23529
1.23549
1.23569
1.23591
1.23613
1.23636
1.2366
1.23685
1.23711
1.23738
1.23765
1.23793
1.23822
1.23851
1.23881
1.23912
1.23943
1.23974
1.24006
1.24038
1.24069
1.24102
1.24134
1.24166
1.24198
1.24229
1.24261
1.24292
1.24323
1.24353
1.24383
1.24412
1.24441
1.24469
1.24496
1.24522
1.24547
1.24571
1.24595
1.24617
1.24638
1.24659
1.24678
1.24697
1.24714
1.24731
1.24747
1.24762
1.24776
1.2479
1.24802
1.24815
1.24826
1.24837
1.24848
1.24858
1.24868
1.24877
1.24886
1.24895
1.24903
1.24912
1.24919
1.24927
1.24935
1.24942
1.24949
1.24956
1.24963
1.2497
1.24977
1.24983
1.2499
1.24996
1.25003
1.25009
1.25015
1.25021
1.25028
1.25034
1.2504
1.25046
1.25051
1.25057
1.25063
1.25069
1.25074
1.2508
1.25086
1.25091
1.25097
1.25102
1.25107
1.25113
1.25118
1.25123
1.25128
1.25133
1.25138
1.25143
1.25148
1.25153
1.25158
1.25163
1.25168
1.25172
1.25177
1.25182
1.25186
1.25191
1.25195
1.252
1.25204
1.25209
1.25213
1.25218
1.25222
1.25227
1.25231
1.25236
1.25241
1.25245
1.2525
1.25255
1.2526
1.25265
1.2527
1.25276
1.25281
1.25287
1.25292
1.25298
1.25304
1.25311
1.25317
1.25324
1.25331
1.25338
1.25346
1.25354
1.25362
1.2537
1.25379
1.25388
1.25397
1.25407
1.25417
1.25428
1.25439
1.2545
1.25462
1.25475
1.25487
1.25501
1.25515
1.25529
1.25544
1.25559
1.25575
1.25592
1.25609
1.25627
1.25646
1.25665
1.25685
1.25705
1.25727
1.25749
1.25771
1.25794
1.25818
1.25843
1.25869
1.25895
1.25922
1.2595
1.25978
1.26007
1.26037
1.26068
1.26099
1.26131
1.26163
1.26197
1.2623
1.26265
1.26299
1.26334
1.2637
1.26406
1.26442
1.26478
1.26515
1.26551
1.26588
1.26624
1.2666
1.26696
1.26732
1.26767
1.26802
1.26836
1.26869
1.26902
1.26934
1.26965
1.26995
1.27025
1.27053
1.27081
1.27107
1.27133
1.27158
1.27182
1.27206
1.27228
1.2725
1.27271
1.27292
1.27312
1.27331
1.2735
1.27369
1.27387
1.27404
1.27422
1.27439
1.27455
1.27472
1.27488
1.27504
1.27519
1.27535
1.2755
1.27565
1.27579
1.27594
1.27608
1.27622
1.27636
1.27649
1.27662
1.27675
1.27688
1.277
1.27712
1.27724
1.27736
1.27747
1.27758
1.27769
1.2778
1.27791
1.27801
1.27812
1.27822
1.27833
1.27843
1.27854
1.27865
1.27876
1.27887
1.27899
1.27911
1.27923
1.27936
1.2795
1.27965
1.2798
1.27996
1.28014
1.28032
1.28051
1.28072
1.28094
1.28117
1.28142
1.28169
1.28197
1.28227
1.28259
1.28293
1.28329
1.28367
1.28408
1.28451
1.28496
1.28544
1.28595
1.28648
1.28705
1.28764
1.28826
1.28892
1.28961
1.29034
1.29111
1.29191
1.29275
1.29364
1.29457
1.29555
1.29658
1.29766
1.29881
1.30002
1.30129
1.30265
1.30408
1.30561
1.30723
1.30895
1.31078
1.3127
1.31469
1.31671
1.31868
1.32046
1.3219
1.32285
1.32317
1.32284
1.22824
1.22783
1.22768
1.22775
1.228
1.22836
1.2288
1.22926
1.22972
1.23017
1.23058
1.23096
1.23131
1.23162
1.23189
1.23214
1.23236
1.23255
1.23272
1.23287
1.233
1.23312
1.23321
1.2333
1.23337
1.23343
1.23348
1.23352
1.23355
1.23358
1.2336
1.23361
1.23361
1.23361
1.23361
1.2336
1.23358
1.23357
1.23355
1.23352
1.2335
1.23347
1.23345
1.23342
1.23339
1.23336
1.23334
1.23331
1.23329
1.23326
1.23324
1.23323
1.23321
1.2332
1.2332
1.2332
1.2332
1.23321
1.23323
1.23325
1.23328
1.23332
1.23336
1.23342
1.23348
1.23355
1.23362
1.23371
1.23381
1.23391
1.23402
1.23415
1.23428
1.23442
1.23457
1.23473
1.2349
1.23508
1.23527
1.23546
1.23567
1.23588
1.23611
1.23634
1.23659
1.23684
1.2371
1.23737
1.23764
1.23793
1.23822
1.23851
1.23882
1.23912
1.23944
1.23975
1.24007
1.24039
1.24071
1.24104
1.24136
1.24169
1.24201
1.24233
1.24265
1.24296
1.24327
1.24358
1.24388
1.24417
1.24446
1.24474
1.24501
1.24527
1.24552
1.24576
1.246
1.24622
1.24643
1.24664
1.24683
1.24701
1.24718
1.24735
1.2475
1.24765
1.24779
1.24792
1.24805
1.24817
1.24828
1.24839
1.24849
1.24859
1.24868
1.24878
1.24886
1.24895
1.24903
1.24911
1.24919
1.24927
1.24934
1.24941
1.24948
1.24955
1.24962
1.24969
1.24976
1.24982
1.24988
1.24995
1.25001
1.25007
1.25014
1.2502
1.25026
1.25032
1.25038
1.25044
1.2505
1.25055
1.25061
1.25067
1.25073
1.25078
1.25084
1.25089
1.25095
1.251
1.25105
1.25111
1.25116
1.25121
1.25126
1.25131
1.25136
1.25141
1.25146
1.25151
1.25156
1.25161
1.25166
1.2517
1.25175
1.2518
1.25184
1.25189
1.25193
1.25198
1.25202
1.25207
1.25211
1.25216
1.2522
1.25225
1.25229
1.25234
1.25239
1.25243
1.25248
1.25253
1.25258
1.25263
1.25268
1.25274
1.25279
1.25285
1.2529
1.25296
1.25302
1.25309
1.25315
1.25322
1.25329
1.25336
1.25343
1.25351
1.25359
1.25368
1.25376
1.25385
1.25395
1.25404
1.25414
1.25425
1.25436
1.25447
1.25459
1.25472
1.25484
1.25498
1.25511
1.25526
1.25541
1.25556
1.25572
1.25589
1.25606
1.25624
1.25642
1.25662
1.25681
1.25702
1.25723
1.25745
1.25768
1.25791
1.25815
1.2584
1.25866
1.25892
1.25919
1.25947
1.25975
1.26005
1.26035
1.26065
1.26097
1.26129
1.26162
1.26195
1.26229
1.26264
1.26299
1.26334
1.2637
1.26406
1.26443
1.2648
1.26516
1.26553
1.2659
1.26627
1.26664
1.267
1.26736
1.26771
1.26806
1.26841
1.26874
1.26907
1.26939
1.26971
1.27001
1.2703
1.27059
1.27086
1.27113
1.27139
1.27164
1.27188
1.27211
1.27233
1.27255
1.27276
1.27296
1.27316
1.27335
1.27354
1.27372
1.2739
1.27407
1.27424
1.27441
1.27457
1.27474
1.27489
1.27505
1.27521
1.27536
1.27551
1.27566
1.2758
1.27595
1.27609
1.27623
1.27637
1.2765
1.27663
1.27676
1.27689
1.27701
1.27713
1.27725
1.27736
1.27747
1.27759
1.27769
1.2778
1.2779
1.27801
1.27811
1.27821
1.27831
1.27842
1.27852
1.27863
1.27873
1.27884
1.27896
1.27907
1.2792
1.27933
1.27946
1.2796
1.27975
1.27991
1.28008
1.28026
1.28045
1.28065
1.28087
1.2811
1.28135
1.28161
1.28189
1.28219
1.2825
1.28284
1.2832
1.28357
1.28398
1.2844
1.28485
1.28532
1.28583
1.28636
1.28691
1.2875
1.28812
1.28877
1.28945
1.29017
1.29093
1.29172
1.29254
1.29341
1.29433
1.29528
1.29628
1.29734
1.29844
1.29961
1.30083
1.30211
1.30347
1.30489
1.30639
1.30796
1.30959
1.31127
1.31297
1.31463
1.31618
1.31753
1.31856
1.31919
1.31936
1.31899
1.22906
1.22872
1.22856
1.22856
1.22871
1.22895
1.22926
1.22962
1.22998
1.23034
1.23069
1.23102
1.23132
1.2316
1.23186
1.23209
1.23229
1.23248
1.23264
1.23279
1.23291
1.23303
1.23312
1.23321
1.23328
1.23335
1.2334
1.23344
1.23347
1.2335
1.23352
1.23353
1.23354
1.23354
1.23354
1.23353
1.23352
1.2335
1.23349
1.23347
1.23344
1.23342
1.23339
1.23337
1.23334
1.23331
1.23329
1.23326
1.23324
1.23321
1.2332
1.23318
1.23317
1.23316
1.23315
1.23315
1.23316
1.23317
1.23318
1.23321
1.23324
1.23328
1.23332
1.23337
1.23343
1.2335
1.23358
1.23367
1.23377
1.23387
1.23399
1.23411
1.23424
1.23439
1.23454
1.2347
1.23487
1.23505
1.23524
1.23544
1.23564
1.23586
1.23609
1.23632
1.23657
1.23682
1.23708
1.23735
1.23763
1.23792
1.23821
1.23851
1.23882
1.23913
1.23944
1.23976
1.24008
1.24041
1.24074
1.24106
1.24139
1.24172
1.24204
1.24236
1.24268
1.243
1.24331
1.24362
1.24392
1.24422
1.24451
1.24479
1.24506
1.24533
1.24558
1.24582
1.24605
1.24628
1.24649
1.24669
1.24688
1.24706
1.24723
1.24739
1.24754
1.24769
1.24782
1.24795
1.24807
1.24819
1.2483
1.2484
1.2485
1.2486
1.24869
1.24878
1.24887
1.24895
1.24903
1.24911
1.24919
1.24926
1.24933
1.2494
1.24947
1.24954
1.24961
1.24968
1.24974
1.24981
1.24987
1.24993
1.25
1.25006
1.25012
1.25018
1.25024
1.2503
1.25036
1.25042
1.25048
1.25053
1.25059
1.25065
1.2507
1.25076
1.25082
1.25087
1.25093
1.25098
1.25103
1.25109
1.25114
1.25119
1.25124
1.25129
1.25134