# vtk DataFile Version 2.0
LBE two cylinders
ASCII
DATASET STRUCTURED_POINTS
DIMENSIONS 400 100 1
ASPECT_RATIO 1 1 1
ORIGIN 0 0 0
POINT_DATA 40000
SCALARS rho double 1
LOOKUP_TABLE default
1.73764
1.73766
1.73758
1.7376
1.73751
1.73752
1.73742
1.73742
1.73732
1.7373
1.7372
1.73718
1.73707
1.73704
1.73693
1.7369
1.73678
1.73675
1.73663
1.7366
1.73648
1.73645
1.73633
1.7363
1.73618
1.73616
1.73605
1.73603
1.73592
1.73591
1.73582
1.73582
1.73573
1.73574
1.73567
1.7357
1.73564
1.73568
1.73564
1.7357
1.73568
1.73576
1.73576
1.73585
1.73588
1.73599
1.73604
1.73617
1.73624
1.7364
1.73649
1.73667
1.73678
1.73697
1.7371
1.73732
1.73747
1.73771
1.73787
1.73813
1.73831
1.73857
1.73877
1.73905
1.73925
1.73954
1.73975
1.74004
1.74025
1.74055
1.74076
1.74105
1.74126
1.74154
1.74174
1.74201
1.74218
1.74244
1.74259
1.74282
1.74294
1.74314
1.74323
1.7434
1.74345
1.74357
1.74358
1.74367
1.74364
1.74368
1.74361
1.74362
1.74351
1.74348
1.74334
1.74329
1.74313
1.74306
1.74288
1.74281
1.74262
1.74255
1.74237
1.7423
1.74213
1.74208
1.74193
1.74189
1.74177
1.74175
1.74165
1.74167
1.7416
1.74163
1.74159
1.74164
1.74162
1.74169
1.74168
1.74176
1.74176
1.74184
1.74184
1.74192
1.74192
1.74199
1.74198
1.74203
1.74201
1.74205
1.74201
1.74203
1.74199
1.742
1.74194
1.74194
1.74188
1.74188
1.74182
1.74182
1.74177
1.74178
1.74174
1.74176
1.74173
1.74177
1.74176
1.7418
1.74181
1.74188
1.7419
1.74198
1.74201
1.7421
1.74215
1.74224
1.74229
1.74239
1.74244
1.74253
1.74258
1.74266
1.7427
1.74278
1.7428
1.74286
1.74286
1.74291
1.7429
1.74293
1.74289
1.74291
1.74286
1.74285
1.74278
1.74277
1.74268
1.74265
1.74255
1.74251
1.74239
1.74234
1.74222
1.74216
1.74203
1.74197
1.74183
1.74176
1.74162
1.74156
1.74142
1.74135
1.74121
1.74115
1.74101
1.74096
1.74082
1.74077
1.74064
1.74059
1.74047
1.74042
1.7403
1.74026
1.74015
1.74012
1.74001
1.73998
1.73987
1.73985
1.73975
1.73972
1.73963
1.7396
1.73951
1.73948
1.73939
1.73937
1.73927
1.73925
1.73915
1.73912
1.73903
1.73899
1.73889
1.73886
1.73875
1.73871
1.7386
1.73856
1.73844
1.7384
1.73828
1.73823
1.7381
1.73805
1.73792
1.73787
1.73774
1.73768
1.73755
1.73749
1.73736
1.7373
1.73716
1.73711
1.73697
1.73693
1.73679
1.73675
1.73661
1.73657
1.73644
1.7364
1.73627
1.73625
1.73612
1.7361
1.73598
1.73597
1.73585
1.73585
1.73574
1.73574
1.73564
1.73566
1.73556
1.73558
1.73549
1.73552
1.73544
1.73548
1.73541
1.73546
1.73539
1.73545
1.73539
1.73546
1.73541
1.73549
1.73545
1.73553
1.7355
1.73559
1.73556
1.73566
1.73564
1.73575
1.73574
1.73585
1.73584
1.73596
1.73596
1.73607
1.73608
1.73619
1.7362
1.73632
1.73633
1.73645
1.73646
1.73657
1.73658
1.7367
1.7367
1.73681
1.73681
1.73692
1.73691
1.73701
1.737
1.73709
1.73707
1.73716
1.73713
1.73721
1.73717
1.73725
1.7372
1.73726
1.7372
1.73726
1.73719
1.73725
1.73717
1.73721
1.73713
1.73717
1.73707
1.73711
1.73701
1.73704
1.73693
1.73695
1.73685
1.73687
1.73676
1.73677
1.73666
1.73668
1.73657
1.73659
1.73648
1.7365
1.73639
1.73641
1.73631
1.73633
1.73624
1.73627
1.73618
1.73621
1.73614
1.73618
1.73611
1.73615
1.7361
1.73615
1.7361
1.73616
1.73613
1.73619
1.73617
1.73625
1.73623
1.73631
1.73631
1.7364
1.7364
1.73649
1.7365
1.7366
1.73662
1.73672
1.73674
1.73685
1.73686
1.73697
1.73699
1.7371
1.73711
1.73722
1.73723
1.73734
1.73734
1.73744
1.73744
1.73753
1.73753
1.73761
1.73759
1.73767
1.73764
1.73771
1.73767
1.73773
1.73768
1.73772
1.73767
1.7377
1.73754
1.73775
1.73748
1.73769
1.73741
1.73761
1.73732
1.73751
1.73722
1.73739
1.7371
1.73727
1.73697
1.73713
1.73683
1.73699
1.73668
1.73684
1.73653
1.73669
1.73638
1.73654
1.73623
1.73639
1.73609
1.73625
1.73595
1.73612
1.73583
1.73601
1.73573
1.73591
1.73564
1.73584
1.73558
1.73579
1.73555
1.73577
1.73556
1.73579
1.73559
1.73585
1.73567
1.73595
1.73579
1.73608
1.73595
1.73626
1.73615
1.73649
1.7364
1.73676
1.73669
1.73706
1.73701
1.73741
1.73738
1.7378
1.73778
1.73821
1.73821
1.73866
1.73867
1.73913
1.73915
1.73962
1.73965
1.74012
1.74015
1.74063
1.74065
1.74113
1.74115
1.74162
1.74163
1.74208
1.74207
1.74251
1.74248
1.74289
1.74283
1.74321
1.74311
1.74347
1.74333
1.74364
1.74346
1.74374
1.74351
1.74375
1.74348
1.74369
1.74338
1.74356
1.74322
1.74337
1.74301
1.74314
1.74276
1.74289
1.7425
1.74263
1.74225
1.74239
1.74201
1.74217
1.74181
1.74199
1.74166
1.74185
1.74155
1.74177
1.74149
1.74173
1.74148
1.74174
1.74152
1.74178
1.74158
1.74185
1.74166
1.74193
1.74175
1.74201
1.74183
1.74207
1.74189
1.74211
1.74192
1.74212
1.74193
1.74211
1.74191
1.74207
1.74187
1.74201
1.74181
1.74195
1.74176
1.74189
1.74171
1.74185
1.74168
1.74182
1.74167
1.74183
1.7417
1.74187
1.74176
1.74194
1.74185
1.74204
1.74196
1.74216
1.74209
1.7423
1.74224
1.74245
1.74238
1.74259
1.74252
1.74272
1.74264
1.74283
1.74273
1.74291
1.7428
1.74297
1.74283
1.74298
1.74282
1.74297
1.74278
1.74291
1.74271
1.74283
1.74261
1.74272
1.74247
1.74257
1.74232
1.74241
1.74214
1.74223
1.74195
1.74204
1.74175
1.74185
1.74155
1.74164
1.74135
1.74144
1.74114
1.74124
1.74094
1.74105
1.74075
1.74086
1.74057
1.74068
1.7404
1.74052
1.74024
1.74036
1.74008
1.74021
1.73994
1.74008
1.73981
1.73995
1.73968
1.73982
1.73956
1.7397
1.73944
1.73958
1.73933
1.73947
1.73921
1.73935
1.73908
1.73922
1.73896
1.73909
1.73882
1.73896
1.73868
1.73881
1.73853
1.73866
1.73837
1.7385
1.7382
1.73833
1.73803
1.73815
1.73784
1.73797
1.73766
1.73779
1.73746
1.7376
1.73727
1.73741
1.73708
1.73723
1.73688
1.73704
1.73669
1.73686
1.73651
1.73669
1.73634
1.73653
1.73617
1.73637
1.73601
1.73623
1.73587
1.7361
1.73574
1.73598
1.73563
1.73588
1.73552
1.7358
1.73544
1.73572
1.73537
1.73567
1.73532
1.73563
1.73529
1.73561
1.73527
1.7356
1.73527
1.73561
1.73529
1.73564
1.73533
1.73568
1.73538
1.73574
1.73545
1.73581
1.73553
1.7359
1.73562
1.73599
1.73573
1.7361
1.73584
1.73621
1.73596
1.73633
1.73609
1.73646
1.73622
1.73658
1.73634
1.73671
1.73647
1.73683
1.73659
1.73694
1.7367
1.73704
1.7368
1.73714
1.73688
1.73722
1.73696
1.73728
1.73701
1.73733
1.73705
1.73737
1.73708
1.73738
1.73708
1.73738
1.73707
1.73736
1.73704
1.73733
1.737
1.73728
1.73695
1.73722
1.73688
1.73715
1.73681
1.73707
1.73672
1.73698
1.73664
1.73688
1.73654
1.73679
1.73645
1.73669
1.73636
1.7366
1.73628
1.73651
1.7362
1.73644
1.73613
1.73637
1.73607
1.73632
1.73603
1.73628
1.736
1.73626
1.73599
1.73625
1.736
1.73627
1.73602
1.7363
1.73606
1.73635
1.73612
1.73642
1.7362
1.7365
1.73629
1.7366
1.73639
1.73671
1.73651
1.73683
1.73663
1.73695
1.73676
1.73708
1.73688
1.73721
1.73701
1.73733
1.73713
1.73744
1.73724
1.73755
1.73734
1.73764
1.73742
1.73771
1.73749
1.73777
1.73754
1.73781
1.73757
1.73782
1.73758
1.73782
1.73757
1.7378
1.73745
1.73783
1.7374
1.73776
1.73733
1.73768
1.73724
1.73758
1.73713
1.73747
1.73701
1.73734
1.73688
1.7372
1.73674
1.73706
1.73659
1.73691
1.73644
1.73676
1.73629
1.73661
1.73614
1.73646
1.736
1.73632
1.73587
1.73619
1.73575
1.73608
1.73564
1.73599
1.73556
1.73591
1.7355
1.73587
1.73547
1.73585
1.73547
1.73587
1.73551
1.73593
1.73559
1.73603
1.7357
1.73616
1.73586
1.73634
1.73606
1.73657
1.73631
1.73683
1.73659
1.73714
1.73692
1.73749
1.73728
1.73787
1.73768
1.73829
1.73811
1.73873
1.73857
1.7392
1.73905
1.73969
1.73954
1.74019
1.74004
1.7407
1.74055
1.7412
1.74104
1.74169
1.74152
1.74215
1.74196
1.74258
1.74236
1.74296
1.74271
1.74327
1.743
1.74352
1.74321
1.7437
1.74334
1.74379
1.74339
1.74381
1.74336
1.74374
1.74326
1.74361
1.7431
1.74343
1.74289
1.7432
1.74264
1.74295
1.74239
1.7427
1.74213
1.74245
1.7419
1.74224
1.7417
1.74206
1.74155
1.74192
1.74144
1.74184
1.74139
1.74181
1.74138
1.74182
1.74141
1.74186
1.74148
1.74193
1.74156
1.742
1.74165
1.74208
1.74172
1.74214
1.74178
1.74218
1.74182
1.74219
1.74183
1.74217
1.74181
1.74213
1.74177
1.74208
1.74172
1.74202
1.74166
1.74196
1.74162
1.74192
1.74159
1.74189
1.74159
1.7419
1.74162
1.74194
1.74168
1.74201
1.74177
1.74211
1.74188
1.74223
1.74201
1.74237
1.74216
1.74251
1.7423
1.74265
1.74244
1.74278
1.74256
1.74289
1.74265
1.74298
1.74272
1.74303
1.74275
1.74305
1.74275
1.74303
1.74271
1.74298
1.74264
1.74289
1.74253
1.74278
1.7424
1.74264
1.74225
1.74248
1.74207
1.74231
1.74189
1.74212
1.74169
1.74192
1.74149
1.74172
1.74129
1.74152
1.74109
1.74133
1.74089
1.74114
1.7407
1.74095
1.74052
1.74078
1.74035
1.74061
1.74019
1.74046
1.74004
1.74031
1.73989
1.74018
1.73976
1.74005
1.73964
1.73992
1.73951
1.7398
1.7394
1.73969
1.73928
1.73957
1.73916
1.73945
1.73904
1.73933
1.73891
1.7392
1.73877
1.73906
1.73863
1.73892
1.73848
1.73876
1.73832
1.7386
1.73815
1.73843
1.73797
1.73826
1.73779
1.73808
1.7376
1.7379
1.73741
1.73771
1.73721
1.73752
1.73702
1.73734
1.73682
1.73715
1.73663
1.73698
1.73645
1.7368
1.73627
1.73664
1.7361
1.73649
1.73595
1.73635
1.7358
1.73622
1.73567
1.7361
1.73556
1.736
1.73545
1.73592
1.73537
1.73585
1.7353
1.73579
1.73525
1.73576
1.73521
1.73573
1.7352
1.73573
1.7352
1.73574
1.73522
1.73577
1.73525
1.73581
1.7353
1.73587
1.73537
1.73594
1.73545
1.73603
1.73554
1.73612
1.73565
1.73623
1.73576
1.73634
1.73588
1.73646
1.73601
1.73658
1.73613
1.73671
1.73626
1.73683
1.73638
1.73695
1.7365
1.73706
1.73661
1.73716
1.7367
1.73725
1.73679
1.73733
1.73686
1.73739
1.73691
1.73744
1.73695
1.73747
1.73697
1.73748
1.73698
1.73748
1.73697
1.73746
1.73694
1.73742
1.7369
1.73737
1.73685
1.73731
1.73678
1.73723
1.73671
1.73715
1.73662
1.73706
1.73654
1.73696
1.73645
1.73687
1.73636
1.73677
1.73627
1.73668
1.73618
1.73659
1.7361
1.73651
1.73604
1.73645
1.73598
1.73639
1.73594
1.73635
1.73591
1.73633
1.7359
1.73633
1.7359
1.73635
1.73593
1.73638
1.73597
1.73643
1.73603
1.7365
1.73611
1.73659
1.7362
1.73669
1.7363
1.7368
1.73642
1.73692
1.73654
1.73704
1.73666
1.73717
1.73679
1.7373
1.73692
1.73742
1.73704
1.73753
1.73715
1.73763
1.73725
1.73772
1.73733
1.7378
1.7374
1.73785
1.73745
1.73789
1.73748
1.7379
1.73749
1.7379
1.73748
1.73788
1.73737
1.7379
1.73732
1.73783
1.73724
1.73775
1.73715
1.73765
1.73705
1.73753
1.73693
1.73741
1.7368
1.73727
1.73666
1.73712
1.73651
1.73698
1.73636
1.73682
1.73621
1.73667
1.73606
1.73653
1.73591
1.73639
1.73578
1.73626
1.73566
1.73615
1.73556
1.73605
1.73547
1.73598
1.73541
1.73594
1.73538
1.73592
1.73538
1.73594
1.73542
1.736
1.7355
1.7361
1.73561
1.73624
1.73577
1.73642
1.73597
1.73664
1.73621
1.73691
1.7365
1.73721
1.73682
1.73756
1.73718
1.73794
1.73758
1.73836
1.73801
1.7388
1.73846
1.73927
1.73894
1.73976
1.73943
1.74026
1.73993
1.74076
1.74043
1.74126
1.74092
1.74175
1.7414
1.74221
1.74184
1.74263
1.74224
1.74301
1.74259
1.74333
1.74287
1.74358
1.74308
1.74375
1.74321
1.74384
1.74326
1.74385
1.74323
1.74379
1.74313
1.74366
1.74297
1.74347
1.74276
1.74325
1.74251
1.743
1.74226
1.74275
1.74201
1.7425
1.74177
1.74229
1.74158
1.74211
1.74142
1.74198
1.74132
1.7419
1.74126
1.74187
1.74126
1.74188
1.74129
1.74192
1.74135
1.74199
1.74144
1.74207
1.74152
1.74214
1.7416
1.7422
1.74166
1.74224
1.7417
1.74226
1.74171
1.74224
1.74169
1.74221
1.74166
1.74215
1.74161
1.74209
1.74156
1.74204
1.74151
1.74199
1.74149
1.74197
1.74149
1.74198
1.74152
1.74202
1.74158
1.74209
1.74168
1.74219
1.74179
1.74231
1.74193
1.74245
1.74207
1.74259
1.74222
1.74273
1.74235
1.74286
1.74247
1.74297
1.74257
1.74305
1.74264
1.74311
1.74267
1.74312
1.74267
1.74311
1.74263
1.74306
1.74256
1.74298
1.74246
1.74286
1.74234
1.74273
1.74218
1.74257
1.74202
1.7424
1.74183
1.74221
1.74164
1.74202
1.74144
1.74182
1.74124
1.74162
1.74104
1.74143
1.74085
1.74124
1.74066
1.74106
1.74048
1.74089
1.74031
1.74072
1.74015
1.74057
1.74
1.74042
1.73986
1.74029
1.73973
1.74016
1.73961
1.74004
1.73948
1.73992
1.73937
1.7398
1.73925
1.73968
1.73913
1.73956
1.73901
1.73944
1.73888
1.73931
1.73874
1.73917
1.7386
1.73903
1.73845
1.73888
1.73828
1.73872
1.73811
1.73855
1.73794
1.73837
1.73775
1.73819
1.73756
1.73801
1.73737
1.73782
1.73717
1.73764
1.73698
1.73745
1.73678
1.73727
1.73659
1.73709
1.73641
1.73692
1.73623
1.73676
1.73607
1.7366
1.73591
1.73646
1.73576
1.73633
1.73563
1.73622
1.73551
1.73612
1.73541
1.73603
1.73533
1.73596
1.73526
1.73591
1.73521
1.73587
1.73517
1.73585
1.73515
1.73585
1.73515
1.73586
1.73517
1.73589
1.73521
1.73593
1.73526
1.73599
1.73532
1.73606
1.7354
1.73615
1.73549
1.73624
1.7356
1.73635
1.73571
1.73646
1.73583
1.73658
1.73595
1.7367
1.73607
1.73682
1.73619
1.73694
1.73631
1.73706
1.73643
1.73717
1.73653
1.73727
1.73663
1.73736
1.73671
1.73743
1.73678
1.73749
1.73683
1.73754
1.73686
1.73757
1.73688
1.73758
1.73689
1.73757
1.73687
1.73755
1.73685
1.73751
1.73681
1.73746
1.73675
1.73739
1.73668
1.73731
1.73661
1.73723
1.73653
1.73713
1.73644
1.73704
1.73635
1.73694
1.73626
1.73684
1.73617
1.73675
1.73609
1.73666
1.73601
1.73658
1.73594
1.73652
1.73589
1.73646
1.73585
1.73643
1.73582
1.73641
1.73581
1.7364
1.73582
1.73642
1.73584
1.73645
1.73589
1.73651
1.73595
1.73658
1.73602
1.73666
1.73611
1.73676
1.73622
1.73688
1.73633
1.737
1.73646
1.73712
1.73658
1.73725
1.73671
1.73737
1.73684
1.73749
1.73696
1.73761
1.73707
1.73771
1.73717
1.7378
1.73725
1.73787
1.73732
1.73793
1.73737
1.73796
1.7374
1.73798
1.73741
1.73797
1.7374
1.73795
1.73727
1.73798
1.73722
1.73791
1.73715
1.73783
1.73706
1.73773
1.73695
1.73761
1.73683
1.73748
1.7367
1.73734
1.73656
1.7372
1.73641
1.73705
1.73626
1.7369
1.7361
1.73675
1.73595
1.7366
1.73581
1.73646
1.73568
1.73633
1.73556
1.73622
1.73545
1.73613
1.73537
1.73606
1.73531
1.73601
1.73528
1.736
1.73528
1.73602
1.73532
1.73608
1.73539
1.73618
1.73551
1.73631
1.73566
1.73649
1.73586
1.73672
1.7361
1.73698
1.73639
1.73729
1.73671
1.73763
1.73707
1.73801
1.73746
1.73843
1.73789
1.73887
1.73834
1.73934
1.73881
1.73982
1.7393
1.74032
1.7398
1.74082
1.7403
1.74132
1.74079
1.74181
1.74126
1.74227
1.7417
1.74269
1.7421
1.74307
1.74245
1.74339
1.74273
1.74363
1.74293
1.74381
1.74306
1.7439
1.74311
1.74391
1.74308
1.74385
1.74298
1.74372
1.74281
1.74353
1.7426
1.74331
1.74236
1.74306
1.7421
1.74281
1.74185
1.74257
1.74162
1.74235
1.74142
1.74218
1.74127
1.74205
1.74116
1.74196
1.74111
1.74193
1.7411
1.74194
1.74113
1.74199
1.7412
1.74205
1.74128
1.74213
1.74137
1.74221
1.74145
1.74227
1.74151
1.74231
1.74154
1.74232
1.74155
1.74231
1.74154
1.74227
1.74151
1.74222
1.74146
1.74216
1.74141
1.74211
1.74138
1.74207
1.74136
1.74205
1.74136
1.74206
1.7414
1.74211
1.74146
1.74218
1.74156
1.74228
1.74168
1.7424
1.74181
1.74254
1.74196
1.74268
1.74211
1.74282
1.74224
1.74295
1.74237
1.74306
1.74246
1.74314
1.74253
1.74319
1.74257
1.74321
1.74257
1.7432
1.74254
1.74315
1.74247
1.74307
1.74237
1.74296
1.74225
1.74283
1.7421
1.74267
1.74194
1.7425
1.74176
1.74232
1.74157
1.74213
1.74137
1.74193
1.74118
1.74174
1.74098
1.74155
1.74079
1.74136
1.74061
1.74118
1.74043
1.74101
1.74027
1.74085
1.74011
1.7407
1.73997
1.74056
1.73983
1.74042
1.7397
1.74029
1.73957
1.74017
1.73945
1.74005
1.73934
1.73994
1.73922
1.73982
1.7391
1.7397
1.73898
1.73958
1.73885
1.73945
1.73871
1.73931
1.73857
1.73917
1.73842
1.73901
1.73825
1.73885
1.73808
1.73869
1.73791
1.73851
1.73772
1.73833
1.73753
1.73815
1.73734
1.73796
1.73714
1.73777
1.73695
1.73759
1.73675
1.7374
1.73656
1.73723
1.73638
1.73706
1.7362
1.73689
1.73603
1.73674
1.73588
1.7366
1.73573
1.73647
1.7356
1.73636
1.73548
1.73626
1.73538
1.73617
1.73529
1.7361
1.73522
1.73605
1.73517
1.73601
1.73513
1.73599
1.73512
1.73599
1.73512
1.736
1.73513
1.73603
1.73517
1.73607
1.73522
1.73613
1.73528
1.7362
1.73536
1.73629
1.73545
1.73638
1.73555
1.73649
1.73566
1.7366
1.73577
1.73672
1.73589
1.73684
1.73601
1.73696
1.73613
1.73707
1.73625
1.73719
1.73636
1.73729
1.73646
1.73739
1.73655
1.73748
1.73663
1.73755
1.73669
1.73761
1.73674
1.73765
1.73677
1.73767
1.73679
1.73768
1.73679
1.73767
1.73677
1.73765
1.73674
1.73761
1.7367
1.73755
1.73664
1.73748
1.73657
1.7374
1.7365
1.73732
1.73641
1.73722
1.73633
1.73712
1.73624
1.73702
1.73615
1.73693
1.73606
1.73683
1.73598
1.73674
1.7359
1.73666
1.73583
1.7366
1.73578
1.73655
1.73574
1.73651
1.73571
1.73649
1.73571
1.73649
1.73571
1.7365
1.73574
1.73654
1.73579
1.73659
1.73585
1.73666
1.73593
1.73675
1.73602
1.73685
1.73612
1.73696
1.73624
1.73708
1.73636
1.73721
1.73649
1.73733
1.73662
1.73746
1.73674
1.73758
1.73686
1.73769
1.73697
1.73779
1.73707
1.73788
1.73716
1.73796
1.73723
1.73801
1.73728
1.73805
1.73731
1.73806
1.73732
1.73805
1.73731
1.73803
1.73717
1.73807
1.73711
1.738
1.73704
1.73792
1.73695
1.73781
1.73684
1.7377
1.73672
1.73757
1.73658
1.73743
1.73644
1.73728
1.73629
1.73713
1.73614
1.73698
1.73599
1.73682
1.73584
1.73668
1.73569
1.73654
1.73556
1.73641
1.73544
1.7363
1.73534
1.73621
1.73525
1.73614
1.73519
1.7361
1.73516
1.73608
1.73517
1.7361
1.7352
1.73616
1.73528
1.73626
1.73539
1.73639
1.73555
1.73657
1.73574
1.7368
1.73598
1.73706
1.73626
1.73736
1.73658
1.73771
1.73694
1.73809
1.73733
1.7385
1.73775
1.73894
1.7382
1.73941
1.73867
1.73989
1.73916
1.74039
1.73965
1.74089
1.74015
1.74139
1.74064
1.74187
1.74111
1.74233
1.74154
1.74276
1.74194
1.74313
1.74228
1.74345
1.74256
1.74369
1.74277
1.74387
1.74289
1.74396
1.74294
1.74397
1.74291
1.7439
1.7428
1.74377
1.74264
1.74359
1.74242
1.74336
1.74218
1.74312
1.74192
1.74287
1.74167
1.74263
1.74144
1.74241
1.74124
1.74224
1.74108
1.74211
1.74098
1.74203
1.74093
1.74199
1.74092
1.74201
1.74095
1.74205
1.74102
1.74212
1.7411
1.7422
1.74119
1.74227
1.74127
1.74234
1.74133
1.74238
1.74137
1.74239
1.74138
1.74238
1.74137
1.74235
1.74134
1.7423
1.7413
1.74225
1.74126
1.7422
1.74123
1.74217
1.74121
1.74215
1.74122
1.74217
1.74126
1.74221
1.74133
1.74229
1.74143
1.74239
1.74155
1.74251
1.74169
1.74265
1.74184
1.74279
1.74199
1.74293
1.74213
1.74306
1.74226
1.74317
1.74236
1.74325
1.74243
1.74331
1.74247
1.74333
1.74247
1.74331
1.74244
1.74327
1.74238
1.74319
1.74228
1.74308
1.74216
1.74295
1.74202
1.7428
1.74186
1.74263
1.74168
1.74245
1.7415
1.74226
1.74131
1.74207
1.74112
1.74188
1.74093
1.74169
1.74074
1.74151
1.74056
1.74133
1.74039
1.74116
1.74023
1.741
1.74008
1.74085
1.73993
1.74071
1.7398
1.74058
1.73967
1.74045
1.73955
1.74033
1.73943
1.74021
1.73931
1.7401
1.7392
1.73998
1.73908
1.73986
1.73895
1.73973
1.73883
1.7396
1.73869
1.73947
1.73855
1.73932
1.73839
1.73917
1.73823
1.73901
1.73806
1.73884
1.73789
1.73867
1.7377
1.73849
1.73751
1.7383
1.73732
1.73811
1.73712
1.73793
1.73693
1.73774
1.73673
1.73756
1.73654
1.73738
1.73636
1.73721
1.73618
1.73705
1.73601
1.7369
1.73585
1.73676
1.73571
1.73663
1.73557
1.73651
1.73545
1.73641
1.73535
1.73633
1.73526
1.73626
1.73519
1.7362
1.73514
1.73617
1.7351
1.73615
1.73508
1.73614
1.73508
1.73616
1.7351
1.73619
1.73513
1.73623
1.73518
1.73629
1.73524
1.73636
1.73532
1.73644
1.73541
1.73654
1.73551
1.73664
1.73561
1.73675
1.73573
1.73686
1.73584
1.73698
1.73596
1.7371
1.73608
1.73721
1.73619
1.73732
1.73629
1.73743
1.73639
1.73752
1.73647
1.7376
1.73655
1.73767
1.73661
1.73772
1.73665
1.73776
1.73668
1.73778
1.73669
1.73779
1.73669
1.73778
1.73667
1.73775
1.73663
1.73771
1.73658
1.73765
1.73652
1.73758
1.73645
1.7375
1.73638
1.73741
1.73629
1.73732
1.7362
1.73722
1.73611
1.73712
1.73602
1.73702
1.73593
1.73692
1.73585
1.73684
1.73578
1.73676
1.73571
1.73669
1.73566
1.73664
1.73562
1.7366
1.7356
1.73658
1.73559
1.73658
1.7356
1.7366
1.73563
1.73663
1.73567
1.73669
1.73574
1.73676
1.73582
1.73685
1.73591
1.73695
1.73601
1.73706
1.73613
1.73718
1.73625
1.7373
1.73638
1.73743
1.73651
1.73755
1.73664
1.73767
1.73676
1.73779
1.73687
1.73789
1.73697
1.73798
1.73705
1.73805
1.73712
1.7381
1.73717
1.73814
1.7372
1.73815
1.73721
1.73815
1.7372
1.73812
1.73705
1.73817
1.73699
1.7381
1.73692
1.73801
1.73683
1.73791
1.73672
1.73779
1.73659
1.73766
1.73646
1.73752
1.73632
1.73737
1.73617
1.73722
1.73601
1.73706
1.73586
1.73691
1.73571
1.73676
1.73557
1.73663
1.73543
1.7365
1.73531
1.73639
1.73521
1.73629
1.73512
1.73623
1.73507
1.73618
1.73503
1.73617
1.73504
1.73619
1.73507
1.73625
1.73515
1.73635
1.73526
1.73648
1.73541
1.73666
1.73561
1.73688
1.73584
1.73714
1.73612
1.73744
1.73643
1.73779
1.73679
1.73816
1.73718
1.73857
1.7376
1.73901
1.73804
1.73948
1.73851
1.73996
1.73899
1.74046
1.73949
1.74096
1.73998
1.74146
1.74047
1.74194
1.74093
1.7424
1.74137
1.74282
1.74176
1.7432
1.7421
1.74351
1.74238
1.74376
1.74258
1.74393
1.74271
1.74402
1.74275
1.74403
1.74271
1.74397
1.74261
1.74384
1.74244
1.74365
1.74223
1.74343
1.74198
1.74318
1.74173
1.74293
1.74147
1.74269
1.74124
1.74248
1.74104
1.7423
1.74088
1.74217
1.74078
1.74209
1.74072
1.74206
1.74071
1.74207
1.74074
1.74211
1.74081
1.74218
1.74089
1.74226
1.74097
1.74233
1.74105
1.7424
1.74112
1.74244
1.74116
1.74245
1.74117
1.74245
1.74116
1.74242
1.74114
1.74237
1.7411
1.74233
1.74107
1.74228
1.74104
1.74225
1.74103
1.74224
1.74105
1.74226
1.74109
1.74231
1.74117
1.74239
1.74127
1.74249
1.7414
1.74262
1.74154
1.74276
1.74169
1.7429
1.74184
1.74304
1.74199
1.74317
1.74211
1.74328
1.74222
1.74337
1.74229
1.74342
1.74233
1.74344
1.74234
1.74343
1.74232
1.74339
1.74226
1.74331
1.74217
1.74321
1.74205
1.74308
1.74192
1.74293
1.74176
1.74277
1.74159
1.74259
1.74141
1.74241
1.74123
1.74222
1.74104
1.74203
1.74086
1.74185
1.74068
1.74167
1.74051
1.74149
1.74034
1.74133
1.74018
1.74117
1.74003
1.74102
1.73989
1.74088
1.73976
1.74075
1.73964
1.74062
1.73952
1.7405
1.7394
1.74039
1.73929
1.74027
1.73917
1.74015
1.73905
1.74003
1.73893
1.73991
1.73881
1.73978
1.73867
1.73964
1.73853
1.7395
1.73838
1.73934
1.73822
1.73918
1.73805
1.73901
1.73787
1.73884
1.73769
1.73866
1.7375
1.73847
1.73731
1.73829
1.73711
1.7381
1.73692
1.73792
1.73672
1.73773
1.73653
1.73756
1.73635
1.73739
1.73617
1.73722
1.736
1.73707
1.73584
1.73693
1.7357
1.7368
1.73556
1.73669
1.73544
1.73659
1.73534
1.7365
1.73525
1.73643
1.73518
1.73638
1.73512
1.73634
1.73509
1.73632
1.73507
1.73632
1.73506
1.73633
1.73508
1.73636
1.73511
1.7364
1.73516
1.73646
1.73522
1.73653
1.73529
1.73661
1.73538
1.7367
1.73547
1.73681
1.73558
1.73691
1.73569
1.73703
1.7358
1.73714
1.73591
1.73726
1.73602
1.73737
1.73613
1.73747
1.73623
1.73757
1.73632
1.73766
1.7364
1.73774
1.73647
1.7378
1.73652
1.73785
1.73656
1.73789
1.73658
1.7379
1.73659
1.73791
1.73658
1.73789
1.73656
1.73786
1.73652
1.73782
1.73647
1.73776
1.7364
1.73769
1.73633
1.7376
1.73625
1.73751
1.73616
1.73742
1.73607
1.73732
1.73598
1.73722
1.73589
1.73712
1.7358
1.73703
1.73571
1.73694
1.73564
1.73686
1.73557
1.73679
1.73552
1.73674
1.73548
1.73671
1.73546
1.73669
1.73546
1.73669
1.73547
1.7367
1.7355
1.73674
1.73555
1.73679
1.73561
1.73687
1.73569
1.73695
1.73579
1.73705
1.73589
1.73716
1.73601
1.73728
1.73613
1.73741
1.73626
1.73753
1.73639
1.73766
1.73652
1.73778
1.73664
1.73789
1.73675
1.73799
1.73685
1.73808
1.73694
1.73815
1.73701
1.73821
1.73706
1.73824
1.73709
1.73825
1.7371
1.73825
1.73708
1.73822
1.73692
1.73828
1.73686
1.73821
1.73678
1.73812
1.73669
1.73801
1.73658
1.73789
1.73645
1.73776
1.73632
1.73762
1.73617
1.73747
1.73602
1.73731
1.73587
1.73716
1.73571
1.73701
1.73556
1.73686
1.73542
1.73672
1.73528
1.73659
1.73516
1.73648
1.73506
1.73639
1.73498
1.73632
1.73492
1.73628
1.73489
1.73627
1.73489
1.73629
1.73492
1.73635
1.735
1.73644
1.73511
1.73658
1.73526
1.73675
1.73545
1.73697
1.73569
1.73723
1.73596
1.73753
1.73627
1.73787
1.73662
1.73825
1.73701
1.73866
1.73742
1.7391
1.73787
1.73956
1.73833
1.74004
1.73881
1.74054
1.7393
1.74103
1.73979
1.74153
1.74028
1.74201
1.74074
1.74247
1.74117
1.74289
1.74156
1.74327
1.7419
1.74358
1.74218
1.74383
1.74238
1.744
1.7425
1.74409
1.74254
1.7441
1.7425
1.74403
1.74239
1.7439
1.74222
1.74372
1.742
1.74349
1.74176
1.74325
1.7415
1.74299
1.74124
1.74275
1.74101
1.74254
1.74081
1.74237
1.74065
1.74224
1.74054
1.74216
1.74048
1.74212
1.74047
1.74213
1.74051
1.74218
1.74057
1.74224
1.74065
1.74232
1.74074
1.7424
1.74082
1.74246
1.74088
1.74251
1.74093
1.74253
1.74095
1.74253
1.74094
1.7425
1.74092
1.74246
1.7409
1.74242
1.74087
1.74238
1.74085
1.74236
1.74085
1.74235
1.74087
1.74238
1.74092
1.74243
1.741
1.74251
1.74111
1.74262
1.74124
1.74275
1.74139
1.74289
1.74154
1.74304
1.7417
1.74318
1.74184
1.74331
1.74197
1.74342
1.74208
1.74351
1.74216
1.74356
1.7422
1.74359
1.74222
1.74358
1.74219
1.74354
1.74214
1.74347
1.74206
1.74337
1.74195
1.74324
1.74182
1.7431
1.74167
1.74294
1.7415
1.74276
1.74133
1.74258
1.74115
1.7424
1.74097
1.74221
1.74079
1.74203
1.74062
1.74186
1.74045
1.74168
1.74029
1.74152
1.74014
1.74137
1.73999
1.74122
1.73986
1.74108
1.73973
1.74095
1.73961
1.74083
1.73949
1.74071
1.73938
1.74059
1.73927
1.74047
1.73915
1.74035
1.73904
1.74023
1.73892
1.74011
1.73879
1.73998
1.73866
1.73984
1.73852
1.73969
1.73837
1.73954
1.73821
1.73938
1.73804
1.73921
1.73787
1.73903
1.73769
1.73885
1.7375
1.73867
1.7373
1.73848
1.73711
1.73829
1.73691
1.73811
1.73672
1.73793
1.73653
1.73775
1.73635
1.73758
1.73617
1.73741
1.736
1.73726
1.73584
1.73712
1.73569
1.73699
1.73556
1.73688
1.73544
1.73678
1.73533
1.73669
1.73524
1.73662
1.73517
1.73657
1.73512
1.73653
1.73508
1.73651
1.73506
1.73651
1.73505
1.73652
1.73506
1.73655
1.73509
1.73659
1.73514
1.73665
1.7352
1.73672
1.73527
1.7368
1.73535
1.73689
1.73544
1.73699
1.73554
1.73709
1.73565
1.7372
1.73576
1.73731
1.73587
1.73743
1.73597
1.73753
1.73608
1.73764
1.73617
1.73773
1.73626
1.73781
1.73633
1.73789
1.73639
1.73795
1.73644
1.73799
1.73647
1.73802
1.73649
1.73803
1.73649
1.73803
1.73647
1.73801
1.73644
1.73798
1.7364
1.73793
1.73634
1.73787
1.73627
1.7378
1.7362
1.73772
1.73611
1.73763
1.73602
1.73753
1.73593
1.73743
1.73583
1.73733
1.73574
1.73723
1.73565
1.73714
1.73556
1.73705
1.73549
1.73698
1.73542
1.73691
1.73537
1.73686
1.73534
1.73683
1.73531
1.73681
1.73531
1.73681
1.73532
1.73683
1.73535
1.73686
1.7354
1.73692
1.73547
1.73699
1.73555
1.73707
1.73565
1.73717
1.73576
1.73728
1.73587
1.7374
1.736
1.73753
1.73613
1.73765
1.73626
1.73778
1.73639
1.7379
1.73651
1.73801
1.73662
1.73811
1.73672
1.7382
1.73681
1.73827
1.73688
1.73832
1.73693
1.73836
1.73696
1.73837
1.73697
1.73836
1.73695
1.73833
1.73677
1.7384
1.73671
1.73833
1.73663
1.73824
1.73654
1.73813
1.73643
1.73801
1.7363
1.73787
1.73616
1.73773
1.73601
1.73758
1.73586
1.73742
1.73571
1.73727
1.73555
1.73711
1.7354
1.73697
1.73525
1.73683
1.73512
1.7367
1.735
1.73659
1.7349
1.7365
1.73481
1.73643
1.73475
1.73639
1.73472
1.73638
1.73472
1.7364
1.73476
1.73645
1.73483
1.73655
1.73494
1.73668
1.73509
1.73686
1.73528
1.73708
1.73551
1.73733
1.73578
1.73763
1.73609
1.73797
1.73644
1.73834
1.73682
1.73875
1.73723
1.73919
1.73767
1.73965
1.73813
1.74013
1.73861
1.74062
1.73909
1.74112
1.73958
1.74161
1.74006
1.74209
1.74052
1.74255
1.74095
1.74297
1.74134
1.74334
1.74168
1.74366
1.74195
1.7439
1.74215
1.74407
1.74227
1.74416
1.74231
1.74417
1.74227
1.74411
1.74216
1.74398
1.74198
1.7438
1.74177
1.74357
1.74152
1.74333
1.74126
1.74308
1.741
1.74284
1.74076
1.74262
1.74056
1.74245
1.7404
1.74231
1.74029
1.74223
1.74023
1.7422
1.74021
1.7422
1.74024
1.74225
1.7403
1.74231
1.74038
1.74239
1.74047
1.74246
1.74055
1.74253
1.74061
1.74257
1.74066
1.74259
1.74068
1.74259
1.74068
1.74257
1.74067
1.74254
1.74064
1.7425
1.74062
1.74247
1.74061
1.74245
1.74061
1.74246
1.74064
1.74249
1.7407
1.74255
1.74079
1.74263
1.7409
1.74274
1.74104
1.74288
1.74119
1.74302
1.74135
1.74317
1.74151
1.74332
1.74166
1.74345
1.7418
1.74356
1.74191
1.74365
1.74199
1.74371
1.74204
1.74373
1.74205
1.74373
1.74204
1.74369
1.74199
1.74362
1.74191
1.74353
1.74181
1.7434
1.74168
1.74326
1.74154
1.74311
1.74138
1.74294
1.74122
1.74276
1.74105
1.74259
1.74088
1.7424
1.7407
1.74223
1.74054
1.74205
1.74037
1.74189
1.74022
1.74173
1.74007
1.74157
1.73994
1.74143
1.73981
1.74129
1.73968
1.74116
1.73957
1.74104
1.73945
1.74092
1.73934
1.7408
1.73924
1.74069
1.73913
1.74057
1.73902
1.74045
1.7389
1.74032
1.73878
1.74019
1.73865
1.74005
1.73851
1.73991
1.73836
1.73975
1.7382
1.73959
1.73804
1.73942
1.73786
1.73925
1.73768
1.73907
1.7375
1.73888
1.73731
1.7387
1.73711
1.73851
1.73692
1.73832
1.73673
1.73814
1.73654
1.73796
1.73635
1.73779
1.73618
1.73763
1.73601
1.73748
1.73585
1.73734
1.7357
1.73721
1.73557
1.73709
1.73545
1.73699
1.73534
1.7369
1.73525
1.73683
1.73517
1.73678
1.73512
1.73674
1.73508
1.73672
1.73505
1.73672
1.73505
1.73673
1.73506
1.73675
1.73509
1.7368
1.73513
1.73685
1.73518
1.73692
1.73525
1.737
1.73533
1.73709
1.73542
1.73719
1.73552
1.73729
1.73562
1.7374
1.73572
1.73751
1.73583
1.73761
1.73593
1.73772
1.73602
1.73781
1.73611
1.7379
1.73619
1.73798
1.73626
1.73805
1.73631
1.7381
1.73635
1.73814
1.73638
1.73817
1.73638
1.73818
1.73638
1.73817
1.73636
1.73815
1.73632
1.73811
1.73627
1.73806
1.73621
1.738
1.73614
1.73793
1.73605
1.73784
1.73596
1.73775
1.73587
1.73766
1.73577
1.73756
1.73567
1.73746
1.73558
1.73736
1.73549
1.73727
1.7354
1.73718
1.73533
1.7371
1.73526
1.73704
1.73521
1.73699
1.73517
1.73696
1.73515
1.73694
1.73515
1.73694
1.73516
1.73696
1.73519
1.737
1.73524
1.73705
1.73531
1.73712
1.73539
1.73721
1.73549
1.73731
1.7356
1.73742
1.73572
1.73754
1.73585
1.73766
1.73598
1.73779
1.73611
1.73791
1.73624
1.73803
1.73636
1.73814
1.73648
1.73824
1.73658
1.73833
1.73666
1.7384
1.73673
1.73845
1.73678
1.73849
1.73681
1.7385
1.73682
1.73849
1.73681
1.73846
1.73661
1.73854
1.73655
1.73847
1.73647
1.73837
1.73637
1.73826
1.73626
1.73814
1.73613
1.738
1.73599
1.73785
1.73584
1.7377
1.73568
1.73754
1.73553
1.73739
1.73537
1.73723
1.73522
1.73708
1.73507
1.73694
1.73494
1.73682
1.73482
1.73671
1.73471
1.73662
1.73463
1.73655
1.73457
1.73651
1.73454
1.73649
1.73454
1.73652
1.73457
1.73657
1.73464
1.73667
1.73475
1.7368
1.7349
1.73697
1.73509
1.73719
1.73531
1.73745
1.73558
1.73774
1.73589
1.73808
1.73623
1.73845
1.73661
1.73885
1.73701
1.73928
1.73745
1.73974
1.73791
1.74022
1.73838
1.74071
1.73887
1.74121
1.73935
1.7417
1.73983
1.74218
1.74029
1.74264
1.74071
1.74306
1.7411
1.74343
1.74143
1.74374
1.7417
1.74399
1.7419
1.74416
1.74201
1.74425
1.74205
1.74426
1.74201
1.74419
1.74189
1.74406
1.74172
1.74387
1.74149
1.74365
1.74124
1.7434
1.74098
1.74315
1.74071
1.74291
1.74048
1.74269
1.74027
1.74252
1.74011
1.74239
1.74
1.7423
1.73993
1.74227
1.73992
1.74227
1.73995
1.74232
1.74001
1.74238
1.74008
1.74246
1.74017
1.74253
1.74025
1.7426
1.74032
1.74265
1.74037
1.74268
1.7404
1.74268
1.7404
1.74267
1.7404
1.74264
1.74038
1.74261
1.74037
1.74259
1.74037
1.74258
1.74038
1.74259
1.74042
1.74263
1.74049
1.74269
1.74058
1.74278
1.7407
1.7429
1.74084
1.74304
1.741
1.74319
1.74116
1.74334
1.74133
1.74348
1.74148
1.74362
1.74162
1.74373
1.74173
1.74383
1.74182
1.74389
1.74187
1.74392
1.74189
1.74391
1.74188
1.74388
1.74184