# vtk DataFile Version 2.0
LBE two cylinders
ASCII
DATASET STRUCTURED_POINTS
DIMENSIONS 400 100 1
ASPECT_RATIO 1 1 1
ORIGIN 0 0 0
POINT_DATA 40000
SCALARS rho double 1
LOOKUP_TABLE default
1.59697
1.59711
1.59724
1.59737
1.5975
1.59764
1.59779
1.59798
1.59823
1.59856
1.599
1.59957
1.60033
1.6013
1.60251
1.604
1.60577
1.60781
1.61007
1.6125
1.61498
1.61738
1.61959
1.62145
1.6229
1.62386
1.62435
1.62439
1.62406
1.62345
1.62267
1.62178
1.62088
1.62002
1.61923
1.61854
1.61796
1.61749
1.61713
1.61688
1.61672
1.61667
1.61671
1.61685
1.61708
1.6174
1.61781
1.6183
1.61887
1.61951
1.62021
1.62095
1.62173
1.62253
1.62333
1.62411
1.62486
1.62557
1.62621
1.62676
1.62723
1.62758
1.62782
1.62794
1.62793
1.62778
1.62751
1.62711
1.62659
1.62596
1.62523
1.6244
1.62349
1.62251
1.62147
1.62039
1.61928
1.61815
1.61702
1.61589
1.61478
1.61369
1.61264
1.61164
1.61068
1.60979
1.60896
1.6082
1.60751
1.6069
1.60636
1.60591
1.60554
1.60526
1.60506
1.60495
1.60492
1.60498
1.60512
1.60535
1.60567
1.60606
1.60653
1.60708
1.60769
1.60838
1.60913
1.60993
1.61078
1.61168
1.61262
1.61358
1.61457
1.61558
1.61659
1.61761
1.61862
1.61963
1.62062
1.62159
1.62254
1.62347
1.62437
1.62525
1.6261
1.62692
1.62771
1.62847
1.62921
1.62992
1.63061
1.63127
1.6319
1.63252
1.63311
1.63369
1.63424
1.63477
1.63529
1.63579
1.63627
1.63674
1.6372
1.63764
1.63807
1.63849
1.6389
1.6393
1.63969
1.64006
1.64042
1.64077
1.64111
1.64142
1.64172
1.64199
1.64223
1.64244
1.64261
1.64275
1.64283
1.64287
1.64284
1.64276
1.6426
1.64237
1.64206
1.64167
1.64119
1.64063
1.63997
1.63923
1.6384
1.63749
1.6365
1.63546
1.63436
1.63322
1.63205
1.63088
1.62971
1.62858
1.62748
1.62645
1.62549
1.62462
1.62384
1.62318
1.62263
1.62222
1.62194
1.62183
1.62187
1.62208
1.62247
1.62302
1.6237
1.62449
1.62531
1.62609
1.62672
1.62708
1.62704
1.6265
1.62538
1.62367
1.6214
1.61868
1.61566
1.6125
1.60938
1.60643
1.60375
1.6014
1.5994
1.59772
1.59636
1.59526
1.59439
1.59371
1.59317
1.59276
1.59245
1.5922
1.59202
1.59187
1.59176
1.59168
1.59161
1.59156
1.59151
1.59148
1.59144
1.59141
1.59138
1.59136
1.59133
1.5913
1.59127
1.59123
1.59119
1.59115
1.5911
1.59104
1.59097
1.59089
1.5908
1.59069
1.59057
1.59044
1.59029
1.59013
1.58995
1.58976
1.58955
1.58933
1.5891
1.58886
1.58862
1.58837
1.58812
1.58786
1.58761
1.58736
1.58712
1.58688
1.58666
1.58645
1.58625
1.58606
1.58589
1.58574
1.5856
1.58549
1.58539
1.58531
1.58524
1.5852
1.58517
1.58516
1.58517
1.58519
1.58523
1.58529
1.58536
1.58545
1.58554
1.58566
1.58578
1.58592
1.58606
1.58621
1.58638
1.58654
1.58671
1.58689
1.58706
1.58724
1.58741
1.58757
1.58773
1.58789
1.58803
1.58816
1.58828
1.58838
1.58847
1.58854
1.58859
1.58863
1.58865
1.58865
1.58862
1.58858
1.58853
1.58845
1.58835
1.58824
1.58812
1.58798
1.58783
1.58766
1.58749
1.58732
1.58714
1.58696
1.58678
1.58661
1.58644
1.58629
1.58615
1.58602
1.58592
1.58583
1.58577
1.58573
1.58572
1.58573
1.58576
1.58583
1.58591
1.58602
1.58615
1.5863
1.58646
1.58664
1.58683
1.58702
1.58721
1.5874
1.5876
1.58778
1.58796
1.58813
1.58829
1.58845
1.58859
1.58872
1.58885
1.58897
1.58909
1.58921
1.58934
1.58947
1.58961
1.58978
1.58996
1.59017
1.5904
1.59066
1.59095
1.59127
1.5916
1.59196
1.59232
1.59268
1.59303
1.59336
1.59366
1.59394
1.59418
1.59438
1.59455
1.5947
1.59482
1.59492
1.59502
1.59511
1.59521
1.59531
1.59542
1.59554
1.59568
1.59583
1.59598
1.59615
1.59632
1.59649
1.59665
1.59682
1.59698
1.59713
1.59726
1.5974
1.59753
1.59768
1.59784
1.59805
1.59831
1.59866
1.59911
1.59972
1.6005
1.6015
1.60274
1.60424
1.60602
1.60805
1.6103
1.61267
1.61508
1.61739
1.6195
1.62127
1.62265
1.62357
1.62404
1.6241
1.62381
1.62325
1.62252
1.62169
1.62083
1.62
1.61924
1.61856
1.61799
1.61753
1.61717
1.61692
1.61677
1.61672
1.61676
1.6169
1.61713
1.61745
1.61786
1.61835
1.61891
1.61954
1.62023
1.62096
1.62173
1.62251
1.6233
1.62407
1.62481
1.62549
1.62612
1.62666
1.62711
1.62745
1.62768
1.62778
1.62776
1.62761
1.62734
1.62694
1.62642
1.62579
1.62506
1.62423
1.62333
1.62236
1.62133
1.62026
1.61915
1.61803
1.6169
1.61578
1.61468
1.6136
1.61255
1.61156
1.61061
1.60972
1.6089
1.60814
1.60746
1.60686
1.60633
1.60589
1.60553
1.60525
1.60506
1.60496
1.60495
1.60502
1.60517
1.60541
1.60573
1.60614
1.60661
1.60717
1.60779
1.60848
1.60923
1.61003
1.61088
1.61178
1.61271
1.61367
1.61465
1.61564
1.61665
1.61765
1.61865
1.61965
1.62062
1.62158
1.62252
1.62344
1.62432
1.62518
1.62602
1.62682
1.6276
1.62835
1.62907
1.62977
1.63044
1.63109
1.63172
1.63232
1.63291
1.63347
1.63402
1.63455
1.63507
1.63557
1.63605
1.63652
1.63698
1.63743
1.63786
1.63829
1.6387
1.63911
1.6395
1.63989
1.64026
1.64061
1.64095
1.64127
1.64157
1.64185
1.64209
1.64231
1.64248
1.64262
1.64271
1.64274
1.64272
1.64264
1.64248
1.64226
1.64195
1.64157
1.64109
1.64054
1.63989
1.63916
1.63833
1.63744
1.63647
1.63544
1.63435
1.63323
1.63208
1.63093
1.62978
1.62866
1.62758
1.62656
1.62561
1.62474
1.62397
1.62331
1.62276
1.62235
1.62207
1.62195
1.62198
1.62218
1.62254
1.62306
1.62371
1.62445
1.62521
1.62593
1.62649
1.62679
1.62671
1.62617
1.62508
1.62344
1.62127
1.61867
1.61576
1.6127
1.60963
1.60672
1.60404
1.60167
1.59964
1.59793
1.59653
1.5954
1.5945
1.59379
1.59323
1.5928
1.59247
1.59222
1.59202
1.59187
1.59176
1.59166
1.59159
1.59154
1.59149
1.59145
1.59142
1.59139
1.59136
1.59134
1.59131
1.59128
1.59125
1.59122
1.59118
1.59113
1.59109
1.59103
1.59096
1.59088
1.59079
1.59069
1.59058
1.59044
1.5903
1.59014
1.58996
1.58977
1.58957
1.58935
1.58913
1.58889
1.58865
1.5884
1.58815
1.5879
1.58765
1.58741
1.58717
1.58694
1.58671
1.5865
1.5863
1.58612
1.58595
1.5858
1.58566
1.58554
1.58544
1.58536
1.58529
1.58525
1.58522
1.5852
1.58521
1.58523
1.58527
1.58532
1.58539
1.58547
1.58557
1.58568
1.5858
1.58593
1.58607
1.58623
1.58638
1.58655
1.58672
1.58689
1.58706
1.58723
1.5874
1.58757
1.58773
1.58788
1.58802
1.58815
1.58826
1.58837
1.58846
1.58853
1.58858
1.58861
1.58863
1.58863
1.58861
1.58857
1.58851
1.58843
1.58834
1.58823
1.5881
1.58796
1.58781
1.58765
1.58749
1.58731
1.58714
1.58696
1.58678
1.58662
1.58645
1.5863
1.58617
1.58604
1.58594
1.58586
1.5858
1.58576
1.58575
1.58577
1.58581
1.58587
1.58596
1.58607
1.5862
1.58635
1.58651
1.58668
1.58687
1.58706
1.58725
1.58744
1.58763
1.58782
1.588
1.58817
1.58833
1.58848
1.58863
1.58876
1.58889
1.58901
1.58913
1.58925
1.58938
1.58951
1.58966
1.58983
1.59001
1.59022
1.59046
1.59072
1.59101
1.59132
1.59165
1.592
1.59235
1.59271
1.59305
1.59337
1.59367
1.59394
1.59417
1.59438
1.59455
1.5947
1.59482
1.59493
1.59503
1.59512
1.59522
1.59533
1.59544
1.59556
1.5957
1.59585
1.596
1.59617
1.59634
1.59651
1.59667
1.59683
1.59702
1.59717
1.5973
1.59744
1.59758
1.59773
1.5979
1.59812
1.59839
1.59876
1.59923
1.59985
1.60065
1.60167
1.60293
1.60446
1.60624
1.60827
1.6105
1.61283
1.61519
1.61744
1.61947
1.62117
1.62248
1.62336
1.62381
1.62387
1.6236
1.62308
1.62238
1.62159
1.62077
1.61996
1.61922
1.61856
1.61801
1.61755
1.6172
1.61695
1.61681
1.61676
1.6168
1.61694
1.61717
1.61749
1.61789
1.61838
1.61893
1.61956
1.62023
1.62096
1.62171
1.62248
1.62325
1.624
1.62472
1.62539
1.62599
1.62652
1.62695
1.62727
1.62749
1.62758
1.62755
1.62739
1.62711
1.6267
1.62618
1.62555
1.62482
1.624
1.6231
1.62213
1.62111
1.62004
1.61894
1.61783
1.61671
1.61559
1.61449
1.61342
1.61238
1.61139
1.61044
1.60956
1.60874
1.608
1.60732
1.60673
1.60621
1.60578
1.60543
1.60517
1.605
1.60491
1.60491
1.605
1.60517
1.60543
1.60577
1.60619
1.60668
1.60725
1.60789
1.60859
1.60934
1.61016
1.61101
1.61191
1.61284
1.61379
1.61477
1.61575
1.61674
1.61774
1.61872
1.61969
1.62064
1.62158
1.62249
1.62337
1.62423
1.62506
1.62587
1.62664
1.62739
1.62811
1.6288
1.62948
1.63012
1.63075
1.63136
1.63195
1.63252
1.63308
1.63362
1.63414
1.63465
1.63515
1.63564
1.63612
1.63658
1.63704
1.63748
1.63792
1.63835
1.63877
1.63918
1.63958
1.63996
1.64033
1.64068
1.64102
1.64133
1.64162
1.64187
1.6421
1.64228
1.64242
1.64252
1.64256
1.64254
1.64247
1.64232
1.64211
1.64181
1.64143
1.64097
1.64042
1.63978
1.63906
1.63826
1.63738
1.63642
1.63541
1.63434
1.63325
1.63211
1.63099
1.62986
1.62876
1.6277
1.62669
1.62575
1.6249
1.62413
1.62347
1.62292
1.6225
1.62221
1.62208
1.62209
1.62227
1.62261
1.6231
1.62371
1.62441
1.62513
1.6258
1.62632
1.62659
1.6265
1.62597
1.62492
1.62335
1.62126
1.61874
1.6159
1.61289
1.60986
1.60696
1.60427
1.60189
1.59983
1.59809
1.59666
1.5955
1.59457
1.59384
1.59326
1.59282
1.59247
1.5922
1.592
1.59184
1.59172
1.59163
1.59156
1.5915
1.59145
1.59141
1.59138
1.59135
1.59133
1.5913
1.59128
1.59125
1.59123
1.5912
1.59116
1.59112
1.59108
1.59102
1.59096
1.59089
1.5908
1.5907
1.59059
1.59047
1.59033
1.59017
1.59
1.58981
1.58962
1.5894
1.58919
1.58895
1.58872
1.58847
1.58823
1.58798
1.58774
1.58749
1.58726
1.58703
1.58681
1.5866
1.5864
1.58622
1.58605
1.5859
1.58576
1.58564
1.58554
1.58545
1.58538
1.58533
1.5853
1.58528
1.58528
1.5853
1.58534
1.58538
1.58545
1.58553
1.58562
1.58572
1.58584
1.58597
1.58611
1.58626
1.58641
1.58657
1.58674
1.5869
1.58707
1.58724
1.58741
1.58757
1.58773
1.58788
1.58802
1.58814
1.58826
1.58836
1.58845
1.58852
1.58857
1.5886
1.58862
1.58862
1.58859
1.58855
1.5885
1.58842
1.58833
1.58822
1.58809
1.58796
1.58781
1.58765
1.58748
1.58731
1.58714
1.58697
1.5868
1.58663
1.58648
1.58633
1.5862
1.58608
1.58598
1.5859
1.58585
1.58582
1.58581
1.58583
1.58587
1.58594
1.58603
1.58614
1.58627
1.58642
1.58658
1.58676
1.58694
1.58713
1.58733
1.58752
1.58771
1.58789
1.58807
1.58824
1.58841
1.58856
1.5887
1.58884
1.58896
1.58909
1.58921
1.58933
1.58946
1.5896
1.58975
1.58991
1.5901
1.59031
1.59054
1.59081
1.59109
1.5914
1.59173
1.59208
1.59242
1.59277
1.5931
1.59342
1.59371
1.59397
1.5942
1.5944
1.59457
1.59472
1.59485
1.59496
1.59506
1.59516
1.59526
1.59537
1.59548
1.59561
1.59574
1.59589
1.59604
1.59621
1.59637
1.59654
1.59671
1.59687
1.59707
1.59722
1.59736
1.5975
1.59764
1.5978
1.59798
1.59821
1.59849
1.59887
1.59936
1.6
1.60082
1.60186
1.60313
1.60466
1.60645
1.60846
1.61066
1.61295
1.61525
1.61743
1.61939
1.62103
1.6223
1.62315
1.6236
1.62367
1.62343
1.62294
1.62229
1.62153
1.62074
1.61996
1.61925
1.6186
1.61805
1.6176
1.61726
1.61701
1.61687
1.61682
1.61686
1.617
1.61723
1.61754
1.61794
1.61841
1.61895
1.61956
1.62022
1.62093
1.62166
1.62241
1.62316
1.62389
1.62459
1.62524
1.62582
1.62633
1.62674
1.62705
1.62724
1.62732
1.62728
1.62711
1.62682
1.62641
1.62588
1.62525
1.62452
1.6237
1.6228
1.62184
1.62082
1.61976
1.61866
1.61755
1.61643
1.61532
1.61422
1.61315
1.61212
1.61113
1.61019
1.60932
1.60851
1.60777
1.60711
1.60652
1.60602
1.60561
1.60528
1.60504
1.60489
1.60483
1.60486
1.60497
1.60517
1.60546
1.60582
1.60626
1.60678
1.60737
1.60802
1.60873
1.6095
1.61032
1.61118
1.61207
1.613
1.61394
1.61491
1.61588
1.61685
1.61782
1.61877
1.61971
1.62064
1.62154
1.62241
1.62326
1.62407
1.62486
1.62562
1.62636
1.62706
1.62775
1.6284
1.62904
1.62966
1.63026
1.63084
1.63141
1.63196
1.6325
1.63303
1.63355
1.63406
1.63456
1.63505
1.63554
1.63601
1.63649
1.63695
1.63741
1.63785
1.6383
1.63872
1.63915
1.63955
1.63994
1.64031
1.64067
1.641
1.6413
1.64157
1.64181
1.64201
1.64217
1.64227
1.64233
1.64232
1.64225
1.64211
1.64191
1.64162
1.64126
1.6408
1.64027
1.63964
1.63894
1.63814
1.63729
1.63635
1.63536
1.63431
1.63324
1.63214
1.63104
1.62994
1.62887
1.62783
1.62685
1.62592
1.62508
1.62432
1.62367
1.62312
1.6227
1.6224
1.62225
1.62225
1.62242
1.62273
1.62319
1.62377
1.62444
1.62511
1.62574
1.62622
1.62645
1.62634
1.6258
1.62477
1.62324
1.62121
1.61876
1.61598
1.61303
1.61005
1.60716
1.60448
1.60208
1.6
1.59824
1.59678
1.59559
1.59464
1.59388
1.59328
1.59282
1.59246
1.59218
1.59197
1.5918
1.59167
1.59157
1.5915
1.59144
1.59139
1.59135
1.59133
1.5913
1.59128
1.59126
1.59124
1.59122
1.5912
1.59117
1.59115
1.59111
1.59108
1.59103
1.59097
1.5909
1.59082
1.59073
1.59063
1.5905
1.59037
1.59022
1.59006
1.58988
1.58969
1.58948
1.58927
1.58904
1.58881
1.58857
1.58834
1.58809
1.58785
1.58761
1.58738
1.58716
1.58694
1.58673
1.58654
1.58635
1.58619
1.58603
1.58589
1.58577
1.58567
1.58558
1.58551
1.58545
1.58542
1.5854
1.58539
1.58541
1.58544
1.58548
1.58554
1.58561
1.5857
1.5858
1.58591
1.58603
1.58617
1.58631
1.58646
1.58661
1.58677
1.58694
1.5871
1.58727
1.58743
1.58759
1.58774
1.58789
1.58802
1.58815
1.58826
1.58836
1.58844
1.58851
1.58856
1.58859
1.58861
1.5886
1.58858
1.58854
1.58848
1.58841
1.58832
1.58821
1.58809
1.58795
1.58781
1.58765
1.58749
1.58733
1.58716
1.58699
1.58682
1.58666
1.58651
1.58637
1.58624
1.58613
1.58604
1.58597
1.58592
1.58589
1.58589
1.58591
1.58596
1.58603
1.58612
1.58624
1.58637
1.58652
1.58669
1.58686
1.58705
1.58724
1.58743
1.58763
1.58782
1.588
1.58818
1.58835
1.58852
1.58867
1.58881
1.58895
1.58908
1.5892
1.58933
1.58945
1.58958
1.58972
1.58987
1.59004
1.59023
1.59044
1.59067
1.59093
1.59122
1.59152
1.59184
1.59218
1.59252
1.59285
1.59318
1.59348
1.59377
1.59403
1.59425
1.59445
1.59462
1.59477
1.5949
1.59502
1.59512
1.59522
1.59532
1.59543
1.59554
1.59567
1.5958
1.59595
1.5961
1.59626
1.59642
1.5966
1.59675
1.59692
1.59713
1.59728
1.59742
1.59757
1.59771
1.59788
1.59807
1.59831
1.5986
1.599
1.5995
1.60016
1.601
1.60205
1.60334
1.60488
1.60666
1.60866
1.61082
1.61307
1.6153
1.6174
1.61929
1.62086
1.62208
1.6229
1.62334
1.62343
1.62323
1.62279
1.62219
1.62148
1.62073
1.61999
1.61929
1.61866
1.61813
1.61768
1.61734
1.6171
1.61695
1.6169
1.61694
1.61707
1.61729
1.61759
1.61798
1.61844
1.61897
1.61955
1.6202
1.62088
1.62159
1.62231
1.62304
1.62374
1.62441
1.62504
1.6256
1.62608
1.62646
1.62675
1.62693
1.62699
1.62693
1.62675
1.62645
1.62603
1.6255
1.62487
1.62414
1.62333
1.62243
1.62147
1.62046
1.6194
1.61832
1.61721
1.6161
1.61499
1.6139
1.61284
1.61181
1.61083
1.60989
1.60903
1.60822
1.6075
1.60684
1.60627
1.60579
1.60539
1.60508
1.60487
1.60474
1.6047
1.60475
1.6049
1.60512
1.60544
1.60583
1.6063
1.60684
1.60746
1.60813
1.60887
1.60965
1.61049
1.61135
1.61226
1.61318
1.61412
1.61507
1.61602
1.61697
1.61791
1.61884
1.61974
1.62062
1.62148
1.6223
1.6231
1.62386
1.6246
1.62531
1.62599
1.62665
1.62728
1.62789
1.62848
1.62906
1.62962
1.63017
1.63071
1.63124
1.63177
1.63228
1.6328
1.6333
1.63381
1.6343
1.6348
1.63529
1.63578
1.63627
1.63675
1.63722
1.63769
1.63814
1.63859
1.63902
1.63944
1.63984
1.64022
1.64057
1.6409
1.64119
1.64145
1.64166
1.64183
1.64195
1.64202
1.64202
1.64197
1.64184
1.64165
1.64137
1.64103
1.64058
1.64007
1.63945
1.63877
1.63799
1.63716
1.63624
1.63529
1.63427
1.63323
1.63216
1.63109
1.63002
1.62899
1.62798
1.62703
1.62613
1.62531
1.62456
1.62392
1.62337
1.62294
1.62264
1.62248
1.62247
1.62261
1.6229
1.62333
1.62388
1.6245
1.62513
1.6257
1.62612
1.62631
1.62616
1.62562
1.62461
1.62311
1.62115
1.61877
1.61607
1.61318
1.61023
1.60737
1.60469
1.60228
1.60018
1.59838
1.5969
1.59567
1.59469
1.59391
1.59329
1.59281
1.59243
1.59214
1.59192
1.59174
1.59161
1.5915
1.59143
1.59136
1.59132
1.59128
1.59126
1.59124
1.59122
1.59121
1.5912
1.59118
1.59117
1.59115
1.59114
1.59111
1.59108
1.59103
1.59099
1.59093
1.59086
1.59077
1.59068
1.59056
1.59044
1.59029
1.59014
1.58996
1.58978
1.58958
1.58938
1.58916
1.58894
1.58871
1.58848
1.58824
1.58801
1.58777
1.58754
1.58732
1.58711
1.5869
1.58671
1.58653
1.58636
1.58621
1.58607
1.58594
1.58584
1.58575
1.58567
1.58561
1.58557
1.58555
1.58554
1.58555
1.58557
1.58561
1.58566
1.58572
1.5858
1.5859
1.586
1.58612
1.58625
1.58638
1.58653
1.58668
1.58683
1.58699
1.58715
1.58731
1.58746
1.58762
1.58776
1.5879
1.58804
1.58816
1.58826
1.58836
1.58844
1.5885
1.58855
1.58858
1.5886
1.58859
1.58857
1.58853
1.58847
1.5884
1.58831
1.5882
1.58808
1.58795
1.58781
1.58766
1.58751
1.58734
1.58718
1.58702
1.58686
1.58671
1.58656
1.58643
1.58631
1.5862
1.58612
1.58605
1.58601
1.58599
1.58599
1.58602
1.58607
1.58615
1.58624
1.58636
1.5865
1.58665
1.58682
1.587
1.58719
1.58738
1.58757
1.58777
1.58796
1.58815
1.58833
1.5885
1.58866
1.58882
1.58896
1.5891
1.58923
1.58936
1.58948
1.58961
1.58974
1.58988
1.59003
1.5902
1.59039
1.5906
1.59084
1.5911
1.59137
1.59168
1.59199
1.59232
1.59264
1.59297
1.59328
1.59358
1.59385
1.5941
1.59432
1.59452
1.59469
1.59485
1.59497
1.59509
1.5952
1.59531
1.5954
1.59552
1.59563
1.59576
1.59588
1.59603
1.59617
1.59634
1.59649
1.59666
1.59681
1.59698
1.5972
1.59735
1.59749
1.59765
1.59779
1.59798
1.59817
1.59842
1.59873
1.59914
1.59965
1.60034
1.60118
1.60225
1.60354
1.60509
1.60686
1.60884
1.61096
1.61315
1.61532
1.61735
1.61917
1.62067
1.62185
1.62264
1.62309
1.6232
1.62304
1.62265
1.6221
1.62143
1.62073
1.62002
1.61936
1.61875
1.61822
1.61779
1.61745
1.6172
1.61706
1.617
1.61704
1.61716
1.61737
1.61766
1.61803
1.61847
1.61898
1.61954
1.62016
1.62081
1.6215
1.62219
1.62288
1.62356
1.6242
1.62479
1.62532
1.62578
1.62614
1.6264
1.62656
1.6266
1.62652
1.62633
1.62602
1.6256
1.62506
1.62443
1.6237
1.62289
1.622
1.62104
1.62003
1.61898
1.6179
1.6168
1.61569
1.61459
1.61351
1.61245
1.61142
1.61045
1.60953
1.60867
1.60788
1.60716
1.60653
1.60598
1.60551
1.60514
1.60486
1.60468
1.60458
1.60458
1.60467
1.60485
1.60511
1.60546
1.60588
1.60638
1.60695
1.60759
1.60829
1.60904
1.60983
1.61067
1.61154
1.61244
1.61335
1.61428
1.61521
1.61615
1.61706
1.61797
1.61886
1.61972
1.62055
1.62136
1.62213
1.62288
1.62358
1.62427
1.62491
1.62554
1.62614
1.62672
1.62727
1.62782
1.62835
1.62887
1.62938
1.62989
1.6304
1.6309
1.6314
1.63191
1.63241
1.63292
1.63342
1.63393
1.63444
1.63495
1.63545
1.63596
1.63646
1.63696
1.63744
1.63793
1.63839
1.63884
1.63926
1.63968
1.64005
1.64041
1.64072
1.641
1.64123
1.64143
1.64156
1.64165
1.64166
1.64163
1.64151
1.64134
1.64107
1.64074
1.64031
1.63982
1.63922
1.63856
1.63781
1.637
1.63611
1.63518
1.6342
1.6332
1.63217
1.63114
1.63011
1.62912
1.62814
1.62723
1.62635
1.62556
1.62483
1.6242
1.62365
1.62323
1.62292
1.62275
1.62271
1.62284
1.6231
1.6235
1.624
1.62458
1.62516
1.62568
1.62605
1.62619
1.62601
1.62545
1.62445
1.62299
1.62108
1.61876
1.61613
1.6133
1.6104
1.60756
1.60489
1.60247
1.60035
1.59853
1.59701
1.59576
1.59475
1.59394
1.5933
1.59279
1.5924
1.59209
1.59186
1.59167
1.59153
1.59142
1.59135
1.59128
1.59124
1.59121
1.59119
1.59117
1.59116
1.59115
1.59115
1.59115
1.59115
1.59113
1.59113
1.59111
1.59109
1.59105
1.59102
1.59096
1.59091
1.59083
1.59074
1.59063
1.59052
1.59038
1.59024
1.59007
1.5899
1.58971
1.58952
1.58931
1.58909
1.58887
1.58865
1.58841
1.58819
1.58796
1.58774
1.58752
1.58731
1.58711
1.58692
1.58674
1.58657
1.58642
1.58628
1.58615
1.58605
1.58595
1.58587
1.58581
1.58576
1.58573
1.58572
1.58572
1.58573
1.58576
1.58581
1.58587
1.58594
1.58603
1.58612
1.58623
1.58635
1.58648
1.58662
1.58676
1.5869
1.58705
1.58721
1.58736
1.58751
1.58765
1.5878
1.58793
1.58806
1.58817
1.58827
1.58837
1.58844
1.5885
1.58855
1.58858
1.58859
1.58858
1.58856
1.58852
1.58846
1.58839
1.5883
1.5882
1.58809
1.58796
1.58782
1.58768
1.58753
1.58737
1.58722
1.58706
1.58691
1.58677
1.58663
1.5865
1.58639
1.5863
1.58622
1.58616
1.58613
1.58611
1.58612
1.58616
1.58621
1.58629
1.5864
1.58652
1.58666
1.58682
1.58699
1.58717
1.58735
1.58755
1.58774
1.58794
1.58813
1.58832
1.5885
1.58867
1.58884
1.58899
1.58914
1.58928
1.58941
1.58954
1.58967
1.5898
1.58993
1.59007
1.59023
1.5904
1.59059
1.5908
1.59103
1.59129
1.59157
1.59186
1.59217
1.59248
1.59279
1.59311
1.59341
1.59369
1.59395
1.5942
1.59441
1.59462
1.59478
1.59494
1.59507
1.5952
1.5953
1.59541
1.59551
1.59563
1.59573
1.59586
1.59598
1.59613
1.59626
1.59642
1.59657
1.59674
1.59689
1.59705
1.59727
1.59744
1.59757
1.59773
1.59788
1.59808
1.59827
1.59854
1.59886
1.59929
1.59981
1.60051
1.60137
1.60246
1.60375
1.6053
1.60706
1.60901
1.61109
1.61323
1.61532
1.61728
1.61902
1.62046
1.62159
1.62237
1.62282
1.62296
1.62284
1.6225
1.622
1.62139
1.62074
1.62007
1.61943
1.61884
1.61833
1.6179
1.61757
1.61732
1.61718
1.61711
1.61714
1.61725
1.61745
1.61772
1.61807
1.61849
1.61897
1.6195
1.62009
1.62071
1.62136
1.62202
1.62268
1.62332
1.62392
1.62448
1.62498
1.62541
1.62574
1.62598
1.62611
1.62613
1.62604
1.62584
1.62552
1.62509
1.62455
1.62392
1.62319
1.62238
1.6215
1.62055
1.61955
1.61851
1.61743
1.61635
1.61525
1.61416
1.61308
1.61203
1.61102
1.61005
1.60914
1.6083
1.60752
1.60682
1.6062
1.60567
1.60522
1.60488
1.60462
1.60446
1.60439
1.60442
1.60454
1.60475
1.60504
1.60543
1.60588
1.60642
1.60702
1.60769
1.60841
1.60918
1.61
1.61085
1.61173
1.61263
1.61354
1.61446
1.61537
1.61628
1.61717
1.61804
1.61888
1.6197
1.62047
1.62123
1.62193
1.62262
1.62326
1.62388
1.62446
1.62502
1.62555
1.62608
1.62657
1.62707
1.62754
1.62803
1.62849
1.62897
1.62944
1.62993
1.63041
1.63091
1.6314
1.63191
1.63242
1.63294
1.63346
1.63399
1.63452
1.63506
1.63558
1.63612
1.63663
1.63715
1.63764
1.63813
1.63859
1.63903
1.63943
1.63982
1.64016
1.64047
1.64072
1.64094
1.64109
1.6412
1.64123
1.64122
1.64111
1.64096
1.64071
1.6404
1.63999
1.63951
1.63894
1.6383
1.63758
1.6368
1.63594
1.63505
1.63411
1.63315
1.63216
1.63118
1.63019
1.62925
1.62831
1.62743
1.62659
1.62582
1.62512
1.6245
1.62396
1.62354
1.62322
1.62304
1.62299
1.62309
1.62333
1.6237
1.62416
1.62469
1.62521
1.62568
1.62599
1.62608
1.62586
1.62529
1.62429
1.62286
1.621
1.61875
1.61618
1.61341
1.61056
1.60775
1.60509
1.60266
1.60053
1.59868
1.59713
1.59585
1.59481
1.59397
1.59331
1.59278
1.59237
1.59204
1.5918
1.5916
1.59146
1.59134
1.59126
1.5912
1.59116
1.59113
1.59112
1.5911
1.59111
1.5911
1.59111
1.59111
1.59113
1.59112
1.59113
1.59112
1.59111
1.59109
1.59106
1.59102
1.59097
1.5909
1.59083
1.59073
1.59063
1.5905
1.59037
1.59021
1.59005
1.58987
1.58968
1.58948
1.58928
1.58906
1.58885
1.58862
1.5884
1.58818
1.58797
1.58775
1.58755
1.58735
1.58716
1.58698
1.58682
1.58666
1.58653
1.5864
1.58629
1.58619
1.58611
1.58604
1.58599
1.58595
1.58593
1.58592
1.58593
1.58595
1.58599
1.58604
1.58611
1.58618
1.58627
1.58637
1.58648
1.5866
1.58673
1.58686
1.587
1.58714
1.58728
1.58742
1.58756
1.5877
1.58784
1.58796
1.58808
1.58819
1.58829
1.58837
1.58845
1.5885
1.58855
1.58857
1.58858
1.58858
1.58855
1.58851
1.58846
1.58839
1.5883
1.5882
1.58809
1.58797
1.58784
1.5877
1.58756
1.58741
1.58726
1.58712
1.58698
1.58684
1.58671
1.5866
1.5865
1.58641
1.58634
1.58629
1.58627
1.58626
1.58628
1.58632
1.58639
1.58647
1.58658
1.5867
1.58685
1.58701
1.58718
1.58736
1.58755
1.58775
1.58795
1.58814
1.58834
1.58853
1.58871
1.58888
1.58905
1.5892
1.58935
1.58949
1.58963
1.58976
1.58989
1.59002
1.59016
1.5903
1.59046
1.59063
1.59082
1.59104
1.59127
1.59152
1.59179
1.59208
1.59237
1.59268
1.59297
1.59328
1.59356
1.59383
1.59408
1.59432
1.59453
1.59473
1.59489
1.59505
1.59518
1.59531
1.59542
1.59554
1.59563
1.59575
1.59585
1.59598
1.59609
1.59624
1.59637
1.59652
1.59666
1.59683
1.59697
1.59714
1.59736
1.59752
1.59766
1.59783
1.59798
1.59818
1.59839
1.59867
1.59899
1.59944
1.59998
1.60069
1.60156
1.60266
1.60396
1.6055
1.60724
1.60916
1.6112
1.61327
1.6153
1.61717
1.61884
1.62023
1.62132
1.62207
1.62254
1.6227
1.62263
1.62235
1.62191
1.62136
1.62076
1.62012
1.61952
1.61896
1.61847
1.61804
1.61772
1.61747
1.61732
1.61725
1.61727
1.61736
1.61754
1.61779
1.61812
1.6185
1.61895
1.61945
1.62001
1.62059
1.6212
1.62182
1.62244
1.62304
1.62361
1.62413
1.6246
1.62499
1.6253
1.62551
1.62562
1.62562
1.62551
1.62529
1.62496
1.62452
1.62398
1.62335
1.62262
1.62182
1.62094
1.62
1.61901
1.61798
1.61692
1.61584
1.61475
1.61367
1.6126
1.61157
1.61056
1.60961
1.60872
1.60789
1.60712
1.60645
1.60585
1.60535
1.60493
1.60461
1.60439
1.60427
1.60423
1.6043
1.60446
1.60471
1.60504
1.60546
1.60595
1.60651
1.60714
1.60783
1.60856
1.60935
1.61017
1.61102
1.61189
1.61279
1.61368
1.61458
1.61547
1.61635
1.6172
1.61803
1.61883
1.6196
1.62032
1.62102
1.62167
1.62229
1.62287
1.62342
1.62394
1.62444
1.62491
1.62537
1.62581
1.62626
1.62668
1.62712
1.62754
1.62799
1.62843
1.62889
1.62935
1.62984
1.63032
1.63083
1.63134
1.63187
1.6324
1.63296
1.6335
1.63407
1.63462
1.63519
1.63573
1.63629
1.63681
1.63733
1.63782
1.6383
1.63873
1.63915
1.63951
1.63985
1.64012
1.64037
1.64054
1.64067
1.64072
1.64073
1.64064
1.64051
1.64028
1.63999
1.6396
1.63915
1.6386
1.638
1.6373
1.63656
1.63573
1.63489
1.63398
1.63307
1.63212
1.6312
1.63026
1.62936
1.62847
1.62764
1.62683
1.6261
1.62541
1.62481
1.62429
1.62387
1.62355
1.62336
1.6233
1.62338
1.62358
1.62392
1.62434
1.62482
1.62529
1.62569
1.62594
1.62598
1.62573
1.62513
1.62413
1.62273
1.62091
1.61872
1.61622
1.61351
1.6107
1.60792
1.60528
1.60285
1.6007
1.59883
1.59725
1.59594
1.59487
1.594
1.59332
1.59276
1.59234
1.59199
1.59174
1.59153
1.59138
1.59126
1.59118
1.59112
1.59108
1.59105
1.59105
1.59104
1.59106
1.59106
1.59108
1.5911
1.59112
1.59113
1.59115
1.59115
1.59115
1.59114
1.59113
1.59109
1.59106
1.591
1.59094
1.59085
1.59076
1.59064
1.59052
1.59037
1.59022
1.59005
1.58987
1.58968
1.58949
1.58928
1.58907
1.58886
1.58865
1.58843
1.58823
1.58801
1.58782
1.58762
1.58744
1.58726
1.5871
1.58694
1.5868
1.58667
1.58656
1.58646
1.58638
1.5863
1.58625
1.5862
1.58617
1.58616
1.58616
1.58617
1.5862
1.58624
1.5863
1.58637
1.58645
1.58653
1.58663
1.58674
1.58686
1.58698
1.58711
1.58724
1.58737
1.5875
1.58763
1.58776
1.58789
1.58801
1.58812
1.58822
1.58831
1.58839
1.58845
1.58851
1.58854
1.58857
1.58858
1.58857
1.58854
1.58851
1.58845
1.58839
1.5883
1.58821
1.5881
1.58799
1.58787
1.58774
1.5876
1.58746
1.58733
1.58719
1.58706
1.58693
1.58682
1.58671
1.58662
1.58655
1.58649
1.58645
1.58644
1.58644
1.58647
1.58652
1.58659
1.58668
1.58679
1.58692
1.58707
1.58723
1.58741
1.58759
1.58778
1.58798
1.58818
1.58837
1.58857
1.58876
1.58894
1.58912
1.58928
1.58944
1.58959
1.58973
1.58987
1.59001
1.59014
1.59027
1.59041
1.59056
1.59072
1.5909
1.59109
1.5913
1.59153
1.59178
1.59204
1.59233
1.59261
1.5929
1.59318
1.59347
1.59373
1.594
1.59423
1.59446
1.59466
1.59486
1.59502
1.59518
1.59531
1.59545
1.59555
1.59568
1.59577
1.59589
1.59599
1.59611
1.59622
1.59636
1.59648
1.59664
1.59676
1.59693
1.59706
1.59723
1.59745
1.59761
1.59775
1.59792
1.59808
1.59829
1.5985
1.59879
1.59913
1.59959
1.60014
1.60087
1.60175
1.60285
1.60416
1.60569
1.60741
1.6093
1.61129
1.61329
1.61525
1.61704
1.61864
1.61997
1.62102
1.62176
1.62224
1.62243
1.62241
1.62218
1.62181
1.62132
1.62077
1.62018
1.61962
1.61908
1.61861
1.61819
1.61787
1.61762
1.61746
1.61738
1.61739
1.61746
1.61762
1.61784
1.61814
1.61849
1.61891
1.61937
1.61988
1.62041
1.62098
1.62156
1.62213
1.62269
1.62323
1.62371
1.62414
1.6245
1.62478
1.62496
1.62505
1.62503
1.62491
1.62467
1.62434
1.62389
1.62335
1.62272
1.622
1.62121
1.62034
1.61941
1.61843
1.61742
1.61637
1.61531
1.61424
1.61317
1.61212
1.6111
1.61012
1.60919
1.6083
1.60749
1.60675
1.6061
1.60552
1.60504
1.60465
1.60436
1.60416
1.60406
1.60406
1.60416
1.60434
1.60462
1.60498
1.60543
1.60595
1.60654
1.60719
1.60791
1.60867
1.60947
1.6103
1.61117
1.61204
1.61294
1.61382
1.61471
1.61557
1.61642
1.61723
1.61802
1.61876
1.61948
1.62014
1.62078
1.62136
1.62192
1.62242
1.62292
1.62336
1.6238
1.62421
1.62461
1.62499
1.62538
1.62576
1.62615
1.62653
1.62695
1.62735
1.62779
1.62823
1.6287
1.62917
1.62968
1.63019
1.63074
1.63127
1.63185
1.63241
1.633
1.63357
1.63417
1.63474
1.63533
1.63589
1.63645
1.63696
1.63748
1.63794
1.63839
1.63877
1.63915
1.63944
1.63971
1.6399
1.64006
1.64013
1.64016
1.6401
1.63999
1.63978
1.63952
1.63915
1.63873
1.6382
1.63764
1.63697
1.63627
1.63548
1.63468
1.63382
1.63296
1.63206
1.63119
1.6303
1.62946
1.62861
1.62783
1.62706
1.62636
1.6257
1.62513
1.62462
1.62421
1.62389
1.6237
1.62362
1.62369
1.62386
1.62417
1.62454
1.62497
1.62538
1.62572
1.62591
1.6259
1.62559
1.62497
1.62397
1.62259
1.62081
1.61868
1.61624
1.61359
1.61084
1.60809
1.60547
1.60304
1.60087
1.59898
1.59737
1.59603
1.59494
1.59404
1.59333
1.59275
1.59231
1.59195
1.59169
1.59147
1.59132
1.59119
1.59111
1.59105
1.59102
1.59099
1.591
1.591
1.59102
1.59104
1.59107
1.59109
1.59113
1.59115
1.59118
1.5912
1.59121
1.59121
1.59121
1.59119
1.59117
1.59112
1.59107
1.59099
1.59091
1.5908
1.59069
1.59055
1.59041
1.59025
1.59009
1.5899
1.58972
1.58952
1.58933
1.58912
1.58892
1.58871
1.58851
1.58831
1.58811
1.58792
1.58774
1.58757
1.58741
1.58725
1.58711
1.58698
1.58687
1.58676
1.58667
1.58659
1.58653
1.58648
1.58645
1.58643
1.58642
1.58643
1.58645
1.58648
1.58652
1.58658
1.58665
1.58672
1.58681
1.58691
1.58701
1.58712
1.58724
1.58736
1.58748
1.5876
1.58772
1.58784
1.58795
1.58806
1.58816
1.58825
1.58833
1.5884
1.58846
1.58851
1.58855
1.58857
1.58857
1.58856
1.58854
1.5885
1.58845
1.58839
1.58831
1.58822
1.58812
1.58801
1.5879
1.58778
1.58765
1.58753
1.5874
1.58728
1.58716
1.58705
1.58694
1.58685
1.58677
1.58671
1.58667
1.58664
1.58663
1.58665
1.58668
1.58674
1.58682
1.58692
1.58703
1.58717
1.58732
1.58749
1.58766
1.58785
1.58804
1.58824
1.58844
1.58863
1.58883
1.58902
1.5892
1.58938
1.58954
1.5897
1.58985
1.59
1.59014
1.59028
1.59041
1.59055
1.59069
1.59085
1.59101
1.59119
1.59138
1.5916
1.59182
1.59207
1.59233
1.5926
1.59287
1.59315
1.59341
1.59368
1.59393
1.59418
1.5944
1.59462
1.59481
1.59501
1.59516
1.59533
1.59546
1.5956
1.5957
1.59583
1.59592
1.59604
1.59613
1.59626
1.59636
1.59649
1.5966
1.59675
1.59687
1.59703
1.59716
1.59732
1.59754
1.5977
1.59784
1.59801
1.59817
1.59839
1.59861
1.59891
1.59926
1.59973
1.60029
1.60103
1.60193
1.60303
1.60434
1.60586
1.60756
1.60941
1.61134
1.61328
1.61517
1.61689
1.61842
1.61969
1.62071
1.62144
1.62193
1.62215
1.62219
1.62201
1.62171
1.62127
1.62079
1.62025
1.61973
1.61921
1.61877
1.61836
1.61805
1.61779
1.61763
1.61753
1.61753
1.61757
1.61771
1.6179
1.61816
1.61847
1.61885
1.61926
1.61973
1.62022
1.62074
1.62126
1.6218
1.62231
1.6228
1.62324
1.62364
1.62396
1.62421
1.62437
1.62443
1.62439
1.62426
1.62401
1.62367
1.62322
1.62268
1.62205
1.62134
1.62055
1.6197
1.61878
1.61782
1.61682
1.61579
1.61475
1.61369
1.61265
1.61162
1.61062
1.60965
1.60874
1.60788
1.60709
1.60638
1.60575
1.6052
1.60475
1.60439
1.60414
1.60397
1.60392
1.60395
1.60408
1.6043
1.60462
1.60501
1.60549
1.60602
1.60664
1.6073
1.60803
1.60879
1.6096
1.61042
1.61128
1.61214
1.61301
1.61387
1.61473
1.61556
1.61638
1.61715
1.6179
1.6186
1.61927
1.61988
1.62046
1.62099
1.62149
1.62193
1.62237
1.62275
1.62314
1.62348
1.62383
1.62416
1.6245
1.62482
1.62518
1.62552
1.6259
1.62627
1.62669
1.6271
1.62756
1.62802
1.62853
1.62903
1.62958
1.63012
1.63071
1.63128
1.63189
1.63248
1.63311
1.63371
1.63433
1.6349
1.6355
1.63604
1.63659
1.63707
1.63756
1.63797
1.63837
1.63868
1.63898
1.63919
1.63938
1.63947
1.63953
1.63948
1.6394
1.63921
1.63898
1.63863
1.63825
1.63775
1.63722
1.63658
1.63593
1.63518
1.63443
1.63361
1.63281
1.63196
1.63115
1.63031
1.62952