# vtk DataFile Version 2.0
LBE two cylinders
ASCII
DATASET STRUCTURED_POINTS
DIMENSIONS 400 100 1
ASPECT_RATIO 1 1 1
ORIGIN 0 0 0
POINT_DATA 40000
SCALARS rho double 1
LOOKUP_TABLE default
1.59969
1.60006
1.60039
1.60069
1.60096
1.60118
1.60136
1.60148
1.60155
1.60154
1.60145
1.60127
1.60099
1.60059
1.60006
1.59941
1.59862
1.59772
1.59671
1.59561
1.59444
1.59322
1.59199
1.59078
1.58961
1.5885
1.58749
1.58658
1.58579
1.58513
1.5846
1.5842
1.58392
1.58376
1.58371
1.58375
1.58386
1.58403
1.58423
1.58446
1.58469
1.58491
1.5851
1.58526
1.58539
1.58549
1.58557
1.58564
1.58571
1.58578
1.58585
1.58589
1.58586
1.5857
1.5853
1.58458
1.58342
1.58173
1.57945
1.57658
1.57318
1.56938
1.56535
1.56128
1.55736
1.55374
1.55052
1.54776
1.54545
1.54359
1.54213
1.54102
1.54019
1.5396
1.53921
1.53896
1.53884
1.5388
1.53883
1.53892
1.53904
1.53918
1.53935
1.53952
1.53971
1.53989
1.54008
1.54027
1.54046
1.54064
1.54082
1.541
1.54118
1.54135
1.54152
1.54169
1.54185
1.54201
1.54217
1.54233
1.54248
1.54263
1.54278
1.54292
1.54305
1.54317
1.54328
1.54339
1.54349
1.54357
1.54366
1.54373
1.54381
1.54388
1.54395
1.54402
1.5441
1.54419
1.54427
1.54436
1.54444
1.54452
1.54458
1.54462
1.54463
1.54462
1.54457
1.54447
1.54434
1.54417
1.54397
1.54373
1.54347
1.54319
1.5429
1.5426
1.54231
1.54202
1.54175
1.54149
1.54126
1.54105
1.54088
1.54075
1.54067
1.54064
1.54067
1.54076
1.54094
1.54121
1.54159
1.54211
1.54278
1.54364
1.54472
1.54606
1.5477
1.54964
1.55191
1.55446
1.55727
1.56023
1.56325
1.5662
1.56897
1.57146
1.57359
1.57535
1.57674
1.57781
1.57861
1.57922
1.5797
1.5801
1.58046
1.58078
1.58109
1.58138
1.58162
1.58181
1.58193
1.58196
1.5819
1.58175
1.58151
1.5812
1.58083
1.58042
1.58
1.57958
1.5792
1.57886
1.57857
1.57837
1.57824
1.57821
1.57827
1.57842
1.57867
1.579
1.57942
1.57991
1.58046
1.58106
1.58168
1.58232
1.58295
1.58355
1.58411
1.58461
1.58505
1.5854
1.58567
1.58585
1.58595
1.58598
1.58594
1.58584
1.5857
1.58553
1.58534
1.58514
1.58493
1.58474
1.58456
1.5844
1.58426
1.58415
1.58406
1.58399
1.58394
1.58391
1.5839
1.58391
1.58393
1.58397
1.58401
1.58407
1.58415
1.58424
1.58434
1.58447
1.58461
1.58478
1.58498
1.58521
1.58546
1.58576
1.58608
1.58644
1.58684
1.58728
1.58775
1.58825
1.58878
1.58934
1.58992
1.59052
1.59113
1.59175
1.59237
1.59298
1.59359
1.59417
1.59474
1.59528
1.59579
1.59627
1.59672
1.59714
1.59753
1.59789
1.59823
1.59854
1.59884
1.59912
1.59938
1.59964
1.59989
1.60013
1.60035
1.60057
1.60078
1.60097
1.60115
1.60131
1.60144
1.60155
1.60163
1.60167
1.60169
1.60166
1.6016
1.6015
1.60136
1.60118
1.60096
1.6007
1.60042
1.60009
1.59974
1.59937
1.59898
1.59857
1.59816
1.59774
1.59733
1.59692
1.59652
1.59615
1.5958
1.59547
1.59517
1.59491
1.59468
1.59448
1.59432
1.59419
1.5941
1.59404
1.594
1.59399
1.594
1.59403
1.59408
1.59414
1.59421
1.59428
1.59437
1.59445
1.59454
1.59463
1.59473
1.59483
1.59494
1.59505
1.59517
1.59529
1.59543
1.59557
1.59572
1.59587
1.59603
1.59618
1.59633
1.59647
1.59659
1.59668
1.59675
1.59678
1.59677
1.59671
1.59661
1.59646
1.59625
1.596
1.59569
1.59534
1.59495
1.59452
1.59406
1.59358
1.59309
1.59258
1.59208
1.59159
1.59111
1.59067
1.59025
1.58988
1.58955
1.58927
1.58905
1.58889
1.58879
1.58875
1.58878
1.58887
1.58902
1.58924
1.58951
1.58983
1.59021
1.59063
1.5911
1.5916
1.59214
1.5927
1.59328
1.59387
1.59447
1.59507
1.59567
1.59625
1.59682
1.59737
1.59789
1.59838
1.59885
1.59928
1.59963
1.6
1.60033
1.60063
1.60089
1.60111
1.60127
1.60139
1.60144
1.60143
1.60133
1.60114
1.60085
1.60045
1.59992
1.59927
1.5985
1.59762
1.59662
1.59555
1.5944
1.59321
1.592
1.59081
1.58965
1.58856
1.58755
1.58665
1.58586
1.5852
1.58466
1.58426
1.58397
1.5838
1.58373
1.58375
1.58385
1.58401
1.5842
1.58442
1.58463
1.58484
1.58503
1.58519
1.58532
1.58543
1.58551
1.58558
1.58565
1.58571
1.58576
1.58577
1.5857
1.5855
1.58506
1.5843
1.58312
1.58144
1.57921
1.57643
1.57315
1.56947
1.56555
1.56157
1.5577
1.5541
1.55088
1.54808
1.54574
1.54384
1.54233
1.54118
1.54032
1.5397
1.53928
1.53902
1.53888
1.53883
1.53885
1.53893
1.53905
1.53919
1.53935
1.53953
1.53971
1.5399
1.54009
1.54028
1.54047
1.54065
1.54083
1.54101
1.54119
1.54136
1.54153
1.5417
1.54186
1.54202
1.54218
1.54233
1.54248
1.54262
1.54276
1.54289
1.54302
1.54314
1.54325
1.54335
1.54345
1.54353
1.54362
1.54369
1.54377
1.54384
1.54392
1.544
1.54408
1.54416
1.54425
1.54434
1.54442
1.5445
1.54455
1.54459
1.54461
1.54459
1.54453
1.54444
1.54431
1.54414
1.54393
1.5437
1.54344
1.54316
1.54287
1.54258
1.54229
1.542
1.54173
1.54148
1.54125
1.54105
1.54088
1.54076
1.54068
1.54065
1.54068
1.54078
1.54097
1.54124
1.54163
1.54216
1.54285
1.54373
1.54483
1.5462
1.54786
1.54982
1.5521
1.55465
1.55743
1.56036
1.56332
1.56621
1.56891
1.57133
1.57342
1.57516
1.57655
1.57763
1.57846
1.57909
1.5796
1.58001
1.58038
1.58071
1.58102
1.58129
1.58153
1.5817
1.5818
1.58182
1.58176
1.5816
1.58136
1.58106
1.5807
1.5803
1.5799
1.57949
1.57912
1.5788
1.57853
1.57833
1.57822
1.5782
1.57827
1.57843
1.57868
1.57902
1.57944
1.57993
1.58048
1.58107
1.58168
1.58231
1.58293
1.58352
1.58407
1.58456
1.58498
1.58532
1.58559
1.58577
1.58587
1.5859
1.58587
1.58578
1.58565
1.58549
1.58531
1.58511
1.58492
1.58473
1.58456
1.5844
1.58426
1.58414
1.58405
1.58398
1.58393
1.58389
1.58388
1.58388
1.5839
1.58393
1.58398
1.58403
1.58411
1.58419
1.5843
1.58443
1.58458
1.58475
1.58495
1.58518
1.58545
1.58574
1.58608
1.58645
1.58685
1.58729
1.58777
1.58827
1.58881
1.58937
1.58995
1.59055
1.59116
1.59178
1.5924
1.59301
1.59361
1.59419
1.59475
1.59528
1.59579
1.59627
1.59671
1.59713
1.59752
1.59788
1.59822
1.59853
1.59883
1.59911
1.59938
1.59963
1.59988
1.60012
1.60035
1.60056
1.60077
1.60096
1.60113
1.60129
1.60142
1.60153
1.6016
1.60165
1.60166
1.60164
1.60157
1.60147
1.60133
1.60115
1.60094
1.60068
1.6004
1.60008
1.59973
1.59937
1.59898
1.59858
1.59817
1.59775
1.59734
1.59694
1.59655
1.59618
1.59583
1.5955
1.59521
1.59494
1.59471
1.59452
1.59435
1.59422
1.59412
1.59405
1.59401
1.594
1.594
1.59403
1.59407
1.59412
1.59418
1.59425
1.59433
1.59441
1.5945
1.59459
1.59468
1.59478
1.59488
1.59499
1.59511
1.59524
1.59537
1.59551
1.59566
1.59581
1.59597
1.59612
1.59627
1.5964
1.59652
1.59661
1.59667
1.5967
1.59669
1.59664
1.59654
1.59639
1.59619
1.59594
1.59564
1.59529
1.59491
1.59449
1.59404
1.59357
1.59308
1.59259
1.5921
1.59161
1.59115
1.59071
1.5903
1.58993
1.58961
1.58933
1.58911
1.58895
1.58885
1.58881
1.58884
1.58892
1.58907
1.58928
1.58954
1.58986
1.59023
1.59065
1.5911
1.5916
1.59213
1.59268
1.59325
1.59384
1.59443
1.59503
1.59562
1.5962
1.59676
1.59731
1.59783
1.59833
1.59879
1.59923
1.59956
1.59993
1.60025
1.60055
1.6008
1.60101
1.60116
1.60127
1.60131
1.60128
1.60117
1.60097
1.60066
1.60026
1.59973
1.5991
1.59834
1.59747
1.5965
1.59545
1.59432
1.59316
1.59197
1.59081
1.58966
1.58859
1.58759
1.58669
1.5859
1.58524
1.58469
1.58428
1.58398
1.5838
1.58372
1.58374
1.58382
1.58397
1.58414
1.58435
1.58456
1.58477
1.58495
1.58511
1.58524
1.58535
1.58543
1.5855
1.58556
1.58562
1.58565
1.58565
1.58556
1.58533
1.58488
1.58412
1.58296
1.58133
1.57916
1.57646
1.57325
1.56965
1.5658
1.56185
1.558
1.55439
1.55114
1.54832
1.54594
1.544
1.54247
1.54128
1.5404
1.53977
1.53933
1.53906
1.53891
1.53886
1.53888
1.53895
1.53906
1.53921
1.53937
1.53955
1.53973
1.53992
1.54012
1.54031
1.54049
1.54068
1.54086
1.54104
1.54122
1.54139
1.54155
1.54172
1.54188
1.54203
1.54218
1.54233
1.54247
1.54261
1.54274
1.54287
1.54299
1.5431
1.5432
1.5433
1.54339
1.54348
1.54356
1.54363
1.54371
1.54378
1.54386
1.54394
1.54402
1.54411
1.5442
1.54429
1.54438
1.54446
1.54452
1.54456
1.54457
1.54455
1.54449
1.5444
1.54426
1.54409
1.54389
1.54365
1.5434
1.54312
1.54283
1.54254
1.54225
1.54197
1.5417
1.54145
1.54122
1.54103
1.54086
1.54074
1.54065
1.54063
1.54066
1.54076
1.54094
1.54122
1.54161
1.54214
1.54283
1.54372
1.54483
1.54622
1.54789
1.54987
1.55216
1.55473
1.55751
1.56043
1.56337
1.56623
1.56889
1.57127
1.57333
1.57503
1.57641
1.57748
1.57832
1.57896
1.57947
1.57989
1.58027
1.58059
1.5809
1.58116
1.58138
1.58154
1.58164
1.58164
1.58157
1.5814
1.58117
1.58086
1.58051
1.58012
1.57972
1.57933
1.57897
1.57866
1.57841
1.57823
1.57813
1.57812
1.5782
1.57837
1.57864
1.57898
1.57941
1.5799
1.58045
1.58104
1.58165
1.58227
1.58288
1.58346
1.584
1.58448
1.58489
1.58523
1.58549
1.58567
1.58578
1.58581
1.58579
1.58571
1.58559
1.58543
1.58526
1.58508
1.5849
1.58471
1.58454
1.58439
1.58425
1.58413
1.58403
1.58395
1.5839
1.58386
1.58384
1.58383
1.58384
1.58386
1.5839
1.58396
1.58403
1.58412
1.58422
1.58435
1.58451
1.58468
1.58489
1.58513
1.58541
1.58571
1.58605
1.58643
1.58685
1.5873
1.58778
1.58829
1.58884
1.58941
1.58999
1.5906
1.59121
1.59182
1.59244
1.59305
1.59364
1.59422
1.59477
1.5953
1.59581
1.59628
1.59672
1.59713
1.59752
1.59788
1.59822
1.59853
1.59883
1.59911
1.59938
1.59964
1.59988
1.60012
1.60035
1.60056
1.60077
1.60096
1.60113
1.60128
1.60141
1.60151
1.60159
1.60163
1.60164
1.60161
1.60155
1.60145
1.60131
1.60113
1.60092
1.60067
1.60038
1.60007
1.59973
1.59936
1.59898
1.59859
1.59818
1.59777
1.59737
1.59697
1.59658
1.59621
1.59586
1.59554
1.59525
1.59498
1.59475
1.59455
1.59438
1.59424
1.59414
1.59406
1.59401
1.59399
1.59398
1.594
1.59403
1.59407
1.59412
1.59418
1.59425
1.59432
1.5944
1.59449
1.59457
1.59467
1.59477
1.59488
1.59499
1.59512
1.59525
1.59539
1.59554
1.59569
1.59585
1.596
1.59614
1.59628
1.59639
1.59649
1.59655
1.59658
1.59658
1.59653
1.59643
1.59629
1.59609
1.59585
1.59556
1.59523
1.59485
1.59445
1.59401
1.59355
1.59308
1.5926
1.59212
1.59165
1.59119
1.59076
1.59036
1.59
1.58968
1.58941
1.5892
1.58904
1.58893
1.58889
1.58891
1.58899
1.58913
1.58933
1.58959
1.5899
1.59026
1.59067
1.59111
1.5916
1.59211
1.59266
1.59322
1.5938
1.59439
1.59498
1.59556
1.59614
1.5967
1.59725
1.59776
1.59826
1.59872
1.59916
1.59948
1.59985
1.60017
1.60046
1.60069
1.6009
1.60103
1.60113
1.60114
1.6011
1.60096
1.60076
1.60043
1.60003
1.59949
1.59887
1.59811
1.59727
1.59632
1.5953
1.5942
1.59307
1.59191
1.59077
1.58965
1.58859
1.5876
1.58672
1.58593
1.58527
1.58472
1.5843
1.584
1.58381
1.58372
1.58372
1.58379
1.58393
1.5841
1.58429
1.58449
1.58469
1.58487
1.58503
1.58516
1.58526
1.58534
1.58542
1.58547
1.58553
1.58555
1.58554
1.58544
1.58521
1.58475
1.584
1.58285
1.58125
1.57912
1.57648
1.57333
1.56979
1.56598
1.56207
1.55824
1.55463
1.55136
1.54852
1.54612
1.54415
1.54259
1.54138
1.54048
1.53983
1.53938
1.5391
1.53894
1.53889
1.5389
1.53897
1.53909
1.53923
1.5394
1.53957
1.53976
1.53995
1.54015
1.54034
1.54053
1.54072
1.5409
1.54108
1.54126
1.54143
1.54159
1.54175
1.54191
1.54205
1.5422
1.54234
1.54247
1.5426
1.54272
1.54284
1.54295
1.54305
1.54315
1.54324
1.54332
1.5434
1.54347
1.54355
1.54362
1.5437
1.54378
1.54386
1.54395
1.54404
1.54414
1.54423
1.54432
1.5444
1.54447
1.54451
1.54452
1.5445
1.54444
1.54435
1.54421
1.54405
1.54384
1.54361
1.54335
1.54308
1.54279
1.5425
1.54222
1.54194
1.54167
1.54142
1.54119
1.54099
1.54082
1.5407
1.54062
1.54059
1.54062
1.54072
1.54089
1.54117
1.54155
1.54208
1.54276
1.54365
1.54477
1.54616
1.54784
1.54983
1.55213
1.5547
1.55749
1.5604
1.56334
1.56618
1.56882
1.57119
1.57323
1.57492
1.57629
1.57736
1.57819
1.57883
1.57935
1.57976
1.58013
1.58045
1.58075
1.581
1.58121
1.58135
1.58143
1.58142
1.58134
1.58117
1.58093
1.58062
1.58027
1.57989
1.5795
1.57912
1.57878
1.57847
1.57824
1.57807
1.57799
1.57799
1.57808
1.57827
1.57854
1.5789
1.57933
1.57983
1.58038
1.58097
1.58158
1.58219
1.58279
1.58336
1.58389
1.58436
1.58477
1.5851
1.58536
1.58555
1.58566
1.5857
1.58569
1.58562
1.58552
1.58538
1.58522
1.58505
1.58488
1.5847
1.58453
1.58438
1.58424
1.58411
1.58401
1.58392
1.58386
1.5838
1.58377
1.58375
1.58376
1.58377
1.58381
1.58385
1.58392
1.58401
1.58412
1.58425
1.58441
1.5846
1.58482
1.58506
1.58535
1.58567
1.58602
1.58641
1.58684
1.5873
1.5878
1.58832
1.58887
1.58945
1.59004
1.59065
1.59126
1.59188
1.59249
1.59309
1.59368
1.59425
1.5948
1.59532
1.59582
1.59629
1.59673
1.59714
1.59752
1.59788
1.59822
1.59853
1.59883
1.59912
1.59939
1.59964
1.59989
1.60013
1.60035
1.60057
1.60077
1.60096
1.60113
1.60127
1.6014
1.6015
1.60157
1.60161
1.60161
1.60158
1.60152
1.60142
1.60128
1.6011
1.60089
1.60064
1.60036
1.60005
1.59971
1.59935
1.59898
1.59859
1.59819
1.59779
1.59738
1.59699
1.59661
1.59624
1.5959
1.59557
1.59528
1.59501
1.59477
1.59457
1.59439
1.59425
1.59414
1.59405
1.59399
1.59395
1.59393
1.59393
1.59395
1.59398
1.59402
1.59407
1.59412
1.59418
1.59425
1.59433
1.59441
1.5945
1.59459
1.5947
1.59481
1.59493
1.59507
1.59521
1.59536
1.59551
1.59566
1.59582
1.59596
1.5961
1.59622
1.59631
1.59638
1.59642
1.59641
1.59637
1.59628
1.59614
1.59596
1.59572
1.59545
1.59513
1.59477
1.59438
1.59396
1.59352
1.59306
1.5926
1.59214
1.59168
1.59125
1.59083
1.59044
1.5901
1.58979
1.58952
1.58931
1.58915
1.58905
1.589
1.58902
1.58909
1.58922
1.58942
1.58966
1.58996
1.5903
1.5907
1.59113
1.59161
1.59211
1.59265
1.59319
1.59377
1.59434
1.59493
1.5955
1.59608
1.59663
1.59718
1.59769
1.59819
1.59865
1.59909
1.5994
1.59977
1.60008
1.60036
1.60058
1.60077
1.60088
1.60096
1.60095
1.60089
1.60072
1.6005
1.60016
1.59974
1.5992
1.59858
1.59784
1.59702
1.59609
1.5951
1.59404
1.59295
1.59182
1.59071
1.58962
1.58859
1.58762
1.58674
1.58596
1.58531
1.58475
1.58433
1.58402
1.58382
1.58372
1.58371
1.58377
1.58389
1.58405
1.58423
1.58442
1.58462
1.58479
1.58494
1.58507
1.58518
1.58526
1.58533
1.58539
1.58544
1.58546
1.58544
1.58533
1.58508
1.58462
1.58387
1.58274
1.58117
1.5791
1.57652
1.57344
1.56996
1.56619
1.56231
1.55848
1.55486
1.55158
1.54871
1.54628
1.54429
1.5427
1.54148
1.54056
1.5399
1.53944
1.53915
1.53899
1.53893
1.53894
1.53902
1.53913
1.53928
1.53944
1.53962
1.53981
1.54001
1.5402
1.5404
1.54059
1.54078
1.54096
1.54114
1.54131
1.54148
1.54163
1.54179
1.54193
1.54208
1.54221
1.54234
1.54246
1.54258
1.54269
1.5428
1.5429
1.54299
1.54308
1.54316
1.54324
1.54331
1.54338
1.54345
1.54352
1.5436
1.54368
1.54376
1.54385
1.54395
1.54405
1.54415
1.54424
1.54432
1.54439
1.54443
1.54444
1.54443
1.54437
1.54428
1.54414
1.54398
1.54377
1.54355
1.54329
1.54302
1.54274
1.54246
1.54217
1.54189
1.54162
1.54138
1.54115
1.54095
1.54078
1.54066
1.54057
1.54054
1.54055
1.54065
1.54081
1.54108
1.54145
1.54197
1.54265
1.54353
1.54464
1.54604
1.54772
1.54972
1.55203
1.55461
1.55741
1.56033
1.56326
1.56609
1.56872
1.57107
1.57309
1.57478
1.57614
1.5772
1.57804
1.57868
1.5792
1.57962
1.57998
1.58029
1.58057
1.5808
1.58099
1.58112
1.58118
1.58116
1.58106
1.58088
1.58064
1.58033
1.57999
1.57961
1.57924
1.57887
1.57854
1.57825
1.57803
1.57787
1.57781
1.57782
1.57793
1.57813
1.57842
1.57879
1.57923
1.57973
1.58029
1.58087
1.58148
1.58208
1.58268
1.58324
1.58376
1.58422
1.58463
1.58495
1.58522
1.58541
1.58553
1.58559
1.58559
1.58554
1.58545
1.58533
1.58519
1.58503
1.58486
1.58469
1.58453
1.58437
1.58423
1.5841
1.58399
1.58389
1.58381
1.58375
1.5837
1.58367
1.58366
1.58366
1.58369
1.58373
1.5838
1.58388
1.58399
1.58413
1.5843
1.58449
1.58472
1.58498
1.58528
1.58561
1.58598
1.58639
1.58683
1.58731
1.58782
1.58835
1.58891
1.5895
1.5901
1.5907
1.59132
1.59193
1.59254
1.59314
1.59372
1.59429
1.59483
1.59534
1.59583
1.59629
1.59673
1.59713
1.59752
1.59787
1.59821
1.59853
1.59883
1.59911
1.59938
1.59964
1.59989
1.60012
1.60035
1.60056
1.60076
1.60094
1.60111
1.60125
1.60137
1.60146
1.60153
1.60156
1.60156
1.60153
1.60146
1.60136
1.60122
1.60104
1.60083
1.60059
1.60031
1.6
1.59967
1.59932
1.59895
1.59857
1.59818
1.59778
1.59739
1.597
1.59662
1.59626
1.59591
1.59559
1.5953
1.59503
1.59478
1.59457
1.59439
1.59424
1.59411
1.59401
1.59393
1.59388
1.59385
1.59383
1.59383
1.59384
1.59386
1.59389
1.59393
1.59398
1.59404
1.5941
1.59418
1.59426
1.59435
1.59445
1.59456
1.59468
1.59482
1.59496
1.59511
1.59526
1.59542
1.59557
1.59572
1.59586
1.59598
1.59608
1.59615
1.59619
1.59619
1.59615
1.59607
1.59595
1.59577
1.59556
1.5953
1.59499
1.59466
1.59428
1.59389
1.59347
1.59304
1.5926
1.59216
1.59173
1.59131
1.59091
1.59054
1.59021
1.58991
1.58966
1.58945
1.5893
1.58919
1.58915
1.58915
1.58922
1.58934
1.58952
1.58975
1.59004
1.59037
1.59075
1.59117
1.59163
1.59212
1.59264
1.59317
1.59374
1.5943
1.59488
1.59544
1.59602
1.59656
1.59711
1.59761
1.59812
1.59857
1.59901
1.59932
1.59969
1.59998
1.60026
1.60046
1.60064
1.60072
1.60078
1.60074
1.60065
1.60046
1.60022
1.59985
1.59943
1.59888
1.59827
1.59754
1.59674
1.59584
1.59489
1.59386
1.59281
1.59172
1.59065
1.58959
1.58858
1.58763
1.58677
1.586
1.58535
1.58479
1.58437
1.58404
1.58384
1.58372
1.5837
1.58375
1.58385
1.584
1.58417
1.58435
1.58453
1.5847
1.58485
1.58497
1.58508
1.58516
1.58523
1.58529
1.58533
1.58535
1.58532
1.58521
1.58496
1.5845
1.58376
1.58266
1.58113
1.57911
1.57658
1.57355
1.57012
1.56639
1.56253
1.5587
1.55507
1.55177
1.54888
1.54643
1.54441
1.54281
1.54157
1.54064
1.53996
1.5395
1.5392
1.53904
1.53897
1.53899
1.53906
1.53917
1.53932
1.53949
1.53967
1.53986
1.54006
1.54026
1.54046
1.54065
1.54084
1.54103
1.5412
1.54137
1.54154
1.54169
1.54184
1.54198
1.54212
1.54224
1.54236
1.54247
1.54257
1.54267
1.54276
1.54284
1.54292
1.54299
1.54306
1.54313
1.54319
1.54325
1.54332
1.54339
1.54347
1.54355
1.54364
1.54373
1.54384
1.54394
1.54405
1.54414
1.54424
1.5443
1.54436
1.54437
1.54436
1.5443
1.54422
1.54408
1.54392
1.54371
1.54349
1.54324
1.54297
1.54269
1.54241
1.54212
1.54185
1.54158
1.54134
1.54111
1.54091
1.54074
1.54061
1.54051
1.54047
1.54048
1.54057
1.54072
1.54097
1.54133
1.54184
1.5425
1.54337
1.54448
1.54587
1.54755
1.54955
1.55187
1.55446
1.55727
1.5602
1.56314
1.56598
1.5686
1.57095
1.57296
1.57464
1.57599
1.57705
1.57788
1.57852
1.57903
1.57944
1.57979
1.5801
1.58036
1.58057
1.58075
1.58085
1.58089
1.58085
1.58075
1.58056
1.58031
1.58
1.57966
1.5793
1.57893
1.57858
1.57826
1.57799
1.57778
1.57764
1.5776
1.57763
1.57776
1.57797
1.57828
1.57866
1.57911
1.57962
1.58018
1.58077
1.58137
1.58197
1.58256
1.58311
1.58362
1.58407
1.58448
1.5848
1.58507
1.58527
1.5854
1.58547
1.58549
1.58546
1.58539
1.58529
1.58517
1.58502
1.58487
1.5847
1.58455
1.58439
1.58424
1.5841
1.58398
1.58386
1.58377
1.58369
1.58363
1.58358
1.58356
1.58355
1.58356
1.5836
1.58366
1.58374
1.58386
1.584
1.58417
1.58437
1.58462
1.58489
1.58521
1.58555
1.58594
1.58636
1.58683
1.58732
1.58784
1.58839
1.58896
1.58955
1.59016
1.59077
1.59138
1.59199
1.5926
1.59319
1.59376
1.59432
1.59485
1.59535
1.59583
1.59628
1.59671
1.59711
1.59749
1.59784
1.59818
1.59849
1.59879
1.59908
1.59935
1.59961
1.59986
1.60009
1.60031
1.60052
1.60072
1.60089
1.60105
1.60119
1.6013
1.60139
1.60145
1.60148
1.60147
1.60144
1.60136
1.60126
1.60112
1.60094
1.60073
1.60049
1.60022
1.59992
1.5996
1.59926
1.5989
1.59852
1.59814
1.59775
1.59736
1.59698
1.59661
1.59625
1.59591
1.59559
1.59529
1.59501
1.59477
1.59455
1.59435
1.59419
1.59405
1.59393
1.59384
1.59377
1.59371
1.59368
1.59365
1.59365
1.59365
1.59366
1.59369
1.59372
1.59376
1.59382
1.59388
1.59395
1.59404
1.59413
1.59424
1.59437
1.5945
1.59464
1.59479
1.59495
1.59511
1.59526
1.59542
1.59556
1.59568
1.59578
1.59586
1.59591
1.59592
1.59589
1.59582
1.5957
1.59555
1.59535
1.59511
1.59483
1.59451
1.59416
1.59379
1.5934
1.593
1.59259
1.59217
1.59177
1.59137
1.591
1.59065
1.59034
1.59005
1.58981
1.58961
1.58946
1.58936
1.58931
1.58931
1.58938
1.58949
1.58966
1.58987
1.59015
1.59046
1.59083
1.59123
1.59168
1.59214
1.59265
1.59317
1.59372
1.59427
1.59484
1.59539
1.59596
1.5965
1.59705
1.59755
1.59805
1.5985
1.59894
1.59926
1.59962
1.5999
1.60017
1.60035
1.60051
1.60057
1.6006
1.60052
1.60041
1.60019
1.59992
1.59954
1.5991
1.59855
1.59794
1.59722
1.59644
1.59557
1.59466
1.59367
1.59267
1.59162
1.59059
1.58956
1.58859
1.58766
1.58681
1.58605
1.5854
1.58484
1.58441
1.58408
1.58386
1.58373
1.5837
1.58373
1.58382
1.58395
1.58411
1.58427
1.58444
1.5846
1.58474
1.58486
1.58497
1.58505
1.58512
1.58518
1.58523
1.58524
1.58521
1.58509
1.58484
1.58439
1.58367
1.5826
1.58111
1.57914
1.57667
1.5737
1.57031
1.56661
1.56276
1.55893
1.55529
1.55196
1.54904
1.54657
1.54453
1.54291
1.54166
1.54072
1.54004
1.53957
1.53927
1.5391
1.53904
1.53905
1.53912
1.53924
1.53939
1.53956
1.53975
1.53994
1.54014
1.54034
1.54054
1.54073
1.54092
1.54111
1.54128
1.54145
1.5416
1.54175
1.54189
1.54202
1.54214
1.54225
1.54236
1.54246
1.54255
1.54263
1.54271
1.54278
1.54284
1.5429
1.54297
1.54302
1.54308
1.54313
1.5432
1.54326
1.54333
1.54341
1.5435
1.54359
1.5437
1.54381
1.54392
1.54402
1.54412
1.54419
1.54424
1.54426
1.54426
1.5442
1.54412
1.54399
1.54383
1.54363
1.54341
1.54316
1.5429
1.54262
1.54235
1.54207
1.5418
1.54153
1.54129
1.54106
1.54086
1.54069
1.54056
1.54045
1.54041
1.5404
1.54047
1.54061
1.54085
1.54119
1.54168
1.54232
1.54318
1.54427
1.54565
1.54732
1.54934
1.55165
1.55427
1.55709
1.56004
1.56298
1.56583
1.56846
1.57081
1.57282
1.57449
1.57583
1.57689
1.57771
1.57835
1.57885
1.57926
1.57959
1.57988
1.58012
1.58032
1.58047
1.58055
1.58057
1.58052
1.58039
1.5802
1.57994
1.57964
1.5793
1.57894
1.57859
1.57825
1.57795
1.5777
1.57751
1.5774
1.57737
1.57742
1.57757
1.57781
1.57813
1.57853
1.57899
1.57951
1.58008
1.58066
1.58127
1.58186
1.58244
1.58298
1.58349
1.58393
1.58433
1.58466
1.58493
1.58514
1.58529
1.58537
1.58542
1.5854
1.58536
1.58527
1.58517
1.58503
1.58489
1.58474
1.58458
1.58442
1.58427
1.58412
1.58399
1.58385
1.58374
1.58364
1.58356
1.5835
1.58346
1.58343
1.58344
1.58346
1.58352
1.5836
1.58372
1.58386
1.58404
1.58426
1.58451
1.5848
1.58513
1.5855
1.5859
1.58634
1.58682
1.58733
1.58787
1.58843
1.58901
1.58961
1.59022
1.59083
1.59145
1.59205
1.59265
1.59323
1.59379
1.59433
1.59485
1.59534
1.59581
1.59625
1.59667
1.59706
1.59743
1.59778
1.59811
1.59842
1.59872
1.599
1.59928
1.59953
1.59978
1.60001
1.60023
1.60044
1.60062
1.6008
1.60095
1.60108
1.60118
1.60126
1.60131
1.60134
1.60133
1.60129
1.60121
1.60111
1.60097
1.60079
1.60059
1.60035
1.60009
1.5998
1.59948
1.59915
1.5988
1.59843
1.59806
1.59768
1.5973
1.59693
1.59656
1.59621
1.59587
1.59555
1.59525
1.59497
1.59471
1.59448
1.59428
1.5941
1.59394
1.59381
1.59369
1.5936
1.59353
1.59347
1.59342
1.59339
1.59337
1.59337
1.59337
1.59339
1.59342
1.59346
1.59351
1.59358
1.59366
1.59375
1.59386
1.59398
1.59411
1.59425
1.59441
1.59457
1.59473
1.59489
1.59504
1.59519
1.59532
1.59543
1.59551
1.59556
1.59558
1.59557
1.59551
1.59541
1.59527
1.59509
1.59487
1.59462
1.59433
1.59401
1.59367
1.59331
1.59294
1.59256
1.59218
1.5918
1.59144
1.59109
1.59076
1.59047
1.5902
1.58998
1.58978
1.58964
1.58954
1.5895
1.5895
1.58955
1.58965
1.58981
1.59001
1.59028
1.59057
1.59093
1.5913
1.59174
1.59219
1.59268
1.59318
1.59372
1.59425
1.59482
1.59536
1.59593
1.59645
1.597
1.5975
1.598
1.59844
1.59889
1.59921
1.59957
1.59984
1.60009
1.60025
1.60039
1.60042
1.60042
1.60032
1.60018
1.59992
1.59963
1.59922
1.59877
1.59821
1.59761
1.5969
1.59615
1.59531
1.59444
1.59349
1.59253
1.59153
1.59054
1.58955
1.5886
1.5877
1.58687
1.58612
1.58547
1.58491
1.58447
1.58413
1.5839
1.58375
1.5837
1.58371
1.58379
1.5839
1.58404
1.58419
1.58435
1.5845
1.58463
1.58475
1.58485
1.58494
1.58501
1.58507
1.58511
1.58512
1.58509
1.58497
1.58473
1.58429
1.58359
1.58255
1.5811
1.57919
1.57677
1.57385
1.5705
1.56682
1.56298
1.55914
1.55548
1.55214
1.5492
1.5467
1.54465
1.54301
1.54174
1.54079
1.54011
1.53964
1.53933
1.53916
1.5391
1.53911
1.53919
1.5393
1.53946
1.53963
1.53982
1.54001
1.54022
1.54042
1.54062
1.54082
1.54101
1.54119
1.54136
1.54153
1.54168
1.54183
1.54196
1.54208
1.54219
1.54229
1.54238
1.54246
1.54254
1.5426
1.54266
1.5427
1.54275
1.54279
1.54284
1.54288
1.54292
1.54297
1.54303
1.54308
1.54316
1.54324
1.54334
1.54344
1.54355
1.54367
1.54379
1.5439
1.544
1.54408
1.54415
1.54417
1.54417
1.54412
1.54404
1.54392
1.54376
1.54357
1.54335
1.5431
1.54285
1.54258
1.54231
1.54203
1.54177
1.5415
1.54126
1.54103
1.54083
1.54065
1.54051
1.5404
1.54034
1.54032
1.54038
1.5405
1.54072
1.54103
1.5415
1.54212
1.54297
1.54403
1.5454
1.54707
1.54908
1.5514
1.55403
1.55687
1.55984
1.56281
1.56568
1.56832
1.57067
1.57268
1.57435
1.57568
1.57674
1.57755
1.57818
1.57867
1.57906
1.57938
1.57965
1.57987
1.58005
1.58016
1.58023
1.58022
1.58015
1.58001
1.57981
1.57955
1.57924
1.57891
1.57857
1.57823
1.57791
1.57762
1.57739
1.57723
1.57714
1.57713
1.57721
1.57739
1.57764
1.57799
1.5784
1.57888
1.57941
1.57999
1.58058
1.58118
1.58177
1.58234
1.58287
1.58337
1.58382
1.58421
1.58454
1.58482
1.58504
1.5852
1.5853
1.58537
1.58538
1.58536
1.58529
1.5852
1.58508
1.58496
1.5848
1.58465
1.58449
1.58433
1.58416
1.58401
1.58386
1.58374
1.58361
1.58351
1.58343
1.58337
1.58333
1.58332
1.58333
1.58339
1.58346
1.58358
1.58373
1.58392
1.58414
1.58441
1.58471
1.58506
1.58544
1.58587
1.58632
1.58682
1.58734
1.5879
1.58847
1.58906
1.58967
1.59028
1.59089
1.5915
1.5921
1.59269
1.59325
1.5938
1.59433
1.59483
1.59531
1.59576
1.59618
1.59659
1.59697
1.59733
1.59767
1.598
1.5983
1.5986
1.59888
1.59915
1.5994
1.59964
1.59987
1.60009
1.60029
1.60047
1.60063
1.60078
1.6009
1.601
1.60107
1.60112
1.60113
1.60112
1.60107
1.601
1.60089
1.60075
1.60058
1.60038
1.60016
1.5999
1.59962
1.59932
1.59899
1.59865
1.5983
1.59794
1.59757
1.5972
1.59684
1.59647
1.59612
1.59579
1.59547
1.59516
1.59488
1.59461
1.59437
1.59416
1.59396
1.59378
1.59363
1.5935
1.59338
1.59328
1.5932
1.59313
1.59308
1.59303
1.59301
1.59299
1.59299
1.59301
1.59304
1.59308
1.59314
1.59321
1.5933
1.5934
1.59352
1.59366
1.5938
1.59396
1.59412
1.59428
1.59445
1.59461
1.59476
1.59489
1.59501
1.5951
1.59516
1.59519
1.59519
1.59515
1.59507
1.59495
1.5948
1.5946
1.59437
1.59411
1.59383
1.59352
1.59319
1.59285
1.59251
1.59216
1.59182
1.59149
1.59117
1.59087
1.5906
1.59035
1.59014
1.58997
1.58983
1.58974
1.5897
1.58969
1.58974
1.58983
1.58999
1.59017
1.59042
1.5907
1.59104
1.5914
1.59182
1.59225
1.59274
1.59322
1.59375
1.59426
1.59482
1.59535
1.59591
1.59643
1.59698
1.59747
1.59797
1.59841
1.59885
1.59919
1.59954
1.5998
1.60004
1.60017
1.60029
1.60029
1.60027
1.60013
1.59996
1.59967
1.59935
1.59892
1.59846
1.59789
1.5973
1.5966
1.59588
1.59507
1.59423
1.59333
1.59242
1.59146
1.59052
1.58956
1.58865
1.58777
1.58696
1.58621
1.58557
1.58501
1.58456
1.5842
1.58395
1.58379
1.58371
1.58371
1.58376
1.58385
1.58397
1.58411
1.58425
1.58439
1.58452
1.58463
1.58473
1.58481
1.58489
1.58495
1.58499
1.58501
1.58497
1.58486
1.58462
1.58419
1.58352
1.58252
1.58112
1.57926
1.5769
1.57403
1.57072
1.56706
1.56322
1.55937
1.55569
1.55232
1.54936
1.54684
1.54477
1.54312
1.54184
1.54089
1.5402
1.53972
1.53942
1.53925
1.53919
1.5392
1.53928
1.5394
1.53955
1.53973
1.53992
1.54012
1.54032
1.54052
1.54073
1.54092
1.54111
1.54129
1.54146
1.54161
1.54176
1.54189
1.54201
1.54212
1.54222
1.54231
1.54238
1.54245
1.54251
1.54255
1.5426
1.54263
1.54267
1.5427
1.54273
1.54276
1.5428
1.54283
1.54288
1.54293
1.54301
1.54308
1.54318
1.54327
1.54339
1.5435
1.54363
1.54374
1.54386
1.54394
1.54401
1.54404
1.54405
1.544
1.54393
1.54381
1.54366
1.54347
1.54327
1.54303
1.54279
1.54251
1.54226
1.54198
1.54172
1.54146
1.54123
1.54099
1.5408
1.54061
1.54047
1.54035
1.54028
1.54025
1.54029
1.54038
1.54059
1.54087
1.54132
1.54191
1.54274
1.54378
1.54514
1.54679
1.54881
1.55113
1.55378
1.55663
1.55963
1.56262
1.56552
1.56817
1.57054
1.57254
1.57421
1.57554
1.57659
1.57738
1.57801
1.57848
1.57886
1.57916
1.57941
1.57961
1.57976
1.57985
1.57989
1.57986
1.57977
1.57961
1.5794
1.57913
1.57883
1.57851
1.57818
1.57785
1.57755
1.57729
1.57709
1.57695
1.57689
1.57691
1.57702
1.57722
1.5775
1.57787
1.5783
1.5788
1.57934
1.57993
1.58052
1.58112
1.5817
1.58227
1.5828
1.58329
1.58373
1.58413
1.58446
1.58475
1.58497
1.58516
1.58528
1.58536
1.5854
1.5854
1.58535
1.58528
1.58518
1.58506
1.58491
1.58476
1.58459
1.58442
1.58424
1.58407
1.5839
1.58375
1.58361
1.58348
1.58338
1.5833
1.58324
1.58322
1.58322
1.58326
1.58333
1.58345
1.5836
1.58379
1.58402
1.5843
1.58462
1.58498
1.58538
1.58583
1.5863
1.58681
1.58735
1.58792
1.5885
1.5891
1.58971
1.59032
1.59093
1.59154
1.59212
1.5927
1.59325
1.59379
1.59429
1.59478
1.59523
1.59567
1.59608
1.59647
1.59683
1.59718
1.59751
1.59783
1.59813
1.59842
1.59869
1.59895
1.5992
1.59944
1.59967
1.59987
1.60007
1.60024
1.6004
1.60053
1.60065
1.60074
1.6008
1.60084
1.60085
1.60084
1.60079
1.60071
1.60061
1.60047
1.60031
1.60012
1.5999
1.59965
1.59938
1.59909
1.59878
1.59845
1.59812
1.59777
1.59741
1.59705
1.5967
1.59634
1.596
1.59566
1.59534
1.59503
1.59474
1.59447
1.59422
1.59398
1.59377
1.59358
1.5934
1.59324
1.5931
1.59298
1.59287
1.59278
1.5927
1.59264
1.59259
1.59255
1.59254
1.59253
1.59255
1.59258
1.59263
1.5927
1.59279
1.59289
1.59301
1.59314
1.59329
1.59345
1.59361
1.59378
1.59395
1.59411
1.59427
1.59441
1.59453
1.59463
1.59471
1.59475
1.59476
1.59474
1.59468
1.59458
1.59445
1.59428
1.59408
1.59386
1.59361
1.59333
1.59304
1.59274
1.59243
1.59212
1.59182
1.59152
1.59123
1.59096
1.59072
1.59049
1.5903
1.59014
1.59002
1.58993
1.58989
1.58989
1.58994
1.59002
1.59017
1.59035
1.59059
1.59085
1.59118
1.59152
1.59193
1.59234
1.59281
1.59328
1.5938
1.5943
1.59485
1.59537
1.59593
1.59644
1.59698
1.59746
1.59797
1.5984
1.59884
1.5992
1.59955
1.59978
1.60001
1.60013
1.60022
1.60019
1.60015
1.59997
1.59977
1.59945
1.59911
1.59866
1.59819
1.59761
1.59702
1.59634
1.59564
1.59486
1.59407
1.59321
1.59234
1.59144
1.59053
1.58962
1.58874
1.58788
1.58708
1.58635
1.5857
1.58513
1.58467
1.5843
1.58403
1.58385
1.58375
1.58372
1.58375
1.58382
1.58392
1.58403
1.58416
1.58428
1.5844
1.58451
1.58461
1.58469
1.58477
1.58483
1.58487
1.58489
1.58485
1.58474
1.58451
1.5841
1.58346
1.58249
1.58115
1.57934
1.57703
1.57422
1.57093
1.56729
1.56345
1.55959
1.55589
1.5525
1.54951
1.54697
1.54488
1.54322
1.54194
1.54098
1.54028
1.53981
1.5395
1.53934
1.53927
1.53929
1.53937
1.53949
1.53964
1.53982
1.54001
1.54021
1.54042
1.54062
1.54082
1.54102
1.54121
1.54139
1.54156
1.54171
1.54186
1.54198
1.5421
1.5422
1.54228
1.54235
1.54241
1.54245
1.54249
1.54252
1.54254
1.54255
1.54256
1.54257
1.54258
1.54259
1.54262
1.54264
1.54269
1.54273
1.54281
1.54288
1.54299
1.54309
1.54322
1.54334
1.54349
1.5436
1.54373
1.54382
1.54391
1.54394
1.54396
1.54391
1.54386
1.54374
1.5436
1.54341
1.54322
1.54298
1.54275
1.54248
1.54223
1.54196
1.54171
1.54145
1.54122
1.54098
1.54079
1.54059
1.54045
1.54031
1.54024
1.54018
1.54021
1.54028
1.54046
1.54072
1.54114
1.54171
1.54251
1.54353
1.54487
1.54651
1.54852
1.55085
1.55351
1.55638
1.55942
1.56244
1.56536
1.56803
1.57041
1.57242
1.57409
1.57541
1.57645
1.57723
1.57784
1.57829
1.57866
1.57894
1.57917
1.57933
1.57946
1.57952
1.57953