# vtk DataFile Version 2.0
LBE two cylinders
ASCII
DATASET STRUCTURED_POINTS
DIMENSIONS 400 100 1
ASPECT_RATIO 1 1 1
ORIGIN 0 0 0
POINT_DATA 40000
SCALARS rho double 1
LOOKUP_TABLE default
1.68568
1.68542
1.6852
1.68501
1.68485
1.68472
1.6846
1.6845
1.6844
1.68431
1.68423
1.68415
1.68408
1.684
1.68392
1.68384
1.68375
1.68367
1.68358
1.68349
1.68339
1.6833
1.6832
1.6831
1.68299
1.68288
1.68277
1.68266
1.68255
1.68243
1.6823
1.68218
1.68205
1.68191
1.68177
1.68162
1.68147
1.68131
1.68113
1.68095
1.68076
1.68057
1.68036
1.68014
1.67991
1.67967
1.67942
1.67916
1.6789
1.67863
1.67834
1.67806
1.67776
1.67747
1.67717
1.67687
1.67656
1.67626
1.67595
1.67565
1.67535
1.67506
1.67476
1.67448
1.67419
1.67392
1.67364
1.67338
1.67312
1.67287
1.67262
1.67238
1.67215
1.67193
1.67172
1.67151
1.67131
1.67112
1.67094
1.67077
1.67061
1.67046
1.67032
1.6702
1.67009
1.66999
1.66991
1.66985
1.6698
1.66977
1.66976
1.66977
1.6698
1.66985
1.66991
1.67
1.67011
1.67024
1.67038
1.67055
1.67073
1.67093
1.67114
1.67136
1.6716
1.67185
1.6721
1.67237
1.67264
1.67291
1.67319
1.67347
1.67375
1.67402
1.6743
1.67458
1.67485
1.67512
1.67538
1.67565
1.6759
1.67615
1.6764
1.67664
1.67687
1.67709
1.67731
1.67752
1.67772
1.67791
1.67809
1.67826
1.67842
1.67857
1.6787
1.67882
1.67892
1.679
1.67907
1.67912
1.67916
1.67918
1.67918
1.67916
1.67912
1.67907
1.679
1.67892
1.67883
1.67872
1.6786
1.67847
1.67834
1.6782
1.67805
1.6779
1.67775
1.6776
1.67745
1.67731
1.67717
1.67704
1.67691
1.67679
1.67668
1.67657
1.67648
1.67639
1.67632
1.67625
1.67619
1.67614
1.67609
1.67606
1.67603
1.676
1.67598
1.67596
1.67595
1.67594
1.67593
1.67593
1.67593
1.67593
1.67593
1.67594
1.67595
1.67596
1.67598
1.67599
1.67601
1.67603
1.67605
1.67607
1.67609
1.67612
1.67614
1.67616
1.67618
1.6762
1.67622
1.67625
1.67627
1.67631
1.67634
1.67638
1.67643
1.67648
1.67654
1.67662
1.6767
1.67679
1.6769
1.67701
1.67714
1.67728
1.67743
1.6776
1.67778
1.67797
1.67818
1.6784
1.67864
1.67889
1.67916
1.67943
1.67973
1.68003
1.68036
1.6807
1.68105
1.68142
1.68182
1.68223
1.68266
1.68312
1.6836
1.68412
1.68466
1.68524
1.68585
1.68649
1.68717
1.68788
1.68861
1.68937
1.69013
1.69091
1.69168
1.69243
1.69317
1.69386
1.69452
1.69512
1.69566
1.69613
1.69655
1.69689
1.69717
1.69738
1.69754
1.69763
1.69768
1.69769
1.69765
1.69758
1.69747
1.69734
1.69718
1.697
1.6968
1.69657
1.69633
1.69606
1.69577
1.69546
1.69513
1.69478
1.69441
1.69401
1.6936
1.69317
1.69272
1.69225
1.69178
1.69129
1.6908
1.6903
1.6898
1.68931
1.68881
1.68834
1.68787
1.68742
1.68699
1.68658
1.6862
1.68585
1.68553
1.68524
1.68499
1.68478
1.68461
1.68448
1.68438
1.68433
1.68431
1.68433
1.68439
1.68449
1.68462
1.68478
1.68498
1.6852
1.68546
1.68574
1.68605
1.68638
1.68674
1.68711
1.68751
1.68793
1.68837
1.68883
1.6893
1.68979
1.69029
1.69082
1.69135
1.69191
1.69247
1.69306
1.69365
1.69427
1.69489
1.69553
1.69618
1.69684
1.69751
1.69818
1.69886
1.69954
1.70022
1.70089
1.70156
1.70221
1.70286
1.70348
1.70408
1.70466
1.70521
1.70574
1.70623
1.70668
1.7071
1.70747
1.70781
1.70811
1.70836
1.70857
1.70875
1.70888
1.70898
1.70904
1.70908
1.70908
1.70906
1.70901
1.70894
1.70883
1.7087
1.70852
1.7083
1.70803
1.70768
1.70726
1.70675
1.70615
1.70544
1.70463
1.70371
1.7027
1.7016
1.70044
1.69922
1.69797
1.6967
1.69546
1.69425
1.69309
1.692
1.691
1.69007
1.68924
1.6885
1.68784
1.68727
1.68678
1.68635
1.68599
1.68564
1.68538
1.68515
1.68496
1.6848
1.68466
1.68454
1.68444
1.68434
1.68425
1.68417
1.68409
1.68401
1.68393
1.68385
1.68378
1.68369
1.68361
1.68352
1.68343
1.68333
1.68324
1.68313
1.68303
1.68293
1.68282
1.68271
1.6826
1.68248
1.68237
1.68224
1.68212
1.68198
1.68185
1.6817
1.68156
1.6814
1.68124
1.68106
1.68088
1.68069
1.68049
1.68028
1.68007
1.67984
1.6796
1.67935
1.67909
1.67883
1.67856
1.67827
1.67799
1.6777
1.6774
1.6771
1.6768
1.6765
1.6762
1.67589
1.67559
1.67529
1.675
1.67471
1.67442
1.67414
1.67386
1.67359
1.67333
1.67307
1.67282
1.67258
1.67235
1.67212
1.6719
1.67168
1.67148
1.67128
1.67109
1.67092
1.67075
1.67059
1.67045
1.67031
1.67019
1.67008
1.66999
1.66991
1.66985
1.66981
1.66978
1.66977
1.66978
1.66981
1.66986
1.66993
1.67002
1.67013
1.67026
1.6704
1.67057
1.67075
1.67095
1.67116
1.67138
1.67162
1.67186
1.67212
1.67238
1.67265
1.67292
1.67319
1.67347
1.67375
1.67403
1.6743
1.67458
1.67485
1.67511
1.67538
1.67564
1.67589
1.67614
1.67638
1.67662
1.67685
1.67707
1.67729
1.6775
1.6777
1.67789
1.67807
1.67824
1.67839
1.67854
1.67867
1.67878
1.67888
1.67897
1.67903
1.67909
1.67912
1.67913
1.67913
1.67912
1.67908
1.67903
1.67896
1.67888
1.67879
1.67868
1.67856
1.67844
1.6783
1.67816
1.67801
1.67787
1.67772
1.67757
1.67742
1.67728
1.67714
1.67701
1.67688
1.67676
1.67665
1.67655
1.67645
1.67637
1.67629
1.67623
1.67617
1.67612
1.67607
1.67604
1.67601
1.67598
1.67596
1.67594
1.67593
1.67592
1.67592
1.67591
1.67591
1.67592
1.67592
1.67593
1.67594
1.67595
1.67597
1.67599
1.67601
1.67603
1.67605
1.67607
1.67609
1.67612
1.67614
1.67616
1.67618
1.6762
1.67623
1.67625
1.67628
1.67631
1.67635
1.67639
1.67643
1.67649
1.67655
1.67662
1.67671
1.6768
1.6769
1.67702
1.67715
1.67729
1.67744
1.67761
1.67779
1.67798
1.67819
1.67841
1.67864
1.67889
1.67916
1.67943
1.67973
1.68003
1.68035
1.68069
1.68105
1.68141
1.68181
1.68222
1.68265
1.68311
1.6836
1.68411
1.68466
1.68523
1.68585
1.68649
1.68717
1.68787
1.68861
1.68935
1.69012
1.69089
1.69165
1.6924
1.69313
1.69381
1.69446
1.69505
1.69559
1.69606
1.69647
1.69681
1.69709
1.6973
1.69745
1.69755
1.6976
1.6976
1.69757
1.6975
1.6974
1.69726
1.69711
1.69693
1.69672
1.6965
1.69625
1.69598
1.6957
1.69539
1.69506
1.69471
1.69434
1.69394
1.69353
1.6931
1.69266
1.6922
1.69173
1.69124
1.69075
1.69026
1.68977
1.68928
1.68879
1.68832
1.68785
1.68741
1.68698
1.68658
1.6862
1.68586
1.68554
1.68526
1.68501
1.6848
1.68463
1.6845
1.6844
1.68435
1.68433
1.68435
1.68441
1.68451
1.68463
1.6848
1.68499
1.68522
1.68547
1.68575
1.68606
1.68639
1.68674
1.68712
1.68752
1.68794
1.68837
1.68883
1.6893
1.68979
1.6903
1.69082
1.69136
1.69191
1.69248
1.69307
1.69366
1.69428
1.6949
1.69554
1.69619
1.69685
1.69751
1.69819
1.69886
1.69954
1.70022
1.70089
1.70155
1.7022
1.70284
1.70345
1.70405
1.70463
1.70518
1.70569
1.70618
1.70663
1.70704
1.70742
1.70775
1.70805
1.7083
1.70851
1.70868
1.70881
1.70891
1.70897
1.709
1.70901
1.70898
1.70893
1.70885
1.70875
1.7086
1.70843
1.70819
1.70792
1.70756
1.70714
1.70663
1.70603
1.70532
1.70453
1.70361
1.70262
1.70153
1.70038
1.69917
1.69794
1.69669
1.69546
1.69425
1.6931
1.69201
1.69101
1.69008
1.68925
1.68849
1.68784
1.68725
1.68676
1.68632
1.68596
1.68552
1.68526
1.68503
1.68484
1.68467
1.68453
1.68441
1.6843
1.6842
1.68412
1.68403
1.68396
1.68388
1.6838
1.68372
1.68364
1.68356
1.68347
1.68338
1.6833
1.6832
1.68311
1.683
1.6829
1.6828
1.68269
1.68258
1.68247
1.68235
1.68223
1.68211
1.68198
1.68185
1.68171
1.68157
1.68142
1.68127
1.6811
1.68093
1.68075
1.68056
1.68036
1.68015
1.67993
1.6797
1.67946
1.67922
1.67896
1.6787
1.67842
1.67815
1.67786
1.67757
1.67728
1.67698
1.67668
1.67638
1.67608
1.67578
1.67548
1.67518
1.67489
1.6746
1.67432
1.67404
1.67377
1.6735
1.67324
1.67299
1.67274
1.6725
1.67227
1.67205
1.67183
1.67162
1.67142
1.67123
1.67105
1.67087
1.67071
1.67056
1.67042
1.67029
1.67017
1.67007
1.66998
1.66991
1.66985
1.66981
1.66979
1.66978
1.6698
1.66983
1.66988
1.66995
1.67004
1.67015
1.67028
1.67043
1.67059
1.67077
1.67097
1.67118
1.6714
1.67164
1.67188
1.67213
1.6724
1.67266
1.67293
1.6732
1.67348
1.67375
1.67403
1.6743
1.67457
1.67484
1.67511
1.67536
1.67562
1.67587
1.67612
1.67636
1.67659
1.67682
1.67704
1.67726
1.67746
1.67766
1.67785
1.67802
1.67819
1.67834
1.67848
1.67861
1.67872
1.67882
1.6789
1.67897
1.67902
1.67905
1.67906
1.67906
1.67904
1.679
1.67895
1.67888
1.6788
1.67871
1.6786
1.67848
1.67836
1.67822
1.67808
1.67794
1.67779
1.67764
1.6775
1.67735
1.67721
1.67707
1.67694
1.67682
1.6767
1.67659
1.67649
1.6764
1.67631
1.67624
1.67617
1.67612
1.67607
1.67602
1.67599
1.67596
1.67594
1.67592
1.6759
1.67589
1.67588
1.67588
1.67588
1.67588
1.67589
1.67589
1.6759
1.67592
1.67593
1.67595
1.67597
1.67599
1.67601
1.67604
1.67606
1.67609
1.67611
1.67613
1.67615
1.67618
1.6762
1.67623
1.67625
1.67628
1.67631
1.67635
1.67639
1.67644
1.67649
1.67656
1.67663
1.67671
1.6768
1.67691
1.67702
1.67715
1.67729
1.67744
1.67761
1.67779
1.67798
1.67819
1.6784
1.67864
1.67888
1.67915
1.67942
1.67971
1.68001
1.68034
1.68067
1.68102
1.68139
1.68178
1.68219
1.68262
1.68308
1.68356
1.68408
1.68462
1.6852
1.68581
1.68645
1.68713
1.68783
1.68856
1.68931
1.69007
1.69084
1.6916
1.69234
1.69306
1.69374
1.69438
1.69497
1.6955
1.69596
1.69637
1.6967
1.69697
1.69718
1.69733
1.69743
1.69748
1.69748
1.69745
1.69737
1.69727
1.69714
1.69698
1.6968
1.6966
1.69637
1.69613
1.69586
1.69557
1.69526
1.69494
1.69459
1.69422
1.69383
1.69342
1.693
1.69256
1.6921
1.69164
1.69116
1.69068
1.69019
1.68971
1.68922
1.68875
1.68828
1.68782
1.68738
1.68696
1.68657
1.6862
1.68585
1.68554
1.68526
1.68502
1.68481
1.68464
1.68451
1.68442
1.68436
1.68435
1.68437
1.68442
1.68452
1.68465
1.68481
1.685
1.68522
1.68547
1.68575
1.68605
1.68638
1.68674
1.68711
1.68751
1.68793
1.68836
1.68882
1.68929
1.68979
1.69029
1.69082
1.69136
1.69192
1.69249
1.69307
1.69367
1.69429
1.69492
1.69556
1.6962
1.69686
1.69753
1.6982
1.69887
1.69955
1.70022
1.70089
1.70154
1.70219
1.70282
1.70343
1.70403
1.70459
1.70513
1.70565
1.70612
1.70657
1.70698
1.70735
1.70767
1.70796
1.70821
1.70842
1.70858
1.70871
1.7088
1.70886
1.70889
1.70889
1.70886
1.70881
1.70871
1.70861
1.70845
1.70827
1.70803
1.70776
1.7074
1.70698
1.70646
1.70587
1.70517
1.70438
1.70347
1.7025
1.70141
1.70028
1.69908
1.69786
1.69661
1.69539
1.69418
1.69304
1.69195
1.69094
1.69001
1.68917
1.68841
1.68775
1.68716
1.68666
1.68622
1.68585
1.68534
1.68507
1.68484
1.68465
1.68448
1.68434
1.68421
1.6841
1.684
1.68392
1.68383
1.68375
1.68367
1.6836
1.68352
1.68344
1.68336
1.68327
1.68318
1.68309
1.683
1.68291
1.68281
1.6827
1.6826
1.68249
1.68238
1.68227
1.68216
1.68204
1.68191
1.68178
1.68165
1.68152
1.68137
1.68122
1.68107
1.6809
1.68073
1.68055
1.68036
1.68016
1.67995
1.67973
1.67951
1.67927
1.67902
1.67877
1.67851
1.67824
1.67796
1.67768
1.67739
1.6771
1.6768
1.67651
1.67621
1.67591
1.67561
1.67532
1.67503
1.67474
1.67445
1.67417
1.6739
1.67363
1.67337
1.67311
1.67286
1.67262
1.67239
1.67216
1.67194
1.67173
1.67153
1.67133
1.67115
1.67097
1.6708
1.67065
1.6705
1.67037
1.67024
1.67013
1.67004
1.66996
1.66989
1.66984
1.6698
1.66979
1.66979
1.66981
1.66984
1.6699
1.66998
1.67007
1.67018
1.67032
1.67046
1.67063
1.67081
1.67101
1.67121
1.67144
1.67167
1.67191
1.67216
1.67242
1.67268
1.67295
1.67322
1.67349
1.67376
1.67403
1.6743
1.67457
1.67483
1.6751
1.67535
1.67561
1.67585
1.6761
1.67633
1.67656
1.67678
1.677
1.67721
1.67741
1.6776
1.67779
1.67796
1.67812
1.67827
1.6784
1.67852
1.67864
1.67873
1.67881
1.67887
1.67892
1.67894
1.67896
1.67895
1.67893
1.67889
1.67884
1.67877
1.67869
1.67859
1.67849
1.67837
1.67824
1.67811
1.67797
1.67783
1.67768
1.67754
1.67739
1.67725
1.67711
1.67697
1.67684
1.67672
1.6766
1.67649
1.6764
1.67631
1.67623
1.67615
1.67609
1.67603
1.67599
1.67595
1.67591
1.67589
1.67587
1.67585
1.67584
1.67583
1.67582
1.67582
1.67582
1.67583
1.67584
1.67585
1.67586
1.67588
1.6759
1.67592
1.67594
1.67596
1.67599
1.67601
1.67604
1.67607
1.67609
1.67612
1.67614
1.67617
1.67619
1.67622
1.67625
1.67628
1.67631
1.67635
1.67639
1.67644
1.67649
1.67656
1.67663
1.67671
1.6768
1.67691
1.67702
1.67715
1.67729
1.67744
1.6776
1.67778
1.67797
1.67818
1.67839
1.67863
1.67887
1.67913
1.6794
1.67969
1.67999
1.68031
1.68064
1.68099
1.68135
1.68174
1.68214
1.68257
1.68303
1.68351
1.68402
1.68456
1.68514
1.68575
1.68639
1.68706
1.68776
1.68849
1.68923
1.68999
1.69075
1.6915
1.69224
1.69295
1.69363
1.69426
1.69484
1.69536
1.69582
1.69622
1.69655
1.69682
1.69702
1.69717
1.69726
1.69731
1.69731
1.69727
1.6972
1.69709
1.69696
1.6968
1.69662
1.69642
1.69619
1.69595
1.69568
1.6954
1.69509
1.69476
1.69442
1.69405
1.69367
1.69327
1.69285
1.69242
1.69197
1.69151
1.69104
1.69057
1.6901
1.68962
1.68915
1.68868
1.68822
1.68777
1.68734
1.68693
1.68654
1.68618
1.68584
1.68554
1.68526
1.68502
1.68482
1.68465
1.68452
1.68443
1.68438
1.68436
1.68438
1.68443
1.68453
1.68465
1.68481
1.685
1.68522
1.68547
1.68574
1.68604
1.68637
1.68672
1.6871
1.68749
1.68791
1.68835
1.68881
1.68928
1.68977
1.69028
1.69081
1.69136
1.69192
1.69249
1.69308
1.69368
1.6943
1.69493
1.69557
1.69623
1.69689
1.69755
1.69822
1.69889
1.69957
1.70023
1.7009
1.70155
1.70219
1.70281
1.70342
1.704
1.70456
1.70509
1.7056
1.70606
1.7065
1.70689
1.70726
1.70757
1.70786
1.70809
1.70829
1.70845
1.70858
1.70866
1.70872
1.70873
1.70873
1.70869
1.70863
1.70854
1.70842
1.70826
1.70808
1.70783
1.70755
1.70718
1.70677
1.70625
1.70566
1.70496
1.70418
1.70328
1.70231
1.70124
1.70011
1.69892
1.69771
1.69647
1.69525
1.69405
1.69291
1.69181
1.6908
1.68987
1.68903
1.68826
1.68759
1.687
1.68649
1.68604
1.68567
1.68509
1.68482
1.68458
1.68438
1.68421
1.68407
1.68394
1.68384
1.68373
1.68365
1.68356
1.68348
1.6834
1.68333
1.68325
1.68317
1.68309
1.683
1.68291
1.68283
1.68273
1.68264
1.68254
1.68244
1.68234
1.68223
1.68212
1.68201
1.68189
1.68177
1.68165
1.68152
1.68139
1.68125
1.68111
1.68096
1.68081
1.68064
1.68047
1.68029
1.6801
1.6799
1.6797
1.67948
1.67925
1.67901
1.67877
1.67852
1.67826
1.67799
1.67772
1.67744
1.67716
1.67687
1.67658
1.67628
1.67599
1.67569
1.6754
1.67511
1.67482
1.67454
1.67426
1.67398
1.67372
1.67345
1.6732
1.67295
1.6727
1.67247
1.67224
1.67202
1.67181
1.67161
1.67141
1.67122
1.67105
1.67088
1.67072
1.67057
1.67043
1.67031
1.67019
1.67009
1.67
1.66993
1.66987
1.66983
1.6698
1.66979
1.6698
1.66982
1.66986
1.66993
1.67
1.6701
1.67022
1.67035
1.6705
1.67067
1.67085
1.67105
1.67125
1.67148
1.6717
1.67195
1.67219
1.67245
1.67271
1.67297
1.67324
1.67351
1.67377
1.67404
1.6743
1.67457
1.67482
1.67508
1.67533
1.67558
1.67582
1.67606
1.67628
1.67651
1.67673
1.67694
1.67714
1.67734
1.67752
1.6777
1.67786
1.67802
1.67816
1.6783
1.67841
1.67852
1.6786
1.67868
1.67873
1.67878
1.6788
1.67881
1.6788
1.67878
1.67874
1.67869
1.67861
1.67853
1.67843
1.67833
1.67821
1.67809
1.67796
1.67782
1.67768
1.67754
1.67739
1.67725
1.6771
1.67697
1.67683
1.67671
1.67659
1.67648
1.67637
1.67628
1.67619
1.67611
1.67604
1.67598
1.67592
1.67588
1.67584
1.67582
1.67579
1.67577
1.67575
1.67575
1.67574
1.67574
1.67574
1.67575
1.67576
1.67577
1.67578
1.6758
1.67582
1.67584
1.67587
1.67589
1.67592
1.67595
1.67598
1.67601
1.67604
1.67607
1.6761
1.67612
1.67615
1.67618
1.67621
1.67623
1.67627
1.6763
1.67634
1.67638
1.67643
1.67649
1.67655
1.67662
1.67671
1.6768
1.67691
1.67702
1.67715
1.67728
1.67744
1.6776
1.67778
1.67796
1.67817
1.67838
1.67861
1.67885
1.67911
1.67937
1.67966
1.67995
1.68027
1.68059
1.68094
1.6813
1.68168
1.68208
1.68251
1.68296
1.68343
1.68394
1.68448
1.68505
1.68566
1.6863
1.68696
1.68766
1.68838
1.68912
1.68987
1.69063
1.69138
1.6921
1.69281
1.69348
1.6941
1.69467
1.69519
1.69564
1.69603
1.69635
1.69662
1.69681
1.69696
1.69705
1.69709
1.69709
1.69705
1.69697
1.69686
1.69673
1.69657
1.69638
1.69618
1.69595
1.69571
1.69544
1.69516
1.69486
1.69454
1.69419
1.69383
1.69346
1.69306
1.69265
1.69223
1.69179
1.69134
1.69089
1.69043
1.68996
1.6895
1.68904
1.68858
1.68814
1.6877
1.68728
1.68688
1.68651
1.68615
1.68582
1.68552
1.68526
1.68502
1.68482
1.68466
1.68453
1.68444
1.68439
1.68437
1.68439
1.68444
1.68453
1.68465
1.68481
1.68499
1.68521
1.68545
1.68573
1.68602
1.68635
1.6867
1.68707
1.68747
1.68789
1.68832
1.68878
1.68926
1.68975
1.69027
1.6908
1.69135
1.69191
1.69249
1.69309
1.69369
1.69432
1.69495
1.6956
1.69625
1.69691
1.69758
1.69825
1.69892
1.69959
1.70025
1.70091
1.70155
1.70219
1.7028
1.7034
1.70397
1.70452
1.70504
1.70553
1.70599
1.70641
1.7068
1.70715
1.70745
1.70772
1.70795
1.70814
1.70829
1.7084
1.70848
1.70853
1.70854
1.70853
1.70848
1.70841
1.70831
1.70819
1.70802
1.70783
1.70757
1.70728
1.70691
1.70649
1.70597
1.70539
1.70469
1.70391
1.70302
1.70206
1.701
1.69989
1.6987
1.6975
1.69626
1.69505
1.69385
1.69271
1.69161
1.6906
1.68966
1.68882
1.68805
1.68737
1.68677
1.68626
1.6858
1.68542
1.68478
1.6845
1.68426
1.68406
1.68388
1.68374
1.68361
1.6835
1.6834
1.68331
1.68322
1.68315
1.68306
1.68299
1.68291
1.68283
1.68275
1.68267
1.68258
1.68249
1.6824
1.68231
1.68221
1.68211
1.68201
1.6819
1.68179
1.68168
1.68157
1.68145
1.68133
1.6812
1.68107
1.68093
1.68079
1.68064
1.68049
1.68032
1.68015
1.67997
1.67979
1.67959
1.67938
1.67917
1.67895
1.67871
1.67847
1.67822
1.67797
1.6777
1.67743
1.67715
1.67688
1.67659
1.67631
1.67601
1.67573
1.67544
1.67515
1.67486
1.67458
1.6743
1.67403
1.67376
1.6735
1.67324
1.67299
1.67275
1.67251
1.67228
1.67206
1.67185
1.67165
1.67145
1.67127
1.67109
1.67092
1.67076
1.67061
1.67047
1.67034
1.67023
1.67012
1.67003
1.66995
1.66989
1.66984
1.66981
1.66979
1.66979
1.6698
1.66983
1.66988
1.66995
1.67003
1.67014
1.67026
1.6704
1.67055
1.67072
1.6709
1.6711
1.6713
1.67152
1.67175
1.67199
1.67223
1.67249
1.67274
1.673
1.67326
1.67352
1.67378
1.67404
1.6743
1.67456
1.67481
1.67506
1.6753
1.67555
1.67578
1.67601
1.67623
1.67645
1.67666
1.67687
1.67706
1.67725
1.67742
1.6776
1.67775
1.6779
1.67804
1.67816
1.67827
1.67837
1.67845
1.67852
1.67857
1.67861
1.67863
1.67864
1.67862
1.6786
1.67855
1.6785
1.67842
1.67834
1.67824
1.67814
1.67802
1.6779
1.67777
1.67764
1.67749
1.67736
1.67721
1.67707
1.67693
1.6768
1.67667
1.67655
1.67642
1.67632
1.67621
1.67613
1.67604
1.67597
1.6759
1.67584
1.67579
1.67575
1.67571
1.67569
1.67567
1.67566
1.67564
1.67564
1.67563
1.67564
1.67564
1.67566
1.67567
1.67568
1.6757
1.67573
1.67575
1.67578
1.6758
1.67584
1.67587
1.6759
1.67593
1.67597
1.676
1.67603
1.67606
1.6761
1.67613
1.67616
1.67619
1.67622
1.67625
1.67629
1.67633
1.67637
1.67642
1.67648
1.67655
1.67662
1.6767
1.67679
1.6769
1.67701
1.67714
1.67727
1.67743
1.67758
1.67776
1.67795
1.67815
1.67836
1.67859
1.67882
1.67907
1.67934
1.67962
1.67991
1.68021
1.68053
1.68087
1.68123
1.6816
1.682
1.68242
1.68286
1.68334
1.68384
1.68437
1.68494
1.68554
1.68617
1.68684
1.68753
1.68825
1.68898
1.68973
1.69047
1.69121
1.69193
1.69263
1.69329
1.69391
1.69447
1.69498
1.69542
1.6958
1.69611
1.69637
1.69656
1.6967
1.69678
1.69682
1.69681
1.69677
1.69669
1.69658
1.69644
1.69628
1.69609
1.69589
1.69566
1.69542
1.69515
1.69487
1.69457
1.69425
1.69391
1.69356
1.69319
1.69281
1.69241
1.69199
1.69157
1.69113
1.69069
1.69025
1.6898
1.68935
1.6889
1.68846
1.68803
1.68761
1.68721
1.68682
1.68645
1.6861
1.68579
1.6855
1.68524
1.68501
1.68482
1.68465
1.68453
1.68444
1.68439
1.68437
1.68439
1.68444
1.68452
1.68464
1.68479
1.68497
1.68519
1.68543
1.6857
1.68599
1.68632
1.68666
1.68704
1.68743
1.68785
1.68828
1.68875
1.68922
1.68972
1.69024
1.69078
1.69133
1.6919
1.69249
1.69309
1.6937
1.69433
1.69497
1.69562
1.69628
1.69694
1.69761
1.69828
1.69895
1.69961
1.70027
1.70093
1.70156
1.70219
1.70279
1.70338
1.70394
1.70448
1.70498
1.70546
1.7059
1.70631
1.70668
1.70701
1.7073
1.70756
1.70777
1.70795
1.70809
1.70819
1.70825
1.7083
1.70829
1.70828
1.70821
1.70814
1.70803
1.7079
1.70772
1.70752
1.70726
1.70696
1.70659
1.70617
1.70564
1.70506
1.70436
1.70359
1.70271
1.70176
1.7007
1.6996
1.69842
1.69723
1.69599
1.69479
1.69359
1.69245
1.69135
1.69034
1.68939
1.68854
1.68776
1.68709
1.68648
1.68596
1.6855
1.68511
1.6844
1.68412
1.68387
1.68367
1.68349
1.68334
1.68321
1.6831
1.683
1.68291
1.68282
1.68274
1.68266
1.68259
1.68251
1.68243
1.68235
1.68227
1.68219
1.6821
1.68201
1.68191
1.68182
1.68172
1.68162
1.68151
1.68141
1.68129
1.68118
1.68106
1.68095
1.68081
1.68069
1.68055
1.68041
1.68026
1.68011
1.67994
1.67978
1.6796
1.67942
1.67922
1.67902
1.6788
1.67859
1.67835
1.67812
1.67787
1.67762
1.67736
1.6771
1.67682
1.67655
1.67627
1.67599
1.67571
1.67543
1.67514
1.67486
1.67458
1.67431
1.67403
1.67377
1.6735
1.67325
1.673
1.67276
1.67252
1.6723
1.67208
1.67187
1.67166
1.67147
1.67128
1.67111
1.67094
1.67078
1.67064
1.6705
1.67037
1.67025
1.67015
1.67006
1.66998
1.66991
1.66986
1.66981
1.66979
1.66978
1.66979
1.66981
1.66985
1.6699
1.66998
1.67007
1.67018
1.6703
1.67044
1.67059
1.67077
1.67095
1.67114
1.67135
1.67157
1.67179
1.67203
1.67227
1.67252
1.67277
1.67302
1.67327
1.67353
1.67378
1.67404
1.67429
1.67454
1.67478
1.67503
1.67526
1.6755
1.67572
1.67594
1.67615
1.67637
1.67656
1.67676
1.67695
1.67713
1.6773
1.67746
1.67761
1.67775
1.67787
1.678
1.67809
1.67819
1.67826
1.67832
1.67837
1.6784
1.67841
1.67842
1.6784
1.67837
1.67832
1.67827
1.67819
1.67812
1.67801
1.67791
1.67779
1.67768
1.67754
1.67741
1.67727
1.67714
1.67699
1.67686
1.67672
1.6766
1.67646
1.67635
1.67623
1.67613
1.67603
1.67595
1.67586
1.6758
1.67573
1.67568
1.67563
1.6756
1.67556
1.67555
1.67552
1.67552
1.6755
1.67551
1.67551
1.67552
1.67552
1.67554
1.67556
1.67558
1.6756
1.67563
1.67566
1.67569
1.67572
1.67576
1.6758
1.67584
1.67587
1.67591
1.67595
1.67599
1.67602
1.67606
1.67609
1.67613
1.67616
1.67619
1.67623
1.67627
1.67631
1.67636
1.67641
1.67647
1.67653
1.67661
1.67669
1.67678
1.67689
1.677
1.67713
1.67726
1.67741
1.67757
1.67774
1.67792
1.67812
1.67833
1.67855
1.67878
1.67903
1.67929
1.67956
1.67985
1.68015
1.68046
1.68079
1.68114
1.68151
1.6819
1.68231
1.68275
1.68322
1.68371
1.68424
1.6848
1.6854
1.68603
1.68668
1.68737
1.68808
1.68881
1.68954
1.69028
1.69101
1.69173
1.69242
1.69306
1.69367
1.69422
1.69472
1.69515
1.69553
1.69583
1.69608
1.69626
1.6964
1.69647
1.6965
1.69649
1.69644
1.69635
1.69624
1.6961
1.69593
1.69574
1.69554
1.69531
1.69506
1.6948
1.69452
1.69422
1.69391
1.69358
1.69323
1.69287
1.6925
1.69211
1.69171
1.6913
1.69088
1.69045
1.69002
1.68959
1.68916
1.68873
1.68831
1.6879
1.68749
1.6871
1.68673
1.68638
1.68604
1.68574
1.68546
1.68521
1.68498
1.6848
1.68464
1.68452
1.68443
1.68438
1.68436
1.68438
1.68442
1.68451
1.68462
1.68477
1.68495
1.68516
1.68539
1.68566
1.68595
1.68627
1.68661
1.68699
1.68738
1.6878
1.68823
1.6887
1.68918
1.68968
1.6902
1.69075
1.6913
1.69188
1.69247
1.69308
1.6937
1.69434
1.69498
1.69564
1.6963
1.69697
1.69764
1.69831
1.69897
1.69964
1.70029
1.70094
1.70157
1.70218
1.70278
1.70335
1.7039
1.70442
1.70491
1.70537
1.70579
1.70619
1.70654
1.70686
1.70713
1.70737
1.70756
1.70773
1.70785
1.70794
1.70799
1.70802
1.708
1.70798
1.7079
1.70782
1.70769
1.70756
1.70736
1.70716
1.70688
1.70659
1.7062
1.70578
1.70525
1.70467
1.70397
1.70321
1.70233
1.70139
1.70034
1.69925
1.69808
1.69689
1.69566
1.69447
1.69327
1.69213
1.69103
1.69001
1.68906
1.6882
1.68742
1.68673
1.68612
1.68559
1.68513
1.68474
1.68395
1.68367
1.68341
1.68321
1.68303
1.68288
1.68275
1.68264
1.68253
1.68245
1.68236
1.68228
1.6822
1.68213
1.68205
1.68197
1.68189
1.68181
1.68173
1.68165
1.68156
1.68146
1.68137
1.68127
1.68118
1.68107
1.68097
1.68085
1.68075
1.68063
1.68051
1.68038
1.68026
1.68012
1.67999
1.67983
1.67969
1.67952
1.67937
1.67918
1.67901
1.67881
1.67862
1.6784
1.67819
1.67796
1.67774
1.67749
1.67725
1.67699
1.67673
1.67646
1.6762
1.67592
1.67565
1.67537
1.6751
1.67481
1.67454
1.67427
1.674
1.67373
1.67348
1.67322
1.67298
1.67273
1.6725
1.67227
1.67205
1.67184
1.67164
1.67145
1.67127
1.67109
1.67092
1.67077
1.67062
1.67049
1.67036
1.67025
1.67014
1.67005
1.66997
1.6699
1.66984
1.6698
1.66977
1.66976
1.66976
1.66978
1.66981
1.66986
1.66993
1.67001
1.67011
1.67022
1.67035
1.6705
1.67065
1.67083
1.67101
1.67121
1.67141
1.67163
1.67185
1.67208
1.67231
1.67256
1.6728
1.67305
1.67329
1.67354
1.67378
1.67403
1.67427
1.67452
1.67475
1.67498
1.67521
1.67544
1.67565
1.67586
1.67606
1.67627
1.67646
1.67665
1.67682
1.67699
1.67715
1.67731
1.67744
1.67758
1.67769
1.6778
1.67789
1.67798
1.67804
1.6781
1.67813
1.67816
1.67817
1.67817
1.67814
1.67812
1.67806
1.67801
1.67793
1.67785
1.67775
1.67765
1.67753
1.67742
1.67728
1.67716
1.67702
1.67689
1.67675
1.67663
1.67649
1.67637
1.67624
1.67613
1.67601
1.67592
1.67582
1.67575
1.67566
1.6756
1.67554
1.6755
1.67545
1.67542
1.67539
1.67538
1.67536
1.67536
1.67535
1.67536
1.67536
1.67538
1.67539
1.67541
1.67543
1.67546
1.67548
1.67552
1.67555
1.6756
1.67563
1.67568
1.67571
1.67576
1.6758
1.67585
1.67589
1.67593
1.67597
1.67601
1.67605
1.67609
1.67612
1.67616
1.6762
1.67624
1.67629
1.67633
1.67639
1.67645
1.67652
1.67659
1.67667
1.67676
1.67687
1.67698
1.6771
1.67724
1.67739
1.67754
1.67771
1.67789
1.67809
1.67829
1.67851
1.67874
1.67898
1.67923
1.6795
1.67977
1.68007
1.68037
1.6807
1.68104
1.6814
1.68178
1.68218
1.68262
1.68307
1.68356
1.68409
1.68464
1.68523
1.68585
1.6865
1.68718
1.68788
1.6886
1.68933
1.69006
1.69078
1.69149
1.69216
1.6928
1.6934
1.69394
1.69443
1.69485
1.69521
1.69551
1.69575
1.69592
1.69604
1.69611
1.69613
1.69611
1.69606
1.69596
1.69585
1.6957
1.69553
1.69534
1.69513
1.6949
1.69465
1.69439
1.69411
1.69382
1.69351
1.69319
1.69285
1.6925
1.69213
1.69176
1.69137
1.69098
1.69058
1.69017
1.68976
1.68935
1.68893
1.68853
1.68812
1.68773
1.68734
1.68697
1.68661
1.68628
1.68596
1.68567
1.68539
1.68516
1.68494
1.68476
1.68461
1.68449
1.6844
1.68436
1.68433
1.68435
1.68439
1.68448
1.68458
1.68473
1.6849
1.68511
1.68534
1.6856
1.68589
1.68621
1.68655
1.68692
1.68731
1.68773
1.68817
1.68863
1.68912
1.68963
1.69015
1.6907
1.69126
1.69185
1.69245
1.69307
1.69369
1.69434
1.69499
1.69565
1.69632
1.69699
1.69766
1.69833
1.699
1.69966
1.70031
1.70095
1.70157
1.70217
1.70275
1.70331
1.70384
1.70435
1.70482
1.70526
1.70567
1.70604
1.70637
1.70667
1.70692
1.70714
1.70732
1.70747
1.70757
1.70765
1.70768
1.7077
1.70767
1.70763
1.70754
1.70745
1.70731
1.70716
1.70696
1.70674
1.70646
1.70615
1.70576
1.70534
1.7048
1.70423
1.70353
1.70278
1.7019
1.70097
1.69992
1.69884
1.69767
1.6965
1.69527
1.69408
1.69288
1.69174
1.69064
1.68962
1.68866
1.6878
1.68701
1.68632
1.6857
1.68517
1.68469
1.6843
1.68345
1.68316
1.6829
1.6827
1.68251
1.68237
1.68223
1.68212
1.68201
1.68193
1.68184
1.68176
1.68168
1.68161
1.68153
1.68146
1.68138
1.6813
1.68122
1.68114
1.68105
1.68096
1.68087
1.68077
1.68068
1.68057
1.68048
1.68036
1.68026
1.68014
1.68003
1.6799
1.67978
1.67964
1.67952
1.67936
1.67923
1.67906
1.67891
1.67872
1.67856
1.67836
1.67817
1.67796
1.67776
1.67753
1.67731
1.67707
1.67683
1.67658
1.67633
1.67606
1.67581
1.67554
1.67528
1.675
1.67474
1.67446
1.6742
1.67393
1.67368
1.67341
1.67317
1.67292
1.67268
1.67245
1.67223
1.67201
1.6718
1.6716
1.67141
1.67123
1.67106
1.67089
1.67074
1.6706
1.67046
1.67034
1.67022
1.67012
1.67003
1.66995
1.66988
1.66983
1.66979
1.66976
1.66974
1.66974
1.66975
1.66978
1.66982
1.66988
1.66995
1.67004
1.67014
1.67027
1.67039
1.67055
1.6707
1.67088
1.67106
1.67126
1.67146
1.67168
1.67189
1.67212
1.67235
1.67259
1.67282
1.67307
1.6733
1.67354
1.67377
1.67402
1.67424
1.67448
1.6747
1.67492
1.67513
1.67535
1.67555
1.67576
1.67595
1.67614
1.67632
1.6765
1.67665
1.67682
1.67696
1.67711
1.67723
1.67736
1.67746
1.67757
1.67764
1.67773
1.67778
1.67783
1.67786
1.67788
1.67788
1.67788
1.67785
1.67782
1.67776
1.67771
1.67763
1.67755
1.67745
1.67736
1.67723
1.67713
1.67699
1.67688
1.67674
1.67662
1.67648
1.67636
1.67622
1.67611
1.67598
1.67588
1.67577
1.67569
1.67559
1.67552
1.67544
1.67539
1.67532
1.67529
1.67524
1.67523
1.67519
1.67519
1.67517
1.67518
1.67517
1.67519
1.67519
1.67522
1.67523
1.67527
1.67529
1.67533
1.67535
1.6754
1.67543
1.67548
1.67552
1.67558
1.67562
1.67567
1.67572
1.67577
1.67581
1.67587
1.67591
1.67595
1.67599
1.67604
1.67608
1.67612
1.67616
1.67621
1.67625
1.6763
1.67636
1.67642
1.67649
1.67656
1.67665
1.67674
1.67684
1.67695
1.67708
1.67721
1.67735
1.67751
1.67768
1.67785
1.67804
1.67824
1.67846
1.67868
1.67891
1.67916
1.67942
1.67969
1.67997
1.68027
1.68058
1.68092
1.68127
1.68164
1.68204
1.68246
1.68291
1.68339
1.6839
1.68445
1.68503
1.68564
1.68629
1.68696
1.68765
1.68836
1.68908
1.68981
1.69052
1.69121
1.69188
1.69251
1.69309
1.69362
1.6941
1.69451
1.69486
1.69514
1.69537
1.69553
1.69564
1.6957
1.69572
1.69569
1.69562
1.69552
1.6954
1.69524
1.69507
1.69487
1.69466
1.69443
1.69418
1.69392
1.69365
1.69336
1.69305
1.69274
1.69241
1.69207
1.69171
1.69135
1.69098
1.69061
1.69022
1.68984
1.68944
1.68906
1.68866
1.68828
1.68789
1.68752
1.68715
1.68681
1.68647
1.68615
1.68584
1.68557
1.68531
1.68509
1.68488
1.68471
1.68456
1.68445
1.68436
1.68431
1.68429
1.68431
1.68435
1.68443
1.68453
1.68467
1.68484
1.68504
1.68527
1.68553
1.68581
1.68613
1.68646
1.68683
1.68722
1.68764
1.68808
1.68855
1.68904
1.68955
1.69008
1.69064
1.69121
1.6918
1.69241
1.69304
1.69367
1.69433
1.69498
1.69565
1.69632
1.697
1.69767
1.69835
1.69901
1.69967
1.70031
1.70094
1.70155
1.70215
1.70271
1.70326
1.70377
1.70426
1.70471
1.70514
1.70551
1.70587
1.70617
1.70645
1.70668
1.70689
1.70704
1.70717
1.70725
1.70732
1.70733
1.70733
1.70728
1.70723
1.70713
1.70703
1.70687
1.70671
1.70649
1.70627
1.70597
1.70567
1.70526
1.70484
1.7043
1.70373
1.70303
1.70228
1.70141
1.70049
1.69945
1.69838
1.69721
1.69605
1.69482
1.69364
1.69243
1.6913
1.69019
1.68917
1.6882
1.68734
1.68654
1.68585
1.68521
1.68468
1.6842
1.6838
1.68289
1.6826
1.68233
1.68213
1.68194
1.68179
1.68165
1.68154
1.68144
1.68135
1.68126
1.68119
1.68111
1.68104
1.68096
1.68089
1.68082
1.68074
1.68066
1.68058
1.6805
1.68041
1.68033
1.68023
1.68014
1.68004
1.67994
1.67983
1.67973
1.67961
1.67951
1.67938
1.67927
1.67913
1.67901
1.67886
1.67873
1.67856
1.67842
1.67824
1.67808
1.67788
1.6777
1.67749
1.6773
1.67707
1.67686
1.67662
1.6764
1.67615
1.67591
1.67565
1.6754
1.67514
1.67489
1.67462
1.67436
1.67409
1.67384
1.67358
1.67333
1.67308
1.67284
1.6726
1.67237
1.67215
1.67194
1.67173
1.67153
1.67134
1.67116
1.67099
1.67083
1.67067
1.67053
1.6704
1.67028
1.67017
1.67007
1.66998
1.6699
1.66984
1.66978
1.66974
1.66971
1.6697
1.66969
1.66971
1.66973
1.66977
1.66982
1.6699
1.66998
1.67008
1.67019
1.67032
1.67045
1.67061
1.67076
1.67094
1.67112
1.67132
1.67152
1.67173
1.67194
1.67217
1.67238
1.67262
1.67284
1.67308
1.6733
1.67353
1.67375
1.67399
1.6742
1.67443
1.67463
1.67485
1.67505
1.67526
1.67544
1.67564
1.67581
1.676
1.67616
1.67633
1.67647
1.67663
1.67676
1.6769
1.677
1.67712
1.67721
1.67731
1.67737
1.67745
1.67749
1.67754
1.67755
1.67758
1.67756
1.67756
1.67752
1.6775
1.67743
1.67739
1.6773
1.67723
1.67712
1.67703
1.67691
1.67681
1.67668
1.67657
1.67643
1.67632
1.67618
1.67607
1.67593
1.67583
1.67571
1.67562
1.6755
1.67543
1.67533
1.67527
1.67519
1.67515
1.67509
1.67507
1.67502
1.67501
1.67498
1.67499
1.67497
1.67499
1.67498
1.67501
1.67501
1.67505
1.67506
1.6751