# vtk DataFile Version 2.0
LBE two cylinders
ASCII
DATASET STRUCTURED_POINTS
DIMENSIONS 400 100 1
ASPECT_RATIO 1 1 1
ORIGIN 0 0 0
POINT_DATA 40000
SCALARS rho double 1
LOOKUP_TABLE default
1.7001
1.70023
1.70038
1.70053
1.70068
1.70084
1.70099
1.70114
1.70128
1.70141
1.70154
1.70165
1.70175
1.70183
1.7019
1.70196
1.702
1.70203
1.70205
1.70206
1.70206
1.70206
1.70204
1.70203
1.70202
1.70201
1.702
1.702
1.70201
1.70203
1.70206
1.70211
1.70217
1.70226
1.70236
1.70248
1.70262
1.70278
1.70296
1.70317
1.7034
1.70365
1.70392
1.70421
1.70452
1.70484
1.70518
1.70552
1.70588
1.70623
1.70659
1.70694
1.70728
1.70761
1.70792
1.7082
1.70846
1.70868
1.70887
1.70902
1.70912
1.70918
1.70919
1.70916
1.70908
1.70895
1.70878
1.70856
1.7083
1.708
1.70766
1.70729
1.70689
1.70645
1.706
1.70552
1.70502
1.70451
1.70398
1.70345
1.70291
1.70236
1.70182
1.70128
1.70075
1.70022
1.6997
1.69919
1.6987
1.69822
1.69776
1.69731
1.69689
1.69648
1.6961
1.69574
1.6954
1.69508
1.69478
1.69451
1.69426
1.69404
1.69384
1.69366
1.6935
1.69337
1.69326
1.69317
1.6931
1.69305
1.69302
1.69301
1.69301
1.69303
1.69307
1.69312
1.69318
1.69326
1.69335
1.69344
1.69355
1.69367
1.69379
1.69393
1.69407
1.69421
1.69437
1.69452
1.69469
1.69486
1.69504
1.69523
1.69542
1.69561
1.69581
1.69602
1.69624
1.69646
1.69669
1.69693
1.69717
1.69741
1.69767
1.69792
1.69819
1.69845
1.69872
1.69899
1.69927
1.69954
1.69981
1.70008
1.70034
1.7006
1.70085
1.7011
1.70133
1.70155
1.70176
1.70196
1.70215
1.70231
1.70247
1.7026
1.70272
1.70282
1.7029
1.70296
1.70301
1.70304
1.70305
1.70304
1.70302
1.70298
1.70293
1.70287
1.70279
1.70271
1.70262
1.70252
1.70242
1.70232
1.70221
1.70211
1.70201
1.70191
1.70183
1.70175
1.70168
1.70162
1.70158
1.70155
1.70154
1.70155
1.70158
1.70162
1.70169
1.70178
1.70189
1.70202
1.70217
1.70235
1.70254
1.70276
1.703
1.70327
1.70355
1.70385
1.70418
1.70452
1.70487
1.70524
1.70563
1.70603
1.70643
1.70685
1.70727
1.70769
1.70812
1.70855
1.70897
1.70939
1.7098
1.7102
1.71059
1.71097
1.71133
1.71167
1.71199
1.71229
1.71257
1.71282
1.71305
1.71325
1.71342
1.71356
1.71368
1.71376
1.71382
1.71385
1.71384
1.71382
1.71376
1.71368
1.71358
1.71345
1.7133
1.71314
1.71296
1.71276
1.71256
1.71235
1.71213
1.7119
1.71168
1.71145
1.71122
1.711
1.71077
1.71054
1.71031
1.71007
1.70981
1.70955
1.70925
1.70894
1.7086
1.70822
1.7078
1.70736
1.70687
1.70636
1.70581
1.70525
1.70468
1.70411
1.70354
1.703
1.70248
1.702
1.70156
1.70117
1.70082
1.70053
1.7003
1.70011
1.69997
1.69989
1.69984
1.69984
1.69988
1.69995
1.70005
1.70018
1.70033
1.70051
1.7007
1.70091
1.70113
1.70136
1.7016
1.70184
1.70208
1.70233
1.70257
1.70281
1.70304
1.70327
1.70348
1.70368
1.70387
1.70405
1.70422
1.70437
1.70451
1.70463
1.70474
1.70484
1.70493
1.70501
1.70507
1.70513
1.70517
1.70521
1.70524
1.70526
1.70527
1.70527
1.70527
1.70526
1.70524
1.70522
1.70519
1.70515
1.7051
1.70505
1.705
1.70493
1.70486
1.70479
1.70471
1.70462
1.70454
1.70444
1.70435
1.70426
1.70417
1.70408
1.704
1.70392
1.70385
1.70379
1.70374
1.7037
1.70367
1.70365
1.70365
1.70365
1.70367
1.70369
1.70372
1.70375
1.70378
1.7038
1.70382
1.70381
1.7038
1.70375
1.70369
1.7036
1.70348
1.70334
1.70317
1.70298
1.70276
1.70254
1.7023
1.70204
1.70179
1.70154
1.70129
1.70104
1.70081
1.70059
1.70039
1.7002
1.70004
1.6999
1.69978
1.69969
1.69962
1.69957
1.69955
1.69955
1.69957
1.69961
1.69968
1.69976
1.69986
1.69997
1.70007
1.70021
1.70035
1.7005
1.70065
1.70081
1.70095
1.7011
1.70124
1.70138
1.70149
1.70161
1.7017
1.70179
1.70185
1.70191
1.70195
1.70199
1.702
1.70202
1.70201
1.70201
1.702
1.70199
1.70197
1.70197
1.70196
1.70196
1.70197
1.70199
1.70202
1.70208
1.70214
1.70222
1.70232
1.70244
1.70258
1.70275
1.70293
1.70314
1.70337
1.70362
1.70389
1.70418
1.70449
1.70481
1.70514
1.70549
1.70584
1.7062
1.70655
1.7069
1.70724
1.70756
1.70787
1.70815
1.7084
1.70862
1.7088
1.70895
1.70905
1.70911
1.70912
1.70909
1.70901
1.70888
1.70871
1.70849
1.70823
1.70793
1.7076
1.70723
1.70683
1.7064
1.70594
1.70547
1.70497
1.70446
1.70394
1.70341
1.70288
1.70234
1.7018
1.70127
1.70073
1.70021
1.69969
1.69919
1.6987
1.69823
1.69777
1.69733
1.6969
1.6965
1.69612
1.69576
1.69542
1.6951
1.69481
1.69454
1.69429
1.69407
1.69387
1.69369
1.69353
1.6934
1.69329
1.6932
1.69312
1.69307
1.69304
1.69303
1.69303
1.69305
1.69309
1.69314
1.6932
1.69327
1.69336
1.69346
1.69356
1.69368
1.6938
1.69394
1.69408
1.69422
1.69438
1.69454
1.6947
1.69488
1.69506
1.69524
1.69543
1.69563
1.69583
1.69604
1.69626
1.69648
1.69671
1.69695
1.69719
1.69744
1.69769
1.69795
1.69821
1.69848
1.69874
1.69902
1.69929
1.69956
1.69983
1.70009
1.70036
1.70061
1.70086
1.7011
1.70134
1.70156
1.70177
1.70196
1.70215
1.70231
1.70246
1.7026
1.70271
1.70281
1.70289
1.70296
1.703
1.70303
1.70304
1.70304
1.70301
1.70298
1.70293
1.70287
1.7028
1.70272
1.70263
1.70253
1.70243
1.70233
1.70223
1.70212
1.70203
1.70193
1.70185
1.70177
1.7017
1.70165
1.70161
1.70158
1.70157
1.70158
1.70161
1.70165
1.70172
1.7018
1.70191
1.70204
1.70219
1.70236
1.70256
1.70278
1.70302
1.70328
1.70356
1.70385
1.70417
1.70451
1.70486
1.70523
1.70561
1.706
1.70641
1.70682
1.70723
1.70765
1.70808
1.7085
1.70892
1.70933
1.70974
1.71014
1.71052
1.7109
1.71125
1.7116
1.71191
1.71221
1.71249
1.71274
1.71296
1.71317
1.71333
1.71348
1.71359
1.71368
1.71373
1.71376
1.71376
1.71374
1.71368
1.7136
1.71349
1.71337
1.71322
1.71307
1.71288
1.7127
1.71249
1.71228
1.71206
1.71184
1.71161
1.71139
1.71115
1.71093
1.7107
1.71048
1.71023
1.71
1.70974
1.70947
1.70918
1.70887
1.70852
1.70815
1.70773
1.70729
1.7068
1.7063
1.70575
1.70521
1.70463
1.70407
1.70351
1.70297
1.70246
1.70198
1.70154
1.70115
1.7008
1.70051
1.70026
1.70008
1.69994
1.69985
1.6998
1.69979
1.69982
1.69989
1.69999
1.70012
1.70027
1.70044
1.70063
1.70084
1.70106
1.70128
1.70152
1.70176
1.702
1.70225
1.70249
1.70272
1.70295
1.70317
1.70339
1.70359
1.70378
1.70396
1.70412
1.70427
1.70441
1.70454
1.70465
1.70475
1.70483
1.70491
1.70498
1.70503
1.70508
1.70511
1.70514
1.70516
1.70518
1.70518
1.70518
1.70517
1.70515
1.70513
1.7051
1.70506
1.70502
1.70497
1.70491
1.70485
1.70478
1.70471
1.70463
1.70454
1.70446
1.70437
1.70428
1.70419
1.7041
1.70402
1.70394
1.70386
1.70379
1.70373
1.70368
1.70364
1.70362
1.7036
1.7036
1.70361
1.70363
1.70365
1.70368
1.70371
1.70374
1.70376
1.70377
1.70376
1.70374
1.7037
1.70363
1.70354
1.70342
1.70328
1.70311
1.70292
1.70271
1.70248
1.70225
1.702
1.70175
1.7015
1.70125
1.70101
1.70078
1.70056
1.70036
1.70018
1.70002
1.69988
1.69976
1.69967
1.6996
1.69955
1.69953
1.69953
1.69955
1.69959
1.69965
1.69974
1.69983
1.69995
1.70001
1.70015
1.70029
1.70044
1.70058
1.70074
1.70088
1.70103
1.70117
1.7013
1.70141
1.70153
1.70162
1.7017
1.70177
1.70183
1.70187
1.7019
1.70191
1.70193
1.70192
1.70192
1.70191
1.7019
1.70188
1.70188
1.70187
1.70187
1.70188
1.70191
1.70194
1.70199
1.70205
1.70214
1.70223
1.70236
1.7025
1.70266
1.70285
1.70306
1.70329
1.70354
1.70381
1.7041
1.7044
1.70473
1.70506
1.70541
1.70576
1.70611
1.70647
1.70681
1.70715
1.70747
1.70778
1.70805
1.70831
1.70852
1.70871
1.70885
1.70895
1.70901
1.70902
1.70899
1.70891
1.70878
1.70861
1.70839
1.70814
1.70784
1.70751
1.70714
1.70675
1.70632
1.70587
1.7054
1.70491
1.70441
1.70389
1.70337
1.70284
1.7023
1.70177
1.70124
1.70071
1.7002
1.69969
1.69919
1.6987
1.69823
1.69778
1.69734
1.69692
1.69652
1.69614
1.69578
1.69545
1.69513
1.69484
1.69457
1.69432
1.6941
1.6939
1.69372
1.69357
1.69343
1.69332
1.69323
1.69316
1.69311
1.69307
1.69306
1.69306
1.69308
1.69311
1.69316
1.69322
1.6933
1.69338
1.69348
1.69358
1.6937
1.69382
1.69396
1.6941
1.69424
1.6944
1.69456
1.69472
1.6949
1.69508
1.69527
1.69546
1.69566
1.69586
1.69607
1.69629
1.69652
1.69674
1.69698
1.69722
1.69747
1.69773
1.69798
1.69824
1.69851
1.69878
1.69905
1.69932
1.69959
1.69986
1.70012
1.70038
1.70064
1.70088
1.70112
1.70135
1.70157
1.70178
1.70197
1.70215
1.70232
1.70247
1.7026
1.70272
1.70282
1.7029
1.70296
1.703
1.70303
1.70304
1.70304
1.70302
1.70299
1.70294
1.70288
1.70281
1.70273
1.70264
1.70255
1.70245
1.70235
1.70225
1.70215
1.70205
1.70196
1.70188
1.7018
1.70174
1.70168
1.70164
1.70162
1.70161
1.70161
1.70164
1.70168
1.70175
1.70183
1.70194
1.70206
1.70221
1.70238
1.70257
1.70279
1.70302
1.70328
1.70355
1.70384
1.70416
1.70449
1.70483
1.7052
1.70557
1.70596
1.70635
1.70676
1.70717
1.70758
1.708
1.70842
1.70883
1.70924
1.70964
1.71004
1.71041
1.71079
1.71114
1.71148
1.71179
1.71209
1.71236
1.71261
1.71283
1.71303
1.7132
1.71335
1.71345
1.71354
1.71359
1.71363
1.71362
1.7136
1.71354
1.71347
1.71336
1.71324
1.71309
1.71293
1.71275
1.71256
1.71235
1.71215
1.71193
1.71171
1.71148
1.71126
1.71103
1.71081
1.71057
1.71035
1.7101
1.70987
1.70961
1.70934
1.70904
1.70874
1.70839
1.70802
1.7076
1.70716
1.70668
1.70618
1.70564
1.7051
1.70453
1.70397
1.70341
1.70288
1.70236
1.70188
1.70144
1.70104
1.7007
1.7004
1.70015
1.69996
1.69982
1.69972
1.69967
1.69966
1.69969
1.69975
1.69985
1.69997
1.70012
1.70029
1.70048
1.70068
1.7009
1.70112
1.70136
1.70159
1.70184
1.70208
1.70232
1.70255
1.70278
1.703
1.70321
1.70341
1.7036
1.70378
1.70394
1.70409
1.70423
1.70435
1.70447
1.70457
1.70466
1.70473
1.7048
1.70486
1.7049
1.70494
1.70497
1.70499
1.70501
1.70501
1.70501
1.705
1.70499
1.70497
1.70494
1.7049
1.70486
1.70481
1.70476
1.7047
1.70463
1.70456
1.70448
1.7044
1.70432
1.70423
1.70414
1.70406
1.70397
1.70389
1.70381
1.70374
1.70367
1.70362
1.70357
1.70353
1.70351
1.7035
1.7035
1.70351
1.70353
1.70355
1.70358
1.70361
1.70364
1.70366
1.70367
1.70367
1.70365
1.7036
1.70354
1.70344
1.70333
1.70318
1.70302
1.70283
1.70263
1.7024
1.70217
1.70192
1.70167
1.70142
1.70118
1.70094
1.70071
1.7005
1.7003
1.70012
1.69996
1.69982
1.69971
1.69961
1.69954
1.6995
1.69947
1.69948
1.69949
1.69954
1.6996
1.69968
1.69978
1.69989
1.69992
1.70006
1.70019
1.70034
1.70048
1.70064
1.70078
1.70093
1.70106
1.70119
1.7013
1.70141
1.7015
1.70158
1.70164
1.7017
1.70174
1.70177
1.70178
1.7018
1.70179
1.70179
1.70177
1.70177
1.70175
1.70174
1.70173
1.70174
1.70174
1.70177
1.7018
1.70185
1.70191
1.702
1.7021
1.70222
1.70236
1.70253
1.70271
1.70292
1.70315
1.7034
1.70367
1.70396
1.70427
1.70459
1.70493
1.70527
1.70562
1.70598
1.70633
1.70668
1.70701
1.70733
1.70764
1.70792
1.70817
1.70838
1.70857
1.70871
1.70881
1.70887
1.70888
1.70885
1.70877
1.70865
1.70848
1.70827
1.70802
1.70773
1.7074
1.70704
1.70664
1.70623
1.70578
1.70532
1.70483
1.70433
1.70382
1.70331
1.70278
1.70226
1.70173
1.7012
1.70068
1.70017
1.69967
1.69917
1.69869
1.69823
1.69778
1.69735
1.69693
1.69654
1.69616
1.69581
1.69548
1.69517
1.69488
1.69461
1.69436
1.69414
1.69394
1.69377
1.69361
1.69348
1.69336
1.69328
1.6932
1.69315
1.69312
1.6931
1.6931
1.69312
1.69315
1.6932
1.69326
1.69333
1.69341
1.69351
1.69362
1.69373
1.69385
1.69399
1.69413
1.69428
1.69443
1.69459
1.69476
1.69494
1.69511
1.6953
1.69549
1.6957
1.6959
1.69612
1.69633
1.69656
1.69679
1.69703
1.69727
1.69752
1.69777
1.69803
1.69829
1.69856
1.69882
1.69909
1.69936
1.69963
1.69989
1.70016
1.70041
1.70067
1.70091
1.70115
1.70138
1.7016
1.7018
1.702
1.70217
1.70234
1.70248
1.70262
1.70273
1.70283
1.70291
1.70297
1.70302
1.70305
1.70306
1.70306
1.70304
1.70301
1.70296
1.7029
1.70283
1.70276
1.70267
1.70258
1.70248
1.70239
1.70229
1.70219
1.70209
1.702
1.70192
1.70184
1.70178
1.70172
1.70168
1.70166
1.70164
1.70165
1.70167
1.70172
1.70178
1.70186
1.70196
1.70209
1.70223
1.70239
1.70258
1.70279
1.70302
1.70327
1.70354
1.70382
1.70413
1.70445
1.70479
1.70514
1.70551
1.70589
1.70628
1.70667
1.70708
1.70748
1.70789
1.7083
1.70871
1.70911
1.7095
1.70989
1.71027
1.71063
1.71098
1.71131
1.71162
1.71192
1.71218
1.71243
1.71265
1.71285
1.71301
1.71316
1.71326
1.71335
1.7134
1.71343
1.71343
1.71341
1.71334
1.71327
1.71316
1.71305
1.71289
1.71274
1.71256
1.71237
1.71216
1.71196
1.71174
1.71152
1.71129
1.71107
1.71084
1.71062
1.71039
1.71016
1.70992
1.70968
1.70942
1.70916
1.70886
1.70855
1.7082
1.70783
1.70742
1.70698
1.7065
1.706
1.70547
1.70492
1.70436
1.7038
1.70324
1.70271
1.70219
1.70171
1.70127
1.70087
1.70052
1.70022
1.69997
1.69977
1.69963
1.69953
1.69947
1.69946
1.69948
1.69954
1.69963
1.69975
1.6999
1.70006
1.70025
1.70045
1.70066
1.70088
1.70111
1.70135
1.70159
1.70182
1.70206
1.70229
1.70252
1.70274
1.70295
1.70315
1.70334
1.70351
1.70368
1.70383
1.70397
1.70409
1.70421
1.70431
1.7044
1.70447
1.70454
1.7046
1.70465
1.70469
1.70472
1.70475
1.70476
1.70477
1.70477
1.70477
1.70475
1.70473
1.70471
1.70467
1.70464
1.70459
1.70454
1.70448
1.70442
1.70435
1.70427
1.70419
1.70411
1.70403
1.70395
1.70386
1.70378
1.7037
1.70363
1.70356
1.70349
1.70344
1.7034
1.70337
1.70335
1.70334
1.70334
1.70335
1.70338
1.7034
1.70344
1.70347
1.7035
1.70352
1.70353
1.70353
1.70351
1.70346
1.7034
1.70331
1.7032
1.70305
1.70289
1.70271
1.7025
1.70228
1.70205
1.70181
1.70156
1.70132
1.70108
1.70084
1.70062
1.70041
1.70021
1.70003
1.69987
1.69974
1.69962
1.69953
1.69946
1.69942
1.69939
1.69939
1.69941
1.69946
1.69951
1.6996
1.69969
1.6998
1.69979
1.69993
1.70006
1.70021
1.70035
1.7005
1.70064
1.70078
1.70091
1.70104
1.70115
1.70126
1.70134
1.70142
1.70148
1.70154
1.70157
1.7016
1.70161
1.70163
1.70162
1.70161
1.7016
1.70159
1.70157
1.70156
1.70155
1.70156
1.70156
1.70159
1.70162
1.70167
1.70173
1.70181
1.70191
1.70204
1.70218
1.70234
1.70253
1.70274
1.70297
1.70322
1.70349
1.70378
1.70409
1.70441
1.70475
1.70509
1.70544
1.7058
1.70615
1.70649
1.70683
1.70715
1.70746
1.70773
1.70799
1.7082
1.70839
1.70853
1.70864
1.70869
1.70871
1.70868
1.70861
1.70849
1.70832
1.70812
1.70787
1.70758
1.70726
1.70691
1.70652
1.70611
1.70567
1.70521
1.70474
1.70425
1.70375
1.70324
1.70272
1.7022
1.70168
1.70116
1.70065
1.70015
1.69965
1.69917
1.69869
1.69823
1.69779
1.69736
1.69695
1.69657
1.69619
1.69585
1.69551
1.69521
1.69492
1.69466
1.69441
1.6942
1.694
1.69382
1.69367
1.69354
1.69342
1.69333
1.69326
1.69321
1.69317
1.69315
1.69315
1.69317
1.6932
1.69324
1.6933
1.69337
1.69345
1.69355
1.69365
1.69377
1.69389
1.69403
1.69416
1.69432
1.69447
1.69463
1.6948
1.69498
1.69516
1.69535
1.69554
1.69575
1.69595
1.69617
1.69639
1.69662
1.69684
1.69709
1.69733
1.69758
1.69783
1.69809
1.69835
1.69862
1.69888
1.69915
1.69941
1.69968
1.69994
1.70021
1.70046
1.70071
1.70095
1.70119
1.70141
1.70163
1.70183
1.70202
1.7022
1.70236
1.7025
1.70264
1.70275
1.70285
1.70293
1.70299
1.70304
1.70307
1.70308
1.70308
1.70306
1.70303
1.70299
1.70293
1.70286
1.70279
1.7027
1.70262
1.70252
1.70243
1.70233
1.70223
1.70214
1.70205
1.70197
1.70189
1.70182
1.70177
1.70173
1.7017
1.70169
1.70169
1.70171
1.70175
1.70181
1.70189
1.70199
1.70211
1.70225
1.70241
1.70259
1.70279
1.70301
1.70325
1.70351
1.70379
1.70409
1.7044
1.70473
1.70508
1.70543
1.7058
1.70618
1.70657
1.70696
1.70736
1.70775
1.70815
1.70855
1.70895
1.70933
1.70971
1.71008
1.71044
1.71078
1.71111
1.71141
1.7117
1.71196
1.71221
1.71242
1.71262
1.71278
1.71292
1.71302
1.71311
1.71316
1.71319
1.71318
1.71316
1.7131
1.71302
1.71291
1.7128
1.71265
1.71249
1.71231
1.71213
1.71192
1.71172
1.71149
1.71128
1.71105
1.71084
1.7106
1.71039
1.71015
1.70993
1.70969
1.70945
1.70919
1.70892
1.70862
1.70832
1.70796
1.7076
1.70718
1.70675
1.70626
1.70577
1.70523
1.70469
1.70413
1.70357
1.70301
1.70248
1.70196
1.70148
1.70103
1.70063
1.70028
1.69998
1.69972
1.69952
1.69937
1.69926
1.6992
1.69918
1.6992
1.69925
1.69934
1.69946
1.6996
1.69976
1.69994
1.70013
1.70034
1.70056
1.70079
1.70102
1.70126
1.70149
1.70173
1.70196
1.70218
1.7024
1.70261
1.70281
1.703
1.70317
1.70334
1.70349
1.70363
1.70375
1.70387
1.70397
1.70406
1.70414
1.70421
1.70427
1.70432
1.70437
1.7044
1.70443
1.70445
1.70446
1.70446
1.70446
1.70445
1.70443
1.70441
1.70438
1.70434
1.7043
1.70425
1.7042
1.70414
1.70407
1.704
1.70393
1.70385
1.70377
1.70369
1.70361
1.70353
1.70345
1.70338
1.70332
1.70326
1.70321
1.70318
1.70315
1.70313
1.70313
1.70313
1.70315
1.70317
1.7032
1.70324
1.70327
1.7033
1.70333
1.70334
1.70334
1.70332
1.70328
1.70322
1.70313
1.70302
1.70289
1.70273
1.70255
1.70235
1.70213
1.7019
1.70167
1.70143
1.70119
1.70095
1.70072
1.70049
1.70029
1.70009
1.69992
1.69976
1.69963
1.69951
1.69942
1.69935
1.69931
1.69928
1.69928
1.6993
1.69934
1.6994
1.69948
1.69957
1.69968
1.69964
1.69978
1.6999
1.70005
1.70018
1.70033
1.70046
1.70061
1.70073
1.70086
1.70096
1.70107
1.70114
1.70123
1.70128
1.70134
1.70136
1.7014
1.7014
1.70141
1.7014
1.7014
1.70138
1.70137
1.70135
1.70134
1.70133
1.70133
1.70133
1.70136
1.70139
1.70144
1.7015
1.70158
1.70168
1.70181
1.70195
1.70211
1.7023
1.70251
1.70274
1.70299
1.70326
1.70355
1.70386
1.70418
1.70452
1.70486
1.70521
1.70557
1.70592
1.70627
1.7066
1.70692
1.70723
1.70751
1.70776
1.70798
1.70817
1.70831
1.70842
1.70848
1.7085
1.70848
1.70841
1.70829
1.70813
1.70793
1.70769
1.70741
1.7071
1.70675
1.70637
1.70597
1.70554
1.70509
1.70462
1.70414
1.70365
1.70315
1.70264
1.70213
1.70162
1.70111
1.7006
1.70011
1.69962
1.69914
1.69868
1.69823
1.69779
1.69737
1.69697
1.69659
1.69622
1.69588
1.69556
1.69526
1.69497
1.69471
1.69447
1.69426
1.69406
1.69389
1.69373
1.6936
1.69349
1.6934
1.69332
1.69327
1.69323
1.69322
1.69321
1.69323
1.69325
1.6933
1.69336
1.69343
1.69351
1.69361
1.69371
1.69382
1.69394
1.69408
1.69422
1.69437
1.69452
1.69469
1.69485
1.69504
1.69521
1.69541
1.6956
1.69581
1.69601
1.69624
1.69645
1.69669
1.69691
1.69716
1.6974
1.69765
1.6979
1.69816
1.69842
1.69869
1.69894
1.69921
1.69947
1.69974
1.7
1.70026
1.70051
1.70076
1.701
1.70123
1.70145
1.70167
1.70186
1.70206
1.70223
1.70239
1.70253
1.70266
1.70277
1.70287
1.70295
1.70302
1.70306
1.7031
1.70311
1.70311
1.70309
1.70307
1.70302
1.70297
1.7029
1.70283
1.70275
1.70266
1.70257
1.70248
1.70238
1.70229
1.70219
1.70211
1.70202
1.70195
1.70188
1.70183
1.70178
1.70175
1.70174
1.70174
1.70176
1.70179
1.70185
1.70192
1.70201
1.70213
1.70226
1.70241
1.70259
1.70278
1.703
1.70323
1.70348
1.70375
1.70404
1.70434
1.70466
1.70499
1.70534
1.70569
1.70606
1.70644
1.70682
1.7072
1.70759
1.70798
1.70837
1.70875
1.70913
1.7095
1.70986
1.71021
1.71054
1.71086
1.71116
1.71144
1.7117
1.71194
1.71215
1.71234
1.7125
1.71264
1.71274
1.71283
1.71287
1.7129
1.71289
1.71287
1.7128
1.71273
1.71262
1.7125
1.71235
1.7122
1.71201
1.71183
1.71163
1.71143
1.7112
1.71099
1.71077
1.71055
1.71032
1.71011
1.70987
1.70965
1.70941
1.70917
1.70891
1.70864
1.70834
1.70803
1.70768
1.70731
1.7069
1.70646
1.70598
1.70548
1.70495
1.70441
1.70385
1.70329
1.70273
1.70219
1.70168
1.70119
1.70074
1.70034
1.69998
1.69967
1.69941
1.6992
1.69904
1.69893
1.69887
1.69884
1.69885
1.6989
1.69898
1.69909
1.69923
1.69938
1.69956
1.69975
1.69996
1.70017
1.7004
1.70063
1.70086
1.70109
1.70132
1.70155
1.70177
1.70199
1.7022
1.70239
1.70258
1.70276
1.70292
1.70307
1.70321
1.70334
1.70346
1.70356
1.70365
1.70374
1.70381
1.70387
1.70393
1.70397
1.70401
1.70404
1.70406
1.70408
1.70409
1.70409
1.70408
1.70407
1.70405
1.70402
1.70399
1.70395
1.70391
1.70386
1.7038
1.70374
1.70367
1.7036
1.70353
1.70345
1.70338
1.7033
1.70323
1.70316
1.70309
1.70303
1.70298
1.70293
1.7029
1.70288
1.70286
1.70286
1.70287
1.70289
1.70292
1.70296
1.70299
1.70303
1.70307
1.70309
1.70311
1.70311
1.7031
1.70306
1.703
1.70292
1.70281
1.70268
1.70253
1.70235
1.70216
1.70195
1.70173
1.7015
1.70126
1.70103
1.70079
1.70057
1.70034
1.70014
1.69995
1.69978
1.69962
1.69949
1.69937
1.69929
1.69921
1.69917
1.69914
1.69915
1.69916
1.69921
1.69925
1.69934
1.69942
1.69954
1.69946
1.6996
1.69971
1.69986
1.69999
1.70014
1.70026
1.7004
1.70051
1.70064
1.70074
1.70084
1.70091
1.701
1.70104
1.7011
1.70112
1.70115
1.70115
1.70116
1.70115
1.70115
1.70112
1.70111
1.70108
1.70108
1.70106
1.70107
1.70107
1.70109
1.70112
1.70117
1.70122
1.70131
1.70141
1.70153
1.70167
1.70184
1.70202
1.70223
1.70246
1.70271
1.70298
1.70327
1.70358
1.7039
1.70424
1.70459
1.70494
1.70529
1.70565
1.70599
1.70633
1.70665
1.70696
1.70724
1.70749
1.70771
1.7079
1.70805
1.70816
1.70823
1.70826
1.70823
1.70817
1.70806
1.70791
1.70772
1.70749
1.70722
1.70691
1.70657
1.7062
1.70581
1.70539
1.70495
1.70449
1.70402
1.70354
1.70305
1.70255
1.70205
1.70155
1.70106
1.70056
1.70007
1.69959
1.69913
1.69867
1.69823
1.6978
1.69739
1.69699
1.69662
1.69626
1.69593
1.6956
1.69531
1.69503
1.69478
1.69454
1.69433
1.69413
1.69396
1.69381
1.69368
1.69356
1.69348
1.6934
1.69335
1.69331
1.69329
1.69328
1.6933
1.69332
1.69337
1.69342
1.69349
1.69357
1.69367
1.69376
1.69388
1.694
1.69414
1.69427
1.69443
1.69458
1.69475
1.69491
1.6951
1.69528
1.69548
1.69567
1.69588
1.69609
1.69631
1.69653
1.69676
1.69699
1.69724
1.69748
1.69773
1.69798
1.69824
1.69849
1.69876
1.69902
1.69929
1.69955
1.69981
1.70007
1.70033
1.70057
1.70082
1.70105
1.70129
1.7015
1.70171
1.70191
1.7021
1.70226
1.70243
1.70256
1.7027
1.7028
1.70291
1.70298
1.70305
1.70309
1.70313
1.70314
1.70314
1.70312
1.7031
1.70306
1.70301
1.70294
1.70288
1.70279
1.70272
1.70262
1.70253
1.70243
1.70234
1.70225
1.70216
1.70208
1.70201
1.70193
1.70188
1.70183
1.70181
1.70179
1.70179
1.7018
1.70183
1.70188
1.70195
1.70204
1.70214
1.70227
1.70242
1.70258
1.70277
1.70297
1.70319
1.70344
1.7037
1.70397
1.70426
1.70457
1.70489
1.70522
1.70557
1.70592
1.70628
1.70665
1.70703
1.7074
1.70778
1.70816
1.70853
1.70889
1.70926
1.70961
1.70995
1.71027
1.71058
1.71087
1.71115
1.7114
1.71164
1.71184
1.71203
1.71218
1.71232
1.71242
1.7125
1.71254
1.71257
1.71256
1.71253
1.71247
1.7124
1.71228
1.71217
1.71202
1.71186
1.71168
1.7115
1.71129
1.7111
1.71087
1.71067
1.71044
1.71023
1.71
1.70978
1.70955
1.70933
1.70909
1.70885
1.70859
1.70832
1.70802
1.70771
1.70736
1.70699
1.70657
1.70614
1.70565
1.70516
1.70462
1.70408
1.70352
1.70296
1.7024
1.70186
1.70134
1.70085
1.7004
1.69999
1.69963
1.69931
1.69905
1.69883
1.69867
1.69855
1.69848
1.69844
1.69845
1.69849
1.69857
1.69867
1.6988
1.69895
1.69912
1.69931
1.69951
1.69972
1.69994
1.70016
1.70039
1.70062
1.70085
1.70108
1.7013
1.70151
1.70172
1.70191
1.7021
1.70228
1.70244
1.70259
1.70273
1.70286
1.70298
1.70309
1.70318
1.70327
1.70335
1.70341
1.70347
1.70352
1.70356
1.70359
1.70362
1.70364
1.70365
1.70366
1.70366
1.70365
1.70363
1.70361
1.70358
1.70355
1.70351
1.70346
1.70341
1.70335
1.70329
1.70323
1.70316
1.70309
1.70302
1.70294
1.70288
1.70281
1.70275
1.70269
1.70265
1.70261
1.70258
1.70256
1.70255
1.70256
1.70257
1.7026
1.70263
1.70267
1.70271
1.70275
1.70279
1.70282
1.70284
1.70285
1.70284
1.7028
1.70275
1.70267
1.70257
1.70245
1.7023
1.70213
1.70194
1.70174
1.70152
1.7013
1.70107
1.70084
1.70061
1.70039
1.70017
1.69997
1.69978
1.69962
1.69946
1.69933
1.69921
1.69913
1.69905
1.69901
1.69898
1.69899
1.69899
1.69904
1.69908
1.69917
1.69925
1.69936
1.69925
1.69939
1.6995
1.69965
1.69976
1.69991
1.70002
1.70017
1.70027
1.7004
1.70048
1.70059
1.70065
1.70073
1.70077
1.70083
1.70084
1.70087
1.70087
1.70088
1.70086
1.70085
1.70082
1.70081
1.70078
1.70078
1.70076
1.70076
1.70076
1.70078
1.7008
1.70085
1.70091
1.70099
1.70109
1.70121
1.70135
1.70152
1.7017
1.70191
1.70214
1.70239
1.70266
1.70295
1.70326
1.70358
1.70392
1.70427
1.70462
1.70498
1.70533
1.70568
1.70602
1.70634
1.70665
1.70693
1.70719
1.70741
1.7076
1.70776
1.70787
1.70794
1.70798
1.70796
1.7079
1.7078
1.70766
1.70747
1.70725
1.70699
1.70669
1.70637
1.70601
1.70562
1.70521
1.70479
1.70434
1.70388
1.70341
1.70293
1.70244
1.70196
1.70146
1.70098
1.70049
1.70002
1.69955
1.6991
1.69865
1.69822
1.6978
1.6974
1.69701
1.69665
1.6963
1.69597
1.69566
1.69537
1.69509
1.69485
1.69461
1.69441
1.69421
1.69405
1.69389
1.69377
1.69365
1.69356
1.69348
1.69343
1.69339
1.69337
1.69336
1.69338
1.6934
1.69345
1.6935
1.69357
1.69364
1.69374
1.69384
1.69396
1.69407
1.69421
1.69434
1.6945
1.69465
1.69482
1.69499
1.69518
1.69536
1.69556
1.69575
1.69597
1.69617
1.6964
1.69662
1.69685
1.69708
1.69733
1.69757
1.69783
1.69807
1.69833
1.69858
1.69885
1.69911
1.69938
1.69963
1.69989
1.70014
1.7004
1.70064
1.70089
1.70111
1.70135
1.70155
1.70177
1.70195
1.70214
1.7023
1.70247
1.7026
1.70273
1.70284
1.70294
1.70301
1.70308
1.70312
1.70316
1.70317
1.70318
1.70316
1.70315
1.7031
1.70306
1.70299
1.70293
1.70285
1.70277
1.70267
1.70259
1.70249
1.7024
1.70231
1.70222
1.70213
1.70207
1.70199
1.70194
1.70189
1.70186
1.70183
1.70183
1.70184
1.70187
1.70191
1.70197
1.70205
1.70215
1.70227
1.70241
1.70257
1.70274
1.70294
1.70315
1.70338
1.70363
1.70389
1.70417
1.70447
1.70477
1.70509
1.70543
1.70577
1.70611
1.70647
1.70683
1.70719
1.70756
1.70792
1.70828
1.70864
1.70899
1.70933
1.70966
1.70997
1.71028
1.71056
1.71083
1.71108
1.71131
1.7115
1.71169
1.71184
1.71197
1.71206
1.71215
1.71218
1.71221
1.7122
1.71217
1.7121
1.71203
1.71192
1.7118
1.71165
1.7115
1.71131
1.71113
1.71093
1.71073
1.71051
1.71031
1.71008
1.70987
1.70964
1.70943
1.7092
1.70898
1.70874
1.70851
1.70824
1.70798
1.70767
1.70736
1.707
1.70663
1.70621
1.70578
1.70529
1.70479
1.70426
1.70371
1.70315
1.70259
1.70203
1.70149
1.70096
1.70047
1.70001
1.6996
1.69923
1.69891
1.69864
1.69841
1.69824
1.69812
1.69803
1.69799
1.698
1.69803
1.6981
1.69819
1.69832
1.69846
1.69863
1.69881
1.699
1.69921
1.69943
1.69965
1.69987
1.7001
1.70032
1.70054
1.70076
1.70097
1.70118
1.70137
1.70156
1.70173
1.7019
1.70205
1.70219
1.70233
1.70245
1.70256
1.70265
1.70274
1.70282
1.70289
1.70295
1.70301
1.70305
1.70309
1.70312
1.70315
1.70316
1.70317
1.70318
1.70317
1.70316
1.70315
1.70312
1.70309
1.70306
1.70302
1.70297
1.70292
1.70286
1.7028
1.70274
1.70267
1.70261
1.70254
1.70248
1.70242
1.70236
1.70231
1.70227
1.70224
1.70221
1.7022
1.7022
1.70221
1.70223
1.70226
1.70229
1.70234
1.70238
1.70243
1.70247
1.70251
1.70253
1.70255
1.70254
1.70251
1.70247
1.7024
1.7023
1.70218
1.70204
1.70188
1.7017
1.7015
1.70129
1.70108
1.70085
1.70063
1.7004
1.70019
1.69998
1.69979
1.69959
1.69943
1.69927
1.69915
1.69903
1.69895
1.69887
1.69883
1.6988
1.6988
1.69881
1.69885
1.69889
1.69898
1.69905
1.69916
1.69902
1.69916
1.69926
1.6994
1.69951
1.69966
1.69976
1.6999
1.7
1.70012
1.7002
1.7003
1.70036
1.70044
1.70047
1.70052
1.70053
1.70056
1.70055
1.70056
1.70053
1.70053
1.70049
1.70048
1.70045
1.70044
1.70042
1.70042
1.70041
1.70043
1.70045
1.7005
1.70056
1.70064
1.70073
1.70085
1.70099
1.70116
1.70134
1.70155
1.70178
1.70203
1.7023
1.70259
1.7029
1.70322
1.70356
1.70391
1.70426
1.70462
1.70497
1.70532
1.70566
1.70599
1.7063
1.70658
1.70684
1.70707
1.70727
1.70742
1.70754
1.70762
1.70766
1.70765
1.7076
1.70751
1.70738
1.7072
1.70699
1.70674
1.70645
1.70614
1.70579
1.70542
1.70502
1.70461
1.70417
1.70373
1.70327
1.70281
1.70233
1.70186
1.70138
1.70091
1.70043
1.69997
1.69951
1.69907
1.69863
1.69822
1.69781
1.69742
1.69704
1.69669
1.69634
1.69602
1.69571
1.69544
1.69516
1.69493
1.69469
1.69449
1.6943
1.69414
1.69398
1.69386
1.69375
1.69366
1.69358
1.69353
1.69348
1.69347
1.69346
1.69347
1.69349
1.69353
1.69358
1.69365
1.69372
1.69382
1.69391
1.69403
1.69415
1.69429
1.69442
1.69458
1.69473
1.6949
1.69507
1.69526
1.69544
1.69564
1.69584
1.69606
1.69626
1.69649
1.69671
1.69695
1.69718
1.69743
1.69767
1.69793
1.69817
1.69843
1.69868
1.69895
1.6992
1.69947
1.69971
1.69998
1.70022
1.70048
1.70071
1.70096
1.70118
1.70141
1.70161
1.70182
1.702
1.70219
1.70235
1.70251
1.70264
1.70277
1.70287
1.70298
1.70305
1.70312
1.70316
1.7032
1.70321
1.70322
1.7032
1.70319
1.70314
1.70311
1.70304
1.70298
1.7029
1.70282
1.70273
1.70265
1.70254
1.70246
1.70236
1.70228
1.70219
1.70212
1.70204
1.70199
1.70194
1.7019
1.70187
1.70187
1.70187
1.7019
1.70193
1.70199
1.70206
1.70216
1.70226
1.70239
1.70254
1.70271
1.70289
1.70309
1.70331
1.70355
1.7038
1.70407
1.70435
1.70464
1.70495
1.70526
1.70559
1.70593
1.70627
1.70661
1.70696
1.70731
1.70766
1.70801
1.70836
1.7087
1.70902
1.70935
1.70965
1.70995
1.71022
1.71049
1.71072
1.71095
1.71114
1.71132
1.71146
1.7116
1.71169
1.71176
1.7118
1.71183
1.71181
1.71178
1.71171
1.71164
1.71152
1.71141
1.71125
1.7111
1.71092
1.71074
1.71054
1.71035
1.71013
1.70992
1.7097
1.70949
1.70927
1.70906
1.70883
1.70861
1.70837
1.70814
1.70787
1.7076
1.7073
1.70699
1.70662
1.70625
1.70583
1.70539
1.7049
1.7044
1.70386
1.70332
1.70275
1.70219
1.70162
1.70108
1.70055
1.70005
1.69959
1.69917
1.69879
1.69846
1.69818
1.69796
1.69777
1.69764
1.69755
1.6975
1.6975
1.69752
1.69759
1.69767
1.69779
1.69793
1.69809
1.69826
1.69845
1.69865
1.69886
1.69908
1.6993
1.69952
1.69974
1.69996
1.70017
1.70038
1.70059
1.70078
1.70097
1.70114
1.70131
1.70146
1.7016
1.70174
1.70186
1.70197
1.70207
1.70217
1.70225
1.70232
1.70239
1.70245
1.7025
1.70254
1.70258
1.70261
1.70263
1.70264
1.70265
1.70265
1.70265
1.70264
1.70262
1.7026
1.70256
1.70253
1.70249
1.70244
1.70239
1.70234
1.70228
1.70222
1.70216
1.7021
1.70204
1.70199
1.70194
1.70189
1.70186
1.70183
1.70181
1.70181
1.70181
1.70182
1.70185
1.70188
1.70193
1.70198
1.70203
1.70208
1.70212
1.70217
1.7022
1.70222
1.70221
1.7022
1.70215
1.70209
1.702
1.70189
1.70176
1.70161
1.70143
1.70125
1.70104
1.70084
1.70061
1.7004
1.70018
1.69998
1.69976
1.69958
1.69939
1.69923
1.69907
1.69895
1.69883
1.69875
1.69867
1.69864
1.69859
1.6986
1.6986
1.69865
1.69868
1.69876
1.69882
1.69894
1.69877
1.6989
1.69899
1.69914
1.69924
1.69938
1.69948
1.69961
1.6997
1.69982
1.69989
1.69999
1.70004
1.70012
1.70014
1.70019
1.70019
1.70022
1.7002
1.70021
1.70018
1.70017
1.70013
1.70012
1.70008
1.70007
1.70004
1.70004
1.70003
1.70005
1.70007
1.70011
1.70017
1.70025
1.70034
1.70046
1.7006
1.70076
1.70094
1.70115
1.70138
1.70163
1.7019
1.70219
1.7025
1.70282
1.70316
1.70351
1.70387
1.70422
1.70458
1.70493
1.70527
1.7056
1.70591
1.70619
1.70646
1.70669
1.70689
1.70705
1.70718
1.70726
1.70731
1.70731
1.70727
1.70719
1.70706
1.7069
1.7067
1.70646
1.70618
1.70588
1.70555
1.70519
1.7048
1.70441
1.70398
1.70355
1.7031
1.70265
1.70219
1.70173
1.70127
1.70081
1.70035
1.69991
1.69946
1.69903
1.6986
1.6982
1.6978
1.69743
1.69706
1.69672
1.69638
1.69608
1.69577
1.6955
1.69524
1.69501
1.69478
1.69458
1.69439
1.69424
1.69408
1.69396
1.69385
1.69376
1.69368
1.69363
1.69359
1.69357
1.69355
1.69357
1.69359
1.69363
1.69367
1.69375
1.69381
1.69391
1.694
1.69413
1.69424
1.69438
1.69451
1.69467
1.69482
1.695
1.69516
1.69536
1.69554
1.69575
1.69594
1.69616
1.69637
1.6966
1.69682
1.69706
1.69729
1.69754
1.69778
1.69804
1.69828
1.69855
1.69879
1.69906
1.6993
1.69957
1.69981
1.70008
1.70031
1.70057
1.70079
1.70104
1.70125
1.70148
1.70167
1.70188
1.70206
1.70225
1.7024
1.70256
1.70268
1.70282
1.70291
1.70302
1.70308
1.70316
1.70319
1.70324
1.70325
1.70326
1.70324
1.70323
1.70318
1.70315
1.70308
1.70303
1.70294
1.70288
1.70278
1.7027
1.7026