# vtk DataFile Version 2.0
LBE two cylinders
ASCII
DATASET STRUCTURED_POINTS
DIMENSIONS 400 100 1
ASPECT_RATIO 1 1 1
ORIGIN 0 0 0
POINT_DATA 40000
SCALARS rho double 1
LOOKUP_TABLE default
1.74531
1.74534
1.74531
1.74534
1.74531
1.74535
1.74533
1.74537
1.74535
1.74539
1.74538
1.74543
1.74542
1.74547
1.74546
1.74551
1.7455
1.74555
1.74554
1.74559
1.74557
1.74561
1.74559
1.74563
1.74559
1.74563
1.74558
1.74561
1.74556
1.74558
1.74552
1.74554
1.74547
1.74548
1.74541
1.74542
1.74533
1.74534
1.74525
1.74526
1.74517
1.74517
1.74508
1.74508
1.745
1.745
1.74492
1.74493
1.74484
1.74486
1.74478
1.7448
1.74473
1.74476
1.74469
1.74473
1.74467
1.74471
1.74466
1.7447
1.74465
1.74471
1.74466
1.74472
1.74468
1.74474
1.74471
1.74477
1.74473
1.74479
1.74476
1.74482
1.74477
1.74483
1.74478
1.74483
1.74478
1.74482
1.74476
1.74479
1.74471
1.74474
1.74465
1.74466
1.74455
1.74455
1.74443
1.74442
1.74428
1.74425
1.74411
1.74406
1.7439
1.74384
1.74366
1.7436
1.7434
1.74333
1.74312
1.74303
1.74282
1.74272
1.7425
1.7424
1.74217
1.74206
1.74183
1.74172
1.74148
1.74137
1.74113
1.74102
1.74078
1.74067
1.74044
1.74033
1.7401
1.74
1.73977
1.73968
1.73945
1.73937
1.73915
1.73907
1.73886
1.73879
1.73859
1.73852
1.73833
1.73827
1.73809
1.73804
1.73787
1.73783
1.73767
1.73764
1.7375
1.73748
1.73734
1.73733
1.7372
1.7372
1.73709
1.7371
1.737
1.73702
1.73693
1.73695
1.73687
1.73691
1.73684
1.73689
1.73683
1.73688
1.73684
1.7369
1.73686
1.73693
1.73689
1.73697
1.73694
1.73702
1.737
1.73708
1.73707
1.73715
1.73714
1.73723
1.73722
1.7373
1.73729
1.73737
1.73736
1.73744
1.73743
1.73751
1.7375
1.73757
1.73756
1.73763
1.73761
1.73767
1.73766
1.73772
1.7377
1.73776
1.73774
1.7378
1.73778
1.73785
1.73783
1.7379
1.73788
1.73796
1.73795
1.73802
1.73802
1.73811
1.73811
1.7382
1.73822
1.73832
1.73834
1.73845
1.73849
1.73861
1.73865
1.73878
1.73883
1.73897
1.73903
1.73918
1.73925
1.73941
1.73948
1.73964
1.73973
1.73989
1.73998
1.74015
1.74023
1.7404
1.74049
1.74066
1.74074
1.74091
1.74099
1.74115
1.74122
1.74138
1.74144
1.74159
1.74164
1.74177
1.74181
1.74194
1.74197
1.74207
1.74209
1.74218
1.74218
1.74226
1.74224
1.74231
1.74227
1.74232
1.74227
1.74231
1.74224
1.74226
1.74218
1.74218
1.74209
1.74208
1.74198
1.74195
1.74184
1.74181
1.74168
1.74164
1.7415
1.74145
1.74131
1.74126
1.74111
1.74105
1.7409
1.74084
1.74069
1.74062
1.74047
1.74041
1.74026
1.7402
1.74006
1.74001
1.73987
1.73982
1.73969
1.73966
1.73954
1.73951
1.73941
1.7394
1.7393
1.73931
1.73923
1.73926
1.7392
1.73924
1.7392
1.73926
1.73924
1.73932
1.73932
1.73942
1.73944
1.73956
1.7396
1.73973
1.73979
1.73994
1.74002
1.74019
1.74028
1.74047
1.74058
1.74078
1.7409
1.74111
1.74125
1.74147
1.74161
1.74185
1.742
1.74224
1.74241
1.74265
1.74282
1.74307
1.74324
1.7435
1.74367
1.74393
1.7441
1.74436
1.74453
1.74479
1.74495
1.7452
1.74536
1.7456
1.74575
1.74598
1.74611
1.74632
1.74644
1.74664
1.74673
1.74691
1.74698
1.74713
1.74718
1.7473
1.74732
1.74741
1.74741
1.74747
1.74743
1.74747
1.74741
1.74741
1.74733
1.74731
1.7472
1.74716
1.74704
1.74698
1.74685
1.74678
1.74664
1.74657
1.74643
1.74635
1.74622
1.74615
1.74602
1.74596
1.74584
1.74579
1.74569
1.74565
1.74556
1.74554
1.74547
1.74546
1.7454
1.7454
1.74536
1.74537
1.74534
1.74536
1.74533
1.74536
1.74534
1.74536
1.74534
1.74537
1.74535
1.74538
1.74535
1.74538
1.74535
1.74537
1.74534
1.74537
1.74533
1.74536
1.74532
1.74535
1.74524
1.7454
1.74524
1.7454
1.74524
1.74541
1.74525
1.74543
1.74527
1.74546
1.7453
1.7455
1.74534
1.74554
1.74538
1.74558
1.74542
1.74562
1.74545
1.74566
1.74548
1.74569
1.7455
1.7457
1.7455
1.74571
1.74549
1.74569
1.74547
1.74567
1.74543
1.74562
1.74538
1.74557
1.74531
1.7455
1.74524
1.74543
1.74516
1.74535
1.74507
1.74526
1.74499
1.74518
1.7449
1.7451
1.74482
1.74502
1.74475
1.74496
1.74469
1.7449
1.74464
1.74486
1.7446
1.74483
1.74457
1.74481
1.74456
1.7448
1.74456
1.74481
1.74457
1.74482
1.74459
1.74484
1.74461
1.74487
1.74463
1.74489
1.74465
1.74491
1.74467
1.74493
1.74468
1.74493
1.74467
1.74492
1.74465
1.74489
1.7446
1.74483
1.74453
1.74476
1.74444
1.74465
1.74432
1.74452
1.74416
1.74436
1.74398
1.74417
1.74378
1.74395
1.74354
1.7437
1.74328
1.74344
1.74299
1.74315
1.74269
1.74284
1.74237
1.74252
1.74204
1.74218
1.7417
1.74184
1.74135
1.74149
1.741
1.74115
1.74065
1.7408
1.74031
1.74046
1.73997
1.74013
1.73964
1.73981
1.73932
1.7395
1.73902
1.73921
1.73873
1.73892
1.73846
1.73866
1.7382
1.73841
1.73796
1.73819
1.73775
1.73798
1.73755
1.73779
1.73737
1.73762
1.73722
1.73747
1.73709
1.73735
1.73697
1.73724
1.73688
1.73716
1.73682
1.73709
1.73677
1.73705
1.73674
1.73702
1.73673
1.73702
1.73674
1.73703
1.73676
1.73705
1.7368
1.73709
1.73685
1.73714
1.73691
1.7372
1.73698
1.73727
1.73705
1.73734
1.73713
1.73741
1.7372
1.73748
1.73727
1.73755
1.73734
1.73761
1.73741
1.73767
1.73747
1.73772
1.73752
1.73777
1.73757
1.73782
1.73761
1.73786
1.73765
1.7379
1.73769
1.73794
1.73774
1.73799
1.73779
1.73805
1.73786
1.73812
1.73793
1.7382
1.73802
1.7383
1.73812
1.73841
1.73825
1.73855
1.73839
1.7387
1.73855
1.73887
1.73873
1.73907
1.73893
1.73928
1.73915
1.7395
1.73938
1.73974
1.73962
1.73999
1.73987
1.74024
1.74012
1.7405
1.74037
1.74075
1.74063
1.741
1.74087
1.74124
1.7411
1.74147
1.74132
1.74168
1.74152
1.74187
1.74169
1.74203
1.74184
1.74217
1.74197
1.74227
1.74206
1.74235
1.74212
1.7424
1.74215
1.74241
1.74215
1.74239
1.74212
1.74235
1.74206
1.74227
1.74197
1.74217
1.74186
1.74204
1.74172
1.74189
1.74156
1.74172
1.74138
1.74154
1.74119
1.74134
1.74099
1.74113
1.74078
1.74092
1.74057
1.74071
1.74036
1.7405
1.74015
1.74029
1.73994
1.74009
1.73975
1.73991
1.73958
1.73974
1.73942
1.7396
1.73929
1.73948
1.73919
1.7394
1.73912
1.73934
1.73909
1.73932
1.73909
1.73934
1.73913
1.7394
1.73921
1.7395
1.73932
1.73964
1.73948
1.73981
1.73967
1.74002
1.7399
1.74027
1.74016
1.74055
1.74046
1.74086
1.74078
1.74119
1.74112
1.74155
1.74149
1.74193
1.74188
1.74232
1.74228
1.74273
1.74269
1.74315
1.74312
1.74358
1.74355
1.74401
1.74398
1.74444
1.74441
1.74486
1.74483
1.74527
1.74524
1.74567
1.74562
1.74604
1.74599
1.74638
1.74632
1.74669
1.74662
1.74696
1.74687
1.74718
1.74707
1.74735
1.74721
1.74746
1.7473
1.74751
1.74733
1.74751
1.7473
1.74745
1.74723
1.74734
1.7471
1.7472
1.74694
1.74702
1.74675
1.74682
1.74655
1.74661
1.74634
1.7464
1.74613
1.74619
1.74594
1.746
1.74576
1.74584
1.74561
1.7457
1.74549
1.74559
1.7454
1.74551
1.74533
1.74546
1.74529
1.74543
1.74527
1.74541
1.74526
1.74541
1.74527
1.74542
1.74528
1.74542
1.74528
1.74543
1.74528
1.74543
1.74528
1.74543
1.74527
1.74542
1.74526
1.74541
1.74525
1.7454
1.74516
1.74545
1.74516
1.74545
1.74516
1.74547
1.74517
1.74549
1.7452
1.74552
1.74523
1.74556
1.74526
1.7456
1.7453
1.74565
1.74534
1.74569
1.74538
1.74573
1.7454
1.74575
1.74542
1.74577
1.74542
1.74577
1.74541
1.74576
1.74539
1.74574
1.74535
1.74569
1.7453
1.74564
1.74523
1.74558
1.74516
1.7455
1.74508
1.74542
1.74499
1.74534
1.74491
1.74526
1.74482
1.74518
1.74475
1.74511
1.74467
1.74504
1.74461
1.74499
1.74456
1.74494
1.74452
1.74491
1.7445
1.7449
1.74448
1.74489
1.74448
1.7449
1.74449
1.74491
1.74451
1.74493
1.74453
1.74496
1.74455
1.74498
1.74457
1.745
1.74458
1.74502
1.74459
1.74502
1.74458
1.74501
1.74456
1.74497
1.74451
1.74492
1.74444
1.74484
1.74434
1.74474
1.74422
1.74461
1.74407
1.74444
1.74389
1.74425
1.74368
1.74404
1.74344
1.74379
1.74318
1.74353
1.74289
1.74324
1.74259
1.74293
1.74227
1.74261
1.74194
1.74228
1.74159
1.74194
1.74125
1.74159
1.7409
1.74125
1.74055
1.7409
1.7402
1.74057
1.73986
1.74024
1.73954
1.73992
1.73922
1.73961
1.73892
1.73932
1.73863
1.73904
1.73835
1.73877
1.7381
1.73853
1.73786
1.7383
1.73765
1.73809
1.73745
1.7379
1.73728
1.73774
1.73712
1.73759
1.73699
1.73746
1.73688
1.73736
1.73679
1.73727
1.73673
1.73721
1.73668
1.73717
1.73665
1.73714
1.73664
1.73713
1.73665
1.73714
1.73668
1.73716
1.73672
1.7372
1.73677
1.73725
1.73683
1.73731
1.7369
1.73737
1.73697
1.73744
1.73705
1.73751
1.73712
1.73758
1.7372
1.73765
1.73727
1.73771
1.73733
1.73777
1.73739
1.73782
1.73744
1.73787
1.73749
1.73791
1.73753
1.73795
1.73757
1.73799
1.73761
1.73803
1.73766
1.73808
1.73771
1.73814
1.73777
1.73821
1.73784
1.73829
1.73793
1.73838
1.73804
1.7385
1.73816
1.73863
1.7383
1.73879
1.73846
1.73896
1.73864
1.73915
1.73883
1.73936
1.73905
1.73958
1.73927
1.73982
1.73951
1.74006
1.73976
1.74032
1.74001
1.74057
1.74026
1.74083
1.74051
1.74108
1.74075
1.74131
1.74099
1.74154
1.7412
1.74175
1.7414
1.74193
1.74157
1.7421
1.74172
1.74223
1.74184
1.74234
1.74194
1.74242
1.742
1.74246
1.74203
1.74247
1.74203
1.74246
1.742
1.74241
1.74194
1.74233
1.74185
1.74223
1.74174
1.7421
1.7416
1.74195
1.74144
1.74178
1.74126
1.7416
1.74107
1.7414
1.74087
1.74119
1.74066
1.74098
1.74045
1.74076
1.74024
1.74055
1.74002
1.74034
1.73982
1.74015
1.73963
1.73996
1.73946
1.7398
1.7393
1.73966
1.73917
1.73954
1.73907
1.73945
1.739
1.7394
1.73896
1.73938
1.73896
1.7394
1.739
1.73946
1.73908
1.73956
1.73919
1.73969
1.73935
1.73987
1.73954
1.74008
1.73976
1.74032
1.74002
1.7406
1.74031
1.74091
1.74063
1.74124
1.74098
1.7416
1.74134
1.74198
1.74173
1.74238
1.74213
1.74278
1.74254
1.7432
1.74297
1.74363
1.7434
1.74406
1.74383
1.74448
1.74426
1.74491
1.74468
1.74532
1.74509
1.74571
1.74548
1.74608
1.74585
1.74642
1.74618
1.74673
1.74648
1.74699
1.74673
1.74721
1.74693
1.74737
1.74708
1.74748
1.74717
1.74753
1.7472
1.74752
1.74718
1.74747
1.7471
1.74736
1.74698
1.74722
1.74682
1.74704
1.74664
1.74684
1.74644
1.74663
1.74623
1.74642
1.74602
1.74622
1.74583
1.74604
1.74566
1.74588
1.74551
1.74574
1.74539
1.74563
1.7453
1.74555
1.74524
1.7455
1.7452
1.74547
1.74518
1.74546
1.74517
1.74546
1.74518
1.74546
1.74519
1.74547
1.74519
1.74548
1.7452
1.74548
1.7452
1.74548
1.74519
1.74547
1.74518
1.74546
1.74517
1.74545
1.74507
1.74551
1.74507
1.74552
1.74507
1.74553
1.74509
1.74555
1.74511
1.74558
1.74514
1.74562
1.74518
1.74567
1.74522
1.74571
1.74526
1.74576
1.7453
1.74579
1.74532
1.74582
1.74534
1.74584
1.74535
1.74584
1.74534
1.74583
1.74531
1.7458
1.74527
1.74576
1.74522
1.74571
1.74516
1.74565
1.74508
1.74557
1.745
1.7455
1.74492
1.74541
1.74484
1.74533
1.74475
1.74526
1.74467
1.74518
1.7446
1.74512
1.74454
1.74507
1.74449
1.74503
1.74445
1.745
1.74443
1.74498
1.74441
1.74497
1.74441
1.74498
1.74442
1.74499
1.74443
1.74502
1.74445
1.74504
1.74447
1.74507
1.74449
1.74509
1.74451
1.7451
1.74451
1.7451
1.7445
1.74509
1.74447
1.74506
1.74442
1.74501
1.74435
1.74493
1.74426
1.74482
1.74413
1.74469
1.74398
1.74453
1.7438
1.74434
1.74358
1.74412
1.74335
1.74388
1.74308
1.74361
1.7428
1.74333
1.7425
1.74302
1.74217
1.7427
1.74184
1.74237
1.7415
1.74203
1.74115
1.74169
1.7408
1.74134
1.74045
1.741
1.74011
1.74066
1.73977
1.74034
1.73945
1.74002
1.73913
1.73971
1.73883
1.73942
1.73854
1.73914
1.73827
1.73888
1.73802
1.73863
1.73778
1.73841
1.73757
1.7382
1.73737
1.73801
1.7372
1.73785
1.73705
1.7377
1.73692
1.73758
1.73681
1.73747
1.73672
1.73739
1.73666
1.73733
1.73661
1.73728
1.73659
1.73726
1.73658
1.73725
1.73659
1.73726
1.73661
1.73728
1.73665
1.73731
1.7367
1.73736
1.73677
1.73742
1.73683
1.73748
1.73691
1.73755
1.73698
1.73762
1.73706
1.73768
1.73713
1.73775
1.7372
1.73781
1.73726
1.73786
1.73732
1.73792
1.73737
1.73796
1.73741
1.738
1.73746
1.73804
1.7375
1.73808
1.73754
1.73812
1.73758
1.73817
1.73763
1.73823
1.73769
1.73829
1.73776
1.73837
1.73785
1.73846
1.73795
1.73858
1.73807
1.73871
1.73821
1.73886
1.73837
1.73903
1.73854
1.73922
1.73874
1.73942
1.73895
1.73964
1.73917
1.73988
1.73941
1.74012
1.73965
1.74037
1.7399
1.74063
1.74015
1.74088
1.7404
1.74112
1.74064
1.74136
1.74087
1.74158
1.74108
1.74179
1.74128
1.74198
1.74145
1.74214
1.7416
1.74227
1.74172
1.74238
1.74181
1.74245
1.74187
1.7425
1.7419
1.74251
1.7419
1.74249
1.74187
1.74244
1.74181
1.74237
1.74172
1.74226
1.74161
1.74213
1.74147
1.74198
1.74131
1.74181
1.74113
1.74163
1.74094
1.74143
1.74074
1.74122
1.74053
1.74101
1.74032
1.7408
1.7401
1.74058
1.73989
1.74038
1.73969
1.74018
1.73949
1.74
1.73932
1.73983
1.73916
1.73969
1.73903
1.73957
1.73893
1.73948
1.73885
1.73943
1.73882
1.73941
1.73882
1.73943
1.73885
1.73949
1.73893
1.73958
1.73904
1.73972
1.73919
1.73989
1.73938
1.7401
1.73961
1.74035
1.73986
1.74063
1.74015
1.74093
1.74047
1.74127
1.74081
1.74162
1.74118
1.742
1.74156
1.7424
1.74196
1.7428
1.74237
1.74322
1.7428
1.74365
1.74323
1.74408
1.74366
1.7445
1.74409
1.74492
1.74451
1.74533
1.74492
1.74572
1.74531
1.74609
1.74567
1.74643
1.74601
1.74674
1.74631
1.747
1.74656
1.74721
1.74676
1.74738
1.74691
1.74749
1.747
1.74754
1.74704
1.74753
1.74702
1.74748
1.74694
1.74737
1.74683
1.74723
1.74667
1.74705
1.74649
1.74686
1.74629
1.74665
1.74609
1.74644
1.74589
1.74624
1.7457
1.74606
1.74553
1.7459
1.74538
1.74577
1.74527
1.74567
1.74518
1.74559
1.74512
1.74554
1.74508
1.74551
1.74506
1.7455
1.74506
1.7455
1.74507
1.74551
1.74508
1.74552
1.74509
1.74553
1.7451
1.74553
1.7451
1.74553
1.74509
1.74552
1.74508
1.74552
1.74508
1.74551
1.74496
1.74558
1.74496
1.74559
1.74497
1.7456
1.74499
1.74563
1.74501
1.74566
1.74504
1.7457
1.74508
1.74575
1.74512
1.74579
1.74517
1.74584
1.7452
1.74587
1.74523
1.7459
1.74525
1.74592
1.74525
1.74593
1.74525
1.74591
1.74522
1.74589
1.74518
1.74585
1.74513
1.7458
1.74507
1.74573
1.745
1.74566
1.74492
1.74559
1.74484
1.74551
1.74475
1.74543
1.74467
1.74535
1.74459
1.74528
1.74452
1.74522
1.74446
1.74516
1.74441
1.74512
1.74437
1.74509
1.74434
1.74508
1.74433
1.74507
1.74433
1.74508
1.74433
1.7451
1.74435
1.74512
1.74436
1.74514
1.74438
1.74517
1.7444
1.74519
1.74441
1.7452
1.74442
1.7452
1.74441
1.74519
1.74438
1.74516
1.74433
1.74511
1.74425
1.74503
1.74416
1.74492
1.74403
1.74479
1.74388
1.74463
1.74369
1.74444
1.74348
1.74423
1.74324
1.74399
1.74298
1.74372
1.74269
1.74344
1.74239
1.74313
1.74207
1.74281
1.74173
1.74248
1.74139
1.74214
1.74104
1.7418
1.74069
1.74146
1.74035
1.74112
1.74
1.74078
1.73967
1.74045
1.73934
1.74013
1.73902
1.73983
1.73872
1.73954
1.73844
1.73926
1.73816
1.739
1.73791
1.73876
1.73768
1.73853
1.73747
1.73832
1.73727
1.73814
1.7371
1.73797
1.73695
1.73783
1.73682
1.7377
1.73672
1.7376
1.73663
1.73752
1.73657
1.73745
1.73652
1.73741
1.7365
1.73738
1.73649
1.73738
1.7365
1.73738
1.73653
1.73741
1.73657
1.73744
1.73662
1.73749
1.73668
1.73754
1.73675
1.7376
1.73683
1.73767
1.7369
1.73774
1.73697
1.7378
1.73705
1.73786
1.73711
1.73792
1.73718
1.73798
1.73723
1.73803
1.73728
1.73807
1.73733
1.73811
1.73737
1.73815
1.73741
1.73819
1.73745
1.73823
1.7375
1.73827
1.73754
1.73832
1.7376
1.73839
1.73767
1.73846
1.73776
1.73856
1.73786
1.73867
1.73797
1.73879
1.73811
1.73894
1.73826
1.73911
1.73844
1.73929
1.73863
1.73949
1.73884
1.73971
1.73906
1.73994
1.73929
1.74018
1.73953
1.74043
1.73978
1.74068
1.74003
1.74093
1.74027
1.74117
1.74051
1.74141
1.74074
1.74163
1.74095
1.74183
1.74114
1.74201
1.74131
1.74217
1.74146
1.74231
1.74158
1.74241
1.74167
1.74249
1.74173
1.74253
1.74176
1.74254
1.74176
1.74252
1.74172
1.74247
1.74166
1.74239
1.74157
1.74229
1.74146
1.74216
1.74132
1.74201
1.74116
1.74184
1.74098
1.74166
1.74079
1.74146
1.74059
1.74125
1.74038
1.74104
1.74016
1.74082
1.73995
1.74061
1.73973
1.7404
1.73953
1.7402
1.73934
1.74002
1.73916
1.73985
1.739
1.73971
1.73887
1.73959
1.73876
1.7395
1.73869
1.73945
1.73865
1.73943
1.73865
1.73945
1.73868
1.7395
1.73875
1.7396
1.73886
1.73973
1.73901
1.73991
1.7392
1.74012
1.73942
1.74036
1.73968
1.74064
1.73997
1.74094
1.74028
1.74127
1.74062
1.74163
1.74098
1.74201
1.74137
1.7424
1.74176
1.74281
1.74218
1.74323
1.7426
1.74365
1.74302
1.74408
1.74345
1.7445
1.74388
1.74492
1.7443
1.74533
1.74471
1.74572
1.7451
1.74609
1.74547
1.74643
1.7458
1.74674
1.7461
1.747
1.74635
1.74721
1.74655
1.74738
1.7467
1.74749
1.7468
1.74754
1.74683
1.74753
1.74681
1.74748
1.74674
1.74738
1.74663
1.74723
1.74648
1.74706
1.7463
1.74687
1.74611
1.74666
1.74591
1.74646
1.74571
1.74627
1.74553
1.74609
1.74536
1.74593
1.74522
1.7458
1.74511
1.7457
1.74503
1.74563
1.74497
1.74558
1.74494
1.74556
1.74492
1.74555
1.74493
1.74555
1.74494
1.74556
1.74495
1.74557
1.74496
1.74558
1.74497
1.74559
1.74497
1.74559
1.74497
1.74559
1.74497
1.74558
1.74496
1.74558
1.74483
1.74565
1.74484
1.74566
1.74485
1.74568
1.74487
1.74571
1.7449
1.74575
1.74493
1.74579
1.74497
1.74583
1.74502
1.74588
1.74506
1.74593
1.7451
1.74597
1.74513
1.746
1.74515
1.74602
1.74515
1.74602
1.74515
1.74601
1.74512
1.74599
1.74509
1.74595
1.74503
1.7459
1.74497
1.74583
1.7449
1.74576
1.74482
1.74569
1.74474
1.74561
1.74466
1.74553
1.74458
1.74546
1.7445
1.74539
1.74443
1.74533
1.74437
1.74527
1.74432
1.74523
1.74428
1.74521
1.74425
1.74519
1.74424
1.74519
1.74424
1.74519
1.74424
1.74521
1.74425
1.74523
1.74427
1.74525
1.74429
1.74528
1.74431
1.7453
1.74432
1.74531
1.74432
1.74531
1.7443
1.7453
1.74427
1.74527
1.74422
1.74522
1.74415
1.74514
1.74405
1.74504
1.74392
1.74491
1.74377
1.74475
1.74358
1.74456
1.74337
1.74434
1.74313
1.7441
1.74286
1.74384
1.74258
1.74355
1.74227
1.74325
1.74195
1.74293
1.74162
1.7426
1.74127
1.74226
1.74092
1.74192
1.74058
1.74158
1.74023
1.74124
1.73988
1.74091
1.73955
1.74058
1.73922
1.74027
1.73891
1.73996
1.73861
1.73967
1.73832
1.7394
1.73805
1.73914
1.7378
1.7389
1.73757
1.73868
1.73736
1.73847
1.73717
1.73829
1.737
1.73812
1.73685
1.73798
1.73673
1.73786
1.73662
1.73775
1.73654
1.73767
1.73648
1.73761
1.73644
1.73757
1.73641
1.73754
1.73641
1.73753
1.73642
1.73754
1.73645
1.73756
1.73649
1.73759
1.73654
1.73764
1.7366
1.73769
1.73667
1.73775
1.73674
1.73781
1.73682
1.73788
1.73689
1.73794
1.73696
1.738
1.73703
1.73806
1.73709
1.73811
1.73715
1.73816
1.7372
1.7382
1.73724
1.73824
1.73728
1.73827
1.73732
1.73831
1.73736
1.73835
1.7374
1.73839
1.73745
1.73844
1.7375
1.7385
1.73757
1.73857
1.73765
1.73866
1.73775
1.73876
1.73786
1.73889
1.73799
1.73903
1.73815
1.73919
1.73832
1.73937
1.7385
1.73957
1.73871
1.73978
1.73893
1.74001
1.73916
1.74024
1.73939
1.74049
1.73964
1.74073
1.73988
1.74098
1.74012
1.74121
1.74036
1.74144
1.74058
1.74166
1.74079
1.74186
1.74098
1.74204
1.74115
1.7422
1.7413
1.74233
1.74142
1.74243
1.7415
1.74251
1.74156
1.74255
1.74159
1.74256
1.74159
1.74254
1.74156
1.74249
1.74149
1.74241
1.7414
1.7423
1.74129
1.74217
1.74115
1.74202
1.74099
1.74185
1.74081
1.74167
1.74062
1.74147
1.74041
1.74126
1.7402
1.74105
1.73999
1.74083
1.73977
1.74062
1.73956
1.74041
1.73935
1.74021
1.73916
1.74003
1.73898
1.73986
1.73882
1.73972
1.73868
1.7396
1.73858
1.73951
1.7385
1.73945
1.73846
1.73943
1.73845
1.73945
1.73848
1.7395
1.73856
1.7396
1.73866
1.73973
1.73881
1.7399
1.739
1.74011
1.73922
1.74035
1.73947
1.74063
1.73975
1.74093
1.74007
1.74126
1.7404
1.74162
1.74077
1.74199
1.74115
1.74238
1.74154
1.74279
1.74195
1.74321
1.74237
1.74363
1.74279
1.74406
1.74322
1.74448
1.74365
1.7449
1.74407
1.74531
1.74447
1.7457
1.74486
1.74607
1.74523
1.74641
1.74556
1.74672
1.74586
1.74698
1.74611
1.7472
1.74632
1.74736
1.74647
1.74747
1.74656
1.74752
1.7466
1.74752
1.74658
1.74747
1.74652
1.74737
1.7464
1.74723
1.74626
1.74706
1.74608
1.74687
1.74589
1.74667
1.7457
1.74647
1.74551
1.74628
1.74533
1.74611
1.74517
1.74595
1.74503
1.74583
1.74493
1.74573
1.74485
1.74566
1.7448
1.74562
1.74477
1.7456
1.74476
1.74559
1.74477
1.7456
1.74478
1.74561
1.7448
1.74563
1.74481
1.74564
1.74483
1.74565
1.74483
1.74565
1.74484
1.74565
1.74484
1.74565
1.74483
1.74565
1.7447
1.74574
1.7447
1.74575
1.74472
1.74577
1.74474
1.7458
1.74477
1.74584
1.74481
1.74589
1.74486
1.74593
1.7449
1.74598
1.74495
1.74603
1.74498
1.74607
1.74502
1.7461
1.74504
1.74612
1.74504
1.74613
1.74504
1.74612
1.74501
1.74609
1.74498
1.74606
1.74493
1.74601
1.74487
1.74594
1.7448
1.74588
1.74472
1.7458
1.74464
1.74572
1.74456
1.74565
1.74448
1.74557
1.7444
1.74551
1.74433
1.74545
1.74427
1.7454
1.74422
1.74536
1.74418
1.74533
1.74416
1.74531
1.74414
1.74531
1.74414
1.74532
1.74414
1.74533
1.74415
1.74535
1.74417
1.74538
1.74418
1.7454
1.7442
1.74542
1.74421
1.74544
1.74421
1.74544
1.74419
1.74543
1.74416
1.74539
1.74411
1.74534
1.74403
1.74527
1.74393
1.74516
1.7438
1.74503
1.74365
1.74487
1.74346
1.74469
1.74325
1.74448
1.74301
1.74424
1.74274
1.74397
1.74246
1.74369
1.74215
1.74339
1.74183
1.74307
1.74149
1.74274
1.74115
1.7424
1.7408
1.74206
1.74045
1.74172
1.7401
1.74139
1.73976
1.74105
1.73942
1.74073
1.7391
1.74041
1.73878
1.74011
1.73848
1.73982
1.7382
1.73955
1.73793
1.73929
1.73768
1.73905
1.73745
1.73883
1.73724
1.73862
1.73705
1.73844
1.73688
1.73828
1.73674
1.73814
1.73661
1.73802
1.73651
1.73791
1.73643
1.73783
1.73637
1.73777
1.73633
1.73773
1.73631
1.7377
1.7363
1.73769
1.73632
1.7377
1.73635
1.73772
1.73639
1.73776
1.73644
1.7378
1.7365
1.73785
1.73657
1.73791
1.73664
1.73797
1.73672
1.73803
1.73679
1.7381
1.73686
1.73815
1.73693
1.73821
1.73699
1.73826
1.73704
1.7383
1.73709
1.73834
1.73714
1.73838
1.73718
1.73841
1.73721
1.73844
1.73725
1.73848
1.73729
1.73852
1.73734
1.73856
1.73739
1.73862
1.73745
1.73869
1.73753
1.73877
1.73763
1.73887
1.73774
1.73899
1.73787
1.73913
1.73802
1.73928
1.73818
1.73946
1.73837
1.73965
1.73857
1.73986
1.73878
1.74008
1.73901
1.74031
1.73924
1.74054
1.73948
1.74078
1.73972
1.74102
1.73996
1.74126
1.74019
1.74148
1.74041
1.7417
1.74062
1.74189
1.74081
1.74207
1.74098
1.74222
1.74112
1.74235
1.74124
1.74245
1.74133
1.74252
1.74138
1.74256
1.74141
1.74257
1.74141
1.74255
1.74137
1.7425
1.74131
1.74242
1.74122
1.74231
1.7411
1.74218
1.74096
1.74203
1.7408
1.74186
1.74062
1.74167
1.74043
1.74147
1.74023
1.74126
1.74001
1.74105
1.7398
1.74083
1.73958
1.74062
1.73937
1.74041
1.73916
1.74021
1.73896
1.74002
1.73878
1.73986
1.73862
1.73971
1.73848
1.73959
1.73838
1.7395
1.7383
1.73944
1.73825
1.73942
1.73824
1.73943
1.73827
1.73949
1.73834
1.73958
1.73845
1.73971
1.73859
1.73988
1.73877
1.74009
1.73899
1.74033
1.73924
1.7406
1.73952
1.7409
1.73983
1.74123
1.74017
1.74158
1.74053
1.74196
1.7409
1.74235
1.7413
1.74276
1.7417
1.74317
1.74212
1.74359
1.74254
1.74402
1.74297
1.74444
1.74339
1.74486
1.74381
1.74527
1.74421
1.74566
1.7446
1.74603
1.74496
1.74637
1.7453
1.74668
1.74559
1.74694
1.74585
1.74716
1.74605
1.74733
1.7462
1.74744
1.7463
1.7475
1.74634
1.7475
1.74632
1.74745
1.74626
1.74735
1.74615
1.74722
1.74601
1.74705
1.74584
1.74687
1.74565
1.74667
1.74546
1.74648
1.74528
1.74629
1.7451
1.74612
1.74495
1.74597
1.74482
1.74585
1.74472
1.74576
1.74465
1.74569
1.7446
1.74565
1.74458
1.74564
1.74457
1.74564
1.74459
1.74565
1.7446
1.74567
1.74463
1.74568
1.74465
1.7457
1.74467
1.74571
1.74468
1.74572
1.74469
1.74573
1.74469
1.74573
1.74469
1.74573
1.74454
1.74583
1.74456
1.74585
1.74458
1.74587
1.7446
1.74591
1.74464
1.74595
1.74468
1.746
1.74472
1.74605
1.74477
1.7461
1.74482
1.74615
1.74486
1.74619
1.74489
1.74622
1.74491
1.74624
1.74492
1.74625
1.74492
1.74624
1.7449
1.74622
1.74486
1.74618
1.74481
1.74613
1.74475
1.74607
1.74468
1.746
1.74461
1.74593
1.74452
1.74585
1.74444
1.74578
1.74436
1.74571
1.74429
1.74564
1.74422
1.74558
1.74416
1.74553
1.74411
1.74549
1.74407
1.74547
1.74405
1.74545
1.74403
1.74545
1.74403
1.74546
1.74403
1.74547
1.74404
1.74549
1.74405
1.74552
1.74407
1.74554
1.74408
1.74556
1.74409
1.74557
1.74409
1.74558
1.74407
1.74556
1.74404
1.74553
1.74398
1.74548
1.74391
1.74541
1.74381
1.7453
1.74368
1.74517
1.74352
1.74502
1.74333
1.74483
1.74312
1.74462
1.74287
1.74438
1.74261
1.74412
1.74232
1.74383
1.74201
1.74353
1.74168
1.74322
1.74135
1.74289
1.741
1.74255
1.74065
1.74222
1.7403
1.74188
1.73996
1.74154
1.73961
1.74121
1.73928
1.74089
1.73896
1.74058
1.73864
1.74028
1.73834
1.73999
1.73806
1.73972
1.7378
1.73946
1.73755
1.73923
1.73732
1.73901
1.73711
1.73881
1.73693
1.73863
1.73676
1.73847
1.73662
1.73833
1.7365
1.73821
1.7364
1.73811
1.73632
1.73803
1.73626
1.73797
1.73622
1.73793
1.73621
1.7379
1.7362
1.73789
1.73622
1.7379
1.73625
1.73792
1.73629
1.73795
1.73634
1.738
1.7364
1.73805
1.73647
1.7381
1.73654
1.73816
1.73662
1.73822
1.73669
1.73828
1.73676
1.73834
1.73682
1.73839
1.73688
1.73843
1.73694
1.73848
1.73698
1.73851
1.73703
1.73854
1.73706
1.73857
1.7371
1.7386
1.73713
1.73863
1.73717
1.73866
1.73721
1.7387
1.73726
1.73876
1.73733
1.73882
1.7374
1.7389
1.73749
1.73899
1.7376
1.7391
1.73772
1.73924
1.73786
1.73939
1.73803
1.73955
1.73821
1.73974
1.7384
1.73994
1.73861
1.74015
1.73883
1.74038
1.73906
1.74061
1.7393
1.74084
1.73954
1.74107
1.73977
1.7413
1.74
1.74152
1.74022
1.74173
1.74042
1.74192
1.74061
1.74209
1.74077
1.74224
1.74092
1.74237
1.74103
1.74246
1.74112
1.74253
1.74118
1.74257
1.7412
1.74257
1.7412
1.74255
1.74116
1.7425
1.7411
1.74241
1.74101
1.74231
1.74089
1.74217
1.74075
1.74202
1.74059
1.74185
1.74041
1.74166
1.74022
1.74146
1.74001
1.74125
1.7398
1.74104
1.73959
1.74082
1.73937
1.74061
1.73915
1.7404
1.73894
1.7402
1.73875
1.74001
1.73857
1.73984
1.7384
1.73969
1.73826
1.73957
1.73815
1.73948
1.73807
1.73942
1.73803
1.73939
1.73801
1.7394
1.73804
1.73946
1.73811
1.73955
1.73821
1.73967
1.73835
1.73984
1.73853
1.74005
1.73874
1.74028
1.73899
1.74056
1.73927
1.74086
1.73958
1.74118
1.73991
1.74154
1.74026
1.74191
1.74064
1.7423
1.74103
1.7427
1.74143
1.74312
1.74185
1.74354
1.74227
1.74396
1.74269
1.74439
1.74311
1.74481
1.74352
1.74522
1.74393
1.74561
1.74431
1.74598
1.74467
1.74632
1.74501
1.74663
1.7453
1.7469
1.74555
1.74712
1.74576
1.74729
1.74591
1.7474
1.74601
1.74746
1.74605
1.74747
1.74604
1.74742
1.74597
1.74733
1.74587
1.7472
1.74573
1.74704
1.74557
1.74686
1.74539
1.74667
1.7452
1.74648
1.74502
1.7463
1.74485
1.74613
1.7447
1.74599
1.74458
1.74587
1.74449
1.74578
1.74442
1.74573
1.74438
1.74569
1.74436
1.74568
1.74437
1.74568
1.74438
1.7457
1.74441
1.74572
1.74444
1.74575
1.74447
1.74577
1.74449
1.74579
1.74451
1.7458
1.74452
1.74581
1.74453
1.74581
1.74454
1.74582
1.74438
1.74594
1.7444
1.74596
1.74442
1.74599
1.74445
1.74603
1.74449
1.74607
1.74453
1.74612
1.74458
1.74617
1.74463
1.74623
1.74468
1.74628
1.74472
1.74632
1.74476
1.74636
1.74478
1.74638
1.74479
1.74639
1.74479
1.74638
1.74477
1.74636
1.74473
1.74632
1.74469
1.74627
1.74463
1.74621
1.74456
1.74615
1.74448
1.74607
1.7444
1.746
1.74432
1.74592
1.74424
1.74585
1.74417
1.74579
1.7441
1.74573
1.74404
1.74568
1.74399
1.74565
1.74396
1.74562
1.74393
1.74561
1.74391
1.7456
1.74391
1.74561
1.74391
1.74562
1.74392
1.74564
1.74393
1.74567
1.74394
1.74569
1.74396
1.74571
1.74396
1.74573
1.74396
1.74573
1.74394
1.74572
1.7439
1.74569
1.74385
1.74564
1.74377
1.74556
1.74367
1.74546
1.74354
1.74533
1.74338
1.74518
1.74319
1.74499
1.74297
1.74478
1.74273
1.74455
1.74246
1.74429
1.74217
1.744
1.74186
1.7437
1.74154
1.74339
1.7412
1.74306
1.74085
1.74273
1.7405
1.74239
1.74015
1.74205
1.7398
1.74172
1.73946
1.74139
1.73912
1.74107
1.7388
1.74076
1.73849
1.74046
1.73819
1.74017
1.73791
1.7399
1.73764
1.73965
1.7374
1.73941
1.73717
1.7392
1.73696
1.739
1.73678
1.73882
1.73662
1.73866
1.73648
1.73852
1.73636
1.73841
1.73626
1.73831
1.73619
1.73823
1.73613
1.73817
1.7361
1.73813
1.73608
1.73811
1.73608
1.7381
1.73609
1.73811
1.73613
1.73813
1.73617
1.73816
1.73622
1.7382
1.73628
1.73825
1.73635
1.7383
1.73642
1.73836
1.7365
1.73842
1.73657
1.73848
1.73664
1.73853
1.7367
1.73858
1.73676
1.73862
1.73681
1.73866
1.73686
1.73869
1.73689
1.73872
1.73693
1.73875
1.73696
1.73877
1.737
1.7388
1.73703
1.73883
1.73707
1.73886
1.73712
1.73891
1.73718
1.73897
1.73725
1.73904
1.73733
1.73913
1.73743
1.73923
1.73756
1.73936
1.73769
1.7395
1.73785
1.73966
1.73803
1.73984
1.73822
1.74003
1.73842
1.74024
1.73864
1.74046
1.73887
1.74068
1.7391
1.74091
1.73933
1.74113
1.73956
1.74136
1.73979
1.74157
1.74
1.74177
1.7402
1.74196
1.74039
1.74213
1.74055
1.74227
1.74069
1.74239
1.74081
1.74248
1.74089
1.74255
1.74095
1.74258
1.74098
1.74258
1.74097
1.74256
1.74094
1.7425
1.74087
1.74242
1.74078
1.74231
1.74067
1.74217
1.74053
1.74202
1.74036
1.74184
1.74019
1.74165
1.73999
1.74145
1.73979
1.74124
1.73958
1.74103
1.73936
1.74081
1.73914
1.74059
1.73893
1.74038
1.73872
1.74018
1.73852
1.73999
1.73833
1.73982
1.73817
1.73967
1.73803
1.73954
1.73791
1.73945
1.73783
1.73938
1.73778
1.73936
1.73777
1.73937
1.73779
1.73942
1.73785
1.7395
1.73795
1.73963
1.73809
1.7398
1.73827
1.74
1.73848
1.74023
1.73872
1.7405
1.739
1.7408
1.7393
1.74113
1.73963
1.74148
1.73998
1.74185
1.74035
1.74224
1.74074
1.74264
1.74114
1.74305
1.74155
1.74347
1.74197
1.7439
1.74239
1.74432
1.74281
1.74474
1.74322
1.74515
1.74362
1.74554
1.744
1.74591
1.74436
1.74625
1.74469
1.74656
1.74499
1.74683
1.74524
1.74706
1.74544
1.74723
1.74559
1.74735
1.74569
1.74741
1.74574
1.74742
1.74573
1.74738
1.74567
1.74729
1.74557
1.74717
1.74543
1.74701
1.74527
1.74684
1.74509
1.74666
1.74491
1.74647
1.74474
1.7463
1.74458
1.74614
1.74443
1.746
1.74432
1.74589
1.74423
1.74581
1.74417
1.74576
1.74414
1.74573
1.74413
1.74572
1.74414
1.74573
1.74416
1.74576
1.74419
1.74578
1.74423
1.74581
1.74426
1.74584
1.74429
1.74586
1.74432
1.74588
1.74434
1.7459
1.74435
1.74591
1.74436
1.74592
1.7442
1.74605
1.74422
1.74608
1.74425
1.74611
1.74429
1.74616
1.74433
1.7462
1.74438
1.74626
1.74443
1.74631
1.74448
1.74637
1.74453
1.74642
1.74458
1.74647
1.74462
1.7465
1.74464
1.74653
1.74465
1.74654
1.74465
1.74653
1.74463
1.74651
1.7446
1.74647
1.74455
1.74643
1.74449
1.74637
1.74442
1.7463
1.74435
1.74623
1.74427
1.74616
1.74419
1.74609
1.74411
1.74602
1.74404
1.74595
1.74397
1.7459
1.74391
1.74585
1.74386
1.74581
1.74383
1.74579
1.7438
1.74577
1.74378
1.74577
1.74377
1.74578
1.74378
1.74579
1.74378
1.74581
1.74379
1.74584
1.74381
1.74586
1.74382
1.74588
1.74382
1.74589
1.74381
1.7459
1.74379
1.74588
1.74376
1.74585
1.7437
1.74581
1.74362
1.74573
1.74352
1.74563
1.74339
1.74551
1.74322
1.74535
1.74304
1.74517
1.74282
1.74496
1.74257
1.74472
1.7423
1.74446
1.742
1.74418
1.74169
1.74388
1.74136
1.74357
1.74102
1.74324
1.74068
1.74291
1.74033
1.74258
1.73998
1.74224
1.73963
1.74191
1.73929
1.74158
1.73895
1.74127
1.73863
1.74096
1.73832
1.74066
1.73803
1.74038
1.73775
1.74011
1.73748
1.73986
1.73724
1.73963
1.73702
1.73942
1.73682
1.73922
1.73663
1.73905
1.73648
1.73889
1.73634
1.73876
1.73623
1.73864
1.73613
1.73855
1.73606
1.73847
1.73601
1.73841
1.73597
1.73837
1.73596
1.73835
1.73596
1.73834
1.73598
1.73835
1.73601
1.73837
1.73605
1.7384
1.73611
1.73844
1.73617
1.73849
1.73623
1.73854
1.7363
1.7386
1.73638
1.73865
1.73645
1.73871
1.73651
1.73876
1.73657
1.7388
1.73663
1.73884
1.73668
1.73888
1.73672
1.73891
1.73676
1.73893
1.73679