# vtk DataFile Version 2.0
LBE two cylinders
ASCII
DATASET STRUCTURED_POINTS
DIMENSIONS 400 100 1
ASPECT_RATIO 1 1 1
ORIGIN 0 0 0
POINT_DATA 40000
SCALARS rho double 1
LOOKUP_TABLE default
1.47261
1.47406
1.47564
1.47733
1.4791
1.48091
1.48272
1.48449
1.48616
1.48767
1.48898
1.49002
1.49075
1.49115
1.49124
1.49104
1.49064
1.49014
1.48963
1.4892
1.48885
1.48848
1.48785
1.48663
1.48443
1.48089
1.47585
1.46938
1.46187
1.45389
1.4461
1.43904
1.43304
1.4282
1.42445
1.42163
1.41955
1.41803
1.4169
1.41606
1.41541
1.41487
1.41441
1.41396
1.41351
1.41303
1.41249
1.41188
1.41118
1.41039
1.40951
1.40852
1.40743
1.40625
1.40498
1.40364
1.40224
1.4008
1.39932
1.39782
1.39633
1.39484
1.39338
1.39196
1.39059
1.38927
1.38802
1.38684
1.38573
1.3847
1.38376
1.38289
1.38211
1.38142
1.38081
1.38028
1.37982
1.37945
1.37914
1.3789
1.37873
1.37861
1.37854
1.37853
1.37855
1.37861
1.37871
1.37883
1.37897
1.37913
1.37931
1.37949
1.37968
1.37986
1.38005
1.38022
1.38039
1.38054
1.38068
1.38079
1.38088
1.38095
1.38098
1.38098
1.38095
1.38088
1.38077
1.38062
1.38044
1.38021
1.37995
1.37965
1.37932
1.37896
1.37858
1.37817
1.37775
1.37732
1.37688
1.37645
1.37602
1.3756
1.37519
1.37481
1.37445
1.37411
1.37381
1.37354
1.37331
1.37312
1.37297
1.37286
1.37281
1.3728
1.37285
1.37296
1.37313
1.37335
1.37364
1.374
1.37443
1.37494
1.37552
1.37618
1.37692
1.37776
1.37868
1.3797
1.38082
1.38204
1.38336
1.38479
1.38632
1.38796
1.38969
1.3915
1.39339
1.39533
1.39729
1.39925
1.40118
1.40304
1.4048
1.40642
1.40789
1.40918
1.41028
1.41118
1.4119
1.41244
1.41281
1.41304
1.41314
1.41314
1.41307
1.41297
1.41288
1.41287
1.41303
1.41347
1.41434
1.41583
1.41817
1.4216
1.42631
1.43241
1.43979
1.44811
1.45676
1.46502
1.47225
1.47803
1.48228
1.48519
1.4871
1.48844
1.48953
1.4906
1.49174
1.49293
1.49409
1.49509
1.49582
1.49619
1.49614
1.49565
1.49473
1.49343
1.49179
1.48989
1.48779
1.48555
1.48325
1.48093
1.47865
1.47643
1.47432
1.47234
1.47052
1.46886
1.46737
1.46607
1.46494
1.464
1.46323
1.46264
1.46222
1.46197
1.46187
1.46192
1.46212
1.46245
1.4629
1.46346
1.46412
1.46485
1.46564
1.46648
1.46735
1.46822
1.46909
1.46993
1.47073
1.47148
1.47216
1.47277
1.4733
1.47373
1.47407
1.4743
1.47444
1.47448
1.47442
1.47427
1.47403
1.47371
1.47332
1.47286
1.47236
1.47181
1.47122
1.47062
1.47
1.46937
1.46874
1.46812
1.46751
1.46692
1.46635
1.46579
1.46526
1.46476
1.46429
1.46385
1.46344
1.46306
1.46272
1.46241
1.46214
1.46191
1.46171
1.46155
1.46144
1.46136
1.46131
1.46131
1.46133
1.46138
1.46145
1.46154
1.46164
1.46173
1.46182
1.46188
1.46192
1.46193
1.46189
1.46181
1.46169
1.46152
1.46131
1.46105
1.46076
1.46044
1.46009
1.45973
1.45936
1.45898
1.4586
1.45822
1.45785
1.4575
1.45715
1.45681
1.45648
1.45616
1.45583
1.45551
1.45518
1.45484
1.45449
1.45413
1.45376
1.45339
1.45302
1.45265
1.45229
1.45195
1.45164
1.45137
1.45115
1.45099
1.45089
1.45087
1.45094
1.45109
1.45133
1.45167
1.45211
1.45264
1.45327
1.454
1.45481
1.45572
1.4567
1.45776
1.45889
1.46008
1.46132
1.46261
1.46394
1.46531
1.46669
1.46808
1.46947
1.47085
1.4722
1.47352
1.47478
1.47598
1.4771
1.47814
1.47908
1.47991
1.48063
1.48123
1.48171
1.48207
1.48231
1.48244
1.48246
1.48239
1.48222
1.48197
1.48165
1.48126
1.48079
1.48025
1.47963
1.47892
1.47813
1.47726
1.47632
1.47531
1.47427
1.47321
1.47216
1.47116
1.47024
1.46943
1.46876
1.46825
1.46791
1.46777
1.46784
1.46812
1.46861
1.46932
1.47023
1.47133
1.47274
1.47415
1.47569
1.47733
1.47905
1.48081
1.48257
1.48428
1.4859
1.48737
1.48864
1.48966
1.4904
1.49083
1.49097
1.49085
1.49053
1.4901
1.48964
1.48921
1.48879
1.48827
1.48745
1.48605
1.48376
1.48029
1.4755
1.4694
1.46227
1.45459
1.44695
1.43989
1.43378
1.42879
1.42487
1.42191
1.4197
1.41806
1.41685
1.41594
1.41522
1.41463
1.41412
1.41363
1.41314
1.41263
1.41207
1.41144
1.41074
1.40995
1.40908
1.40811
1.40706
1.40592
1.4047
1.40341
1.40207
1.40069
1.39927
1.39783
1.39639
1.39496
1.39354
1.39216
1.39082
1.38953
1.3883
1.38713
1.38603
1.385
1.38406
1.38319
1.3824
1.3817
1.38107
1.38053
1.38006
1.37967
1.37935
1.37909
1.3789
1.37877
1.37869
1.37866
1.37867
1.37872
1.37881
1.37892
1.37905
1.3792
1.37937
1.37954
1.37972
1.3799
1.38007
1.38024
1.3804
1.38055
1.38067
1.38078
1.38087
1.38092
1.38095
1.38095
1.38091
1.38083
1.38072
1.38057
1.38038
1.38016
1.3799
1.3796
1.37927
1.37892
1.37854
1.37814
1.37772
1.3773
1.37687
1.37645
1.37602
1.37561
1.37522
1.37484
1.37449
1.37417
1.37387
1.37361
1.37339
1.37321
1.37307
1.37298
1.37294
1.37295
1.37301
1.37313
1.37331
1.37356
1.37387
1.37424
1.37469
1.37521
1.37581
1.37648
1.37724
1.37809
1.37902
1.38004
1.38116
1.38237
1.38368
1.38509
1.38659
1.38819
1.38988
1.39165
1.39348
1.39536
1.39725
1.39915
1.401
1.4028
1.40449
1.40606
1.40748
1.40873
1.40981
1.41071
1.41142
1.41197
1.41236
1.41262
1.41275
1.41278
1.41276
1.4127
1.41267
1.41272
1.41296
1.41349
1.41448
1.41612
1.41863
1.42224
1.42712
1.43333
1.44072
1.44886
1.45717
1.465
1.47181
1.47732
1.4815
1.4845
1.4866
1.48812
1.48935
1.49049
1.49163
1.49277
1.49386
1.49478
1.49543
1.49574
1.49566
1.49517
1.49427
1.49301
1.49143
1.4896
1.48756
1.4854
1.48316
1.4809
1.47867
1.4765
1.47443
1.47248
1.47068
1.46904
1.46756
1.46626
1.46514
1.4642
1.46343
1.46284
1.46242
1.46216
1.46205
1.4621
1.46229
1.46261
1.46305
1.4636
1.46425
1.46497
1.46575
1.46657
1.46742
1.46829
1.46914
1.46997
1.47076
1.4715
1.47218
1.47278
1.4733
1.47372
1.47405
1.47428
1.4744
1.47443
1.47437
1.47421
1.47397
1.47365
1.47325
1.4728
1.4723
1.47175
1.47117
1.47057
1.46996
1.46934
1.46871
1.4681
1.46749
1.4669
1.46632
1.46577
1.46524
1.46474
1.46427
1.46383
1.46342
1.46304
1.4627
1.46239
1.46213
1.46189
1.4617
1.46155
1.46143
1.46135
1.46131
1.4613
1.46132
1.46137
1.46145
1.46153
1.46163
1.46172
1.4618
1.46187
1.46191
1.46192
1.46189
1.46182
1.4617
1.46155
1.46134
1.4611
1.46083
1.46052
1.46019
1.45983
1.45947
1.45909
1.45872
1.45834
1.45797
1.4576
1.45724
1.45689
1.45655
1.45621
1.45587
1.45553
1.45518
1.45483
1.45448
1.45411
1.45374
1.45337
1.453
1.45264
1.45229
1.45196
1.45166
1.45141
1.4512
1.45104
1.45096
1.45095
1.45101
1.45117
1.45142
1.45176
1.45219
1.45273
1.45335
1.45407
1.45489
1.45578
1.45676
1.45781
1.45893
1.46011
1.46135
1.46263
1.46396
1.46531
1.46668
1.46806
1.46944
1.47081
1.47215
1.47345
1.4747
1.47589
1.47701
1.47804
1.47897
1.47981
1.48053
1.48113
1.48162
1.48199
1.48224
1.48238
1.48241
1.48235
1.48219
1.48195
1.48163
1.48123
1.48076
1.48022
1.47959
1.47889
1.47811
1.47725
1.47633
1.47535
1.47433
1.4733
1.47229
1.47132
1.47043
1.46964
1.46898
1.46848
1.46815
1.46802
1.46808
1.46836
1.46884
1.46953
1.47041
1.47149
1.47291
1.47427
1.47575
1.47733
1.47899
1.48069
1.48238
1.48404
1.4856
1.48704
1.48828
1.4893
1.49004
1.49052
1.49071
1.49066
1.49041
1.49005
1.48962
1.48919
1.48873
1.48814
1.48725
1.48581
1.48356
1.48023
1.47565
1.46979
1.46284
1.45524
1.44758
1.44042
1.43417
1.42902
1.42497
1.42188
1.41956
1.41784
1.41655
1.41556
1.41477
1.41411
1.41353
1.41299
1.41245
1.4119
1.4113
1.41066
1.40995
1.40918
1.40833
1.40741
1.40641
1.40534
1.40421
1.40301
1.40177
1.40049
1.39917
1.39784
1.3965
1.39515
1.39382
1.39251
1.39123
1.38999
1.38879
1.38765
1.38657
1.38555
1.3846
1.38372
1.38292
1.3822
1.38155
1.38098
1.38048
1.38006
1.37971
1.37943
1.37921
1.37905
1.37895
1.3789
1.37889
1.37892
1.37898
1.37907
1.37919
1.37933
1.37948
1.37964
1.37981
1.37997
1.38014
1.3803
1.38045
1.38059
1.38071
1.38081
1.38089
1.38094
1.38097
1.38096
1.38092
1.38085
1.38073
1.38058
1.3804
1.38017
1.37991
1.37962
1.37929
1.37894
1.37856
1.37817
1.37775
1.37734
1.37691
1.37649
1.37607
1.37567
1.37528
1.37492
1.37457
1.37426
1.37398
1.37373
1.37353
1.37336
1.37324
1.37318
1.37315
1.37319
1.37328
1.37343
1.37363
1.37391
1.37425
1.37466
1.37513
1.37568
1.37631
1.37701
1.37778
1.37864
1.37958
1.3806
1.3817
1.3829
1.38417
1.38554
1.38699
1.38852
1.39013
1.39181
1.39354
1.39531
1.3971
1.39889
1.40064
1.40233
1.40393
1.40542
1.40678
1.40798
1.40902
1.4099
1.41062
1.41118
1.4116
1.41189
1.41206
1.41215
1.41218
1.41218
1.4122
1.41232
1.41262
1.41323
1.41431
1.41605
1.41868
1.42243
1.42747
1.43383
1.44132
1.44947
1.45768
1.46529
1.47184
1.47711
1.48113
1.48408
1.48621
1.4878
1.4891
1.49027
1.49141
1.49252
1.49354
1.49439
1.49499
1.49525
1.49514
1.49464
1.49376
1.49254
1.49102
1.48925
1.4873
1.48522
1.48306
1.48088
1.47871
1.4766
1.47458
1.47268
1.47091
1.46929
1.46783
1.46654
1.46543
1.46449
1.46372
1.46312
1.46269
1.46242
1.46231
1.46235
1.46253
1.46284
1.46326
1.4638
1.46442
1.46513
1.46589
1.4667
1.46754
1.46839
1.46924
1.47006
1.47085
1.47158
1.47225
1.47284
1.47335
1.47376
1.47408
1.4743
1.47441
1.47443
1.47435
1.47418
1.47393
1.4736
1.4732
1.47274
1.47223
1.47169
1.47111
1.47051
1.4699
1.46928
1.46866
1.46805
1.46744
1.46685
1.46628
1.46573
1.4652
1.4647
1.46423
1.46379
1.46338
1.46301
1.46267
1.46237
1.46211
1.46188
1.4617
1.46155
1.46144
1.46136
1.46132
1.46132
1.46134
1.4614
1.46147
1.46155
1.46165
1.46174
1.46182
1.46189
1.46193
1.46194
1.46192
1.46185
1.46175
1.4616
1.46142
1.46119
1.46093
1.46064
1.46032
1.45998
1.45963
1.45926
1.45889
1.45851
1.45814
1.45776
1.45739
1.45702
1.45666
1.4563
1.45594
1.45558
1.45522
1.45485
1.45449
1.45412
1.45375
1.45338
1.45301
1.45266
1.45232
1.452
1.45172
1.45147
1.45128
1.45114
1.45106
1.45106
1.45113
1.45129
1.45154
1.45188
1.45231
1.45284
1.45346
1.45418
1.45498
1.45587
1.45684
1.45788
1.45899
1.46016
1.46139
1.46266
1.46397
1.46532
1.46668
1.46804
1.46941
1.47077
1.47209
1.47338
1.47463
1.47581
1.47692
1.47794
1.47888
1.47971
1.48043
1.48105
1.48155
1.48193
1.48219
1.48235
1.4824
1.48234
1.48219
1.48196
1.48164
1.48124
1.48076
1.48021
1.47959
1.47889
1.47812
1.47728
1.47638
1.47544
1.47446
1.47347
1.47249
1.47156
1.4707
1.46994
1.4693
1.46881
1.46849
1.46836
1.46842
1.46868
1.46914
1.46981
1.47067
1.47171
1.47316
1.47445
1.47586
1.47737
1.47895
1.48057
1.4822
1.48379
1.4853
1.48669
1.4879
1.48892
1.48968
1.4902
1.49045
1.49047
1.4903
1.49001
1.48964
1.48923
1.48876
1.48816
1.48725
1.48582
1.48359
1.48032
1.47583
1.47008
1.46322
1.45567
1.44797
1.44072
1.43435
1.42907
1.42488
1.42167
1.41925
1.41742
1.41604
1.41495
1.41408
1.41334
1.41268
1.41206
1.41146
1.41085
1.41022
1.40955
1.40884
1.40808
1.40727
1.4064
1.40548
1.4045
1.40348
1.40241
1.4013
1.40015
1.39898
1.39779
1.39658
1.39536
1.39415
1.39294
1.39175
1.39059
1.38945
1.38836
1.38731
1.3863
1.38536
1.38448
1.38366
1.38292
1.38224
1.38164
1.38111
1.38065
1.38026
1.37994
1.37968
1.37948
1.37934
1.37926
1.37922
1.37922
1.37926
1.37933
1.37942
1.37954
1.37967
1.37982
1.37997
1.38013
1.38028
1.38043
1.38058
1.38071
1.38082
1.38091
1.38098
1.38103
1.38105
1.38103
1.38098
1.3809
1.38078
1.38063
1.38043
1.3802
1.37994
1.37964
1.37932
1.37897
1.37859
1.3782
1.37779
1.37738
1.37696
1.37655
1.37615
1.37576
1.37538
1.37503
1.3747
1.37441
1.37414
1.37392
1.37374
1.3736
1.37351
1.37347
1.37348
1.37355
1.37367
1.37387
1.37411
1.37443
1.37481
1.37526
1.37578
1.37637
1.37702
1.37775
1.37854
1.37942
1.38035
1.38137
1.38244
1.3836
1.38482
1.38612
1.38748
1.38891
1.3904
1.39195
1.39355
1.39518
1.39682
1.39847
1.40008
1.40164
1.40312
1.40451
1.40578
1.40692
1.40792
1.40878
1.4095
1.41008
1.41053
1.41087
1.4111
1.41125
1.41134
1.41141
1.41151
1.41171
1.41209
1.41279
1.41395
1.4158
1.41854
1.42242
1.42758
1.43406
1.44162
1.4498
1.45795
1.46546
1.47188
1.47704
1.48098
1.48387
1.48599
1.48757
1.48887
1.49004
1.49116
1.49222
1.49317
1.49395
1.49447
1.49468
1.49454
1.49404
1.49319
1.49201
1.49056
1.48888
1.48702
1.48503
1.48297
1.48088
1.4788
1.47676
1.47481
1.47296
1.47123
1.46964
1.4682
1.46693
1.46582
1.46488
1.46411
1.46351
1.46307
1.46279
1.46267
1.46269
1.46285
1.46314
1.46354
1.46405
1.46465
1.46533
1.46608
1.46687
1.46769
1.46853
1.46936
1.47017
1.47095
1.47168
1.47235
1.47294
1.47344
1.47384
1.47415
1.47435
1.47445
1.47445
1.47435
1.47417
1.4739
1.47355
1.47314
1.47268
1.47216
1.47161
1.47104
1.47044
1.46983
1.46921
1.4686
1.46798
1.46738
1.46679
1.46622
1.46567
1.46515
1.46465
1.46419
1.46375
1.46335
1.46298
1.46265
1.46236
1.46211
1.46189
1.46172
1.46158
1.46148
1.46141
1.46138
1.46138
1.46141
1.46146
1.46154
1.46162
1.46171
1.4618
1.46188
1.46194
1.46198
1.46199
1.46197
1.46191
1.46181
1.46167
1.4615
1.46129
1.46104
1.46077
1.46048
1.46016
1.45982
1.45946
1.4591
1.45872
1.45834
1.45795
1.45757
1.45718
1.4568
1.45642
1.45603
1.45566
1.45528
1.4549
1.45453
1.45415
1.45378
1.45342
1.45306
1.45272
1.45239
1.45209
1.45182
1.45159
1.45141
1.45128
1.45122
1.45122
1.4513
1.45146
1.4517
1.45204
1.45247
1.45299
1.4536
1.45431
1.4551
1.45598
1.45694
1.45797
1.45907
1.46023
1.46145
1.46271
1.46401
1.46534
1.46668
1.46804
1.46939
1.47073
1.47205
1.47333
1.47456
1.47573
1.47683
1.47785
1.47878
1.47962
1.48035
1.48097
1.48148
1.48188
1.48216
1.48233
1.48239
1.48235
1.4822
1.48197
1.48165
1.48125
1.48077
1.48022
1.47959
1.4789
1.47815
1.47733
1.47647
1.47556
1.47463
1.47369
1.47277
1.47189
1.47107
1.47034
1.46973
1.46927
1.46896
1.46883
1.46888
1.46913
1.46957
1.4702
1.47102
1.47201
1.47349
1.4747
1.47603
1.47746
1.47895
1.48048
1.48202
1.48353
1.48498
1.48631
1.4875
1.4885
1.48929
1.48985
1.49016
1.49027
1.4902
1.48999
1.48969
1.48932
1.48885
1.48821
1.48724
1.48578
1.48358
1.4804
1.47605
1.47043
1.46365
1.45609
1.4483
1.4409
1.43437
1.42893
1.4246
1.42126
1.41873
1.4168
1.41531
1.41412
1.41315
1.41232
1.41157
1.41087
1.41021
1.40954
1.40888
1.40819
1.40749
1.40675
1.40599
1.4052
1.40437
1.40351
1.40262
1.4017
1.40075
1.39977
1.39876
1.39773
1.39669
1.39563
1.39456
1.39348
1.39241
1.39134
1.39029
1.38926
1.38825
1.38728
1.38635
1.38547
1.38464
1.38387
1.38316
1.38251
1.38193
1.38142
1.38098
1.38061
1.3803
1.38005
1.37987
1.37973
1.37965
1.37961
1.37961
1.37964
1.37971
1.37979
1.3799
1.38002
1.38016
1.38029
1.38043
1.38057
1.3807
1.38082
1.38092
1.38101
1.38108
1.38112
1.38113
1.38112
1.38107
1.38099
1.38087
1.38072
1.38053
1.3803
1.38004
1.37974
1.37941
1.37906
1.37869
1.3783
1.37789
1.37748
1.37706
1.37666
1.37625
1.37587
1.37551
1.37517
1.37486
1.37459
1.37435
1.37416
1.374
1.3739
1.37384
1.37385
1.3739
1.37403
1.3742
1.37444
1.37474
1.37511
1.37554
1.37605
1.37661
1.37724
1.37793
1.37869
1.3795
1.38038
1.38131
1.3823
1.38333
1.38443
1.38557
1.38678
1.38802
1.38933
1.39068
1.39208
1.3935
1.39497
1.39644
1.39791
1.39936
1.40077
1.40212
1.40339
1.40455
1.40562
1.40656
1.40739
1.4081
1.4087
1.40918
1.40956
1.40985
1.41008
1.41024
1.4104
1.41058
1.41087
1.41133
1.41212
1.41338
1.41533
1.41818
1.42219
1.42751
1.43414
1.44185
1.45011
1.45826
1.46567
1.47193
1.47692
1.48074
1.48358
1.4857
1.48733
1.48865
1.48982
1.49089
1.49188
1.49275
1.49344
1.49389
1.49404
1.49386
1.49336
1.49253
1.49141
1.49004
1.48846
1.4867
1.48483
1.48288
1.4809
1.47892
1.47698
1.4751
1.47332
1.47164
1.47009
1.46868
1.46743
1.46633
1.46539
1.46462
1.46401
1.46356
1.46326
1.46312
1.46312
1.46326
1.46352
1.4639
1.46437
1.46495
1.46559
1.46631
1.46707
1.46788
1.46869
1.46951
1.47032
1.47109
1.47181
1.47247
1.47306
1.47355
1.47394
1.47424
1.47442
1.47451
1.47449
1.47437
1.47416
1.47387
1.47351
1.47308
1.47261
1.47209
1.47153
1.47095
1.47035
1.46974
1.46913
1.46851
1.4679
1.4673
1.46672
1.46615
1.46561
1.46509
1.4646
1.46414
1.46371
1.46332
1.46296
1.46265
1.46237
1.46213
1.46193
1.46176
1.46164
1.46155
1.4615
1.46147
1.46148
1.46152
1.46157
1.46164
1.46172
1.4618
1.46189
1.46196
1.46201
1.46205
1.46205
1.46203
1.46197
1.46188
1.46176
1.4616
1.46141
1.46118
1.46093
1.46066
1.46036
1.46004
1.4597
1.45934
1.45897
1.45858
1.45819
1.45779
1.45738
1.45698
1.45657
1.45617
1.45577
1.45537
1.45498
1.45459
1.45421
1.45384
1.45348
1.45314
1.45281
1.4525
1.45222
1.45197
1.45176
1.45159
1.45148
1.45142
1.45143
1.45152
1.45168
1.45192
1.45226
1.45268
1.45319
1.45379
1.45448
1.45526
1.45613
1.45707
1.45809
1.45918
1.46032
1.46153
1.46277
1.46406
1.46537
1.46671
1.46805
1.46938
1.47071
1.47201
1.47327
1.47449
1.47565
1.47674
1.47776
1.47869
1.47952
1.48026
1.48089
1.48142
1.48183
1.48212
1.48231
1.48239
1.48236
1.48222
1.48199
1.48167
1.48127
1.48078
1.48023
1.4796
1.47893
1.47819
1.47741
1.47659
1.47574
1.47486
1.47399
1.47313
1.47231
1.47154
1.47087
1.47029
1.46985
1.46956
1.46943
1.46948
1.46971
1.47012
1.47071
1.47148
1.47241
1.47389
1.47502
1.47625
1.47758
1.47896
1.4804
1.48185
1.48328
1.48464
1.48593
1.48707
1.48807
1.48886
1.48947
1.48985
1.49005
1.49006
1.48993
1.48969
1.48936
1.4889
1.48826
1.48729
1.48584
1.48368
1.48058
1.47632
1.47076
1.46399
1.45636
1.44845
1.44089
1.43419
1.42859
1.42412
1.42065
1.418
1.41596
1.41436
1.41307
1.412
1.41107
1.41024
1.40947
1.40874
1.40803
1.40733
1.40664
1.40595
1.40526
1.40456
1.40384
1.40312
1.40239
1.40164
1.40087
1.40008
1.39927
1.39845
1.3976
1.39673
1.39584
1.39493
1.394
1.39307
1.39212
1.39117
1.39023
1.38929
1.38837
1.38747
1.3866
1.38577
1.38498
1.38424
1.38356
1.38294
1.38237
1.38188
1.38145
1.38108
1.38077
1.38053
1.38034
1.3802
1.38012
1.38007
1.38007
1.3801
1.38015
1.38023
1.38033
1.38044
1.38056
1.38068
1.3808
1.38092
1.38102
1.38111
1.38119
1.38124
1.38127
1.38127
1.38124
1.38118
1.38109
1.38095
1.38079
1.38059
1.38035
1.38008
1.37978
1.37945
1.37911
1.37873
1.37835
1.37795
1.37756
1.37715
1.37677
1.37638
1.37602
1.37567
1.37537
1.37508
1.37484
1.37463
1.37448
1.37436
1.37431
1.3743
1.37436
1.37446
1.37465
1.37488
1.37518
1.37554
1.37598
1.37646
1.37702
1.37762
1.3783
1.37902
1.3798
1.38062
1.38149
1.38239
1.38334
1.38431
1.38534
1.38637
1.38747
1.38857
1.38973
1.39091
1.39214
1.39339
1.39467
1.39596
1.39726
1.39853
1.39978
1.40097
1.40212
1.40317
1.40415
1.40502
1.40581
1.4065
1.4071
1.4076
1.40803
1.40837
1.40867
1.40891
1.40916
1.40943
1.40981
1.41037
1.41126
1.41261
1.41467
1.41764
1.42177
1.42723
1.43403
1.44188
1.45027
1.45849
1.46587
1.47205
1.47692
1.48063
1.48339
1.48546
1.48706
1.48837
1.48951
1.49054
1.49147
1.49226
1.49287
1.49324
1.49332
1.49312
1.49261
1.49182
1.49076
1.48947
1.48799
1.48636
1.48461
1.48279
1.48093
1.47907
1.47723
1.47544
1.47373
1.47212
1.47062
1.46925
1.46802
1.46694
1.46601
1.46523
1.46461
1.46415
1.46384
1.46368
1.46365
1.46376
1.46399
1.46433
1.46477
1.4653
1.46592
1.4666
1.46733
1.46811
1.4689
1.46971
1.4705
1.47126
1.47198
1.47263
1.4732
1.47369
1.47407
1.47435
1.47451
1.47458
1.47453
1.47439
1.47416
1.47385
1.47347
1.47302
1.47253
1.472
1.47144
1.47085
1.47025
1.46964
1.46902
1.46841
1.4678
1.46721
1.46663
1.46607
1.46553
1.46502
1.46454
1.46409
1.46367
1.46329
1.46295
1.46265
1.46239
1.46216
1.46198
1.46183
1.46172
1.46165
1.46161
1.4616
1.46161
1.46165
1.46171
1.46177
1.46185
1.46193
1.462
1.46206
1.46211
1.46214
1.46214
1.46212
1.46207
1.46198
1.46187
1.46173
1.46155
1.46136
1.46113
1.46088
1.4606
1.4603
1.45997
1.45962
1.45925
1.45887
1.45846
1.45805
1.45762
1.45719
1.45676
1.45633
1.45591
1.45549
1.45509
1.45469
1.45431
1.45394
1.45359
1.45325
1.45294
1.45265
1.45239
1.45216
1.45197
1.45182
1.45172
1.45168
1.4517
1.45178
1.45195
1.45219
1.45252
1.45293
1.45343
1.45402
1.4547
1.45546
1.45631
1.45724
1.45824
1.45931
1.46044
1.46163
1.46286
1.46413
1.46543
1.46674
1.46807
1.46939
1.47069
1.47197
1.47322
1.47442
1.47557
1.47665
1.47766
1.47859
1.47943
1.48017
1.48081
1.48135
1.48178
1.48209
1.4823
1.48239
1.48237
1.48224
1.48202
1.4817
1.48129
1.4808
1.48025
1.47963
1.47897
1.47826
1.47752
1.47675
1.47596
1.47516
1.47436
1.47357
1.47283
1.47213
1.4715
1.47097
1.47056
1.47028
1.47016
1.4702
1.4704
1.47078
1.47133
1.47203
1.47289
1.47435
1.47538
1.47651
1.47773
1.47901
1.48035
1.48169
1.48302
1.48431
1.48553
1.48663
1.48761
1.48841
1.48906
1.48951
1.48979
1.48989
1.48985
1.48968
1.48938
1.48894
1.48829
1.48732
1.48589
1.48377
1.48075
1.47657
1.47106
1.46427
1.45654
1.44846
1.44071
1.43381
1.42804
1.42343
1.41983
1.41706
1.41491
1.41322
1.41183
1.41067
1.40966
1.40875
1.40791
1.40714
1.4064
1.40569
1.40501
1.40435
1.40371
1.40308
1.40246
1.40186
1.40125
1.40064
1.40003
1.39941
1.39878
1.39814
1.39747
1.39678
1.39607
1.39533
1.39457
1.39379
1.39298
1.39216
1.39131
1.39046
1.38961
1.38876
1.38791
1.38709
1.38629
1.38553
1.38481
1.38414
1.38352
1.38296
1.38245
1.38201
1.38164
1.38132
1.38106
1.38086
1.38071
1.38061
1.38055
1.38053
1.38054
1.38058
1.38063
1.38071
1.3808
1.38089
1.38099
1.38109
1.38118
1.38126
1.38132
1.38137
1.38139
1.38139
1.38136
1.3813
1.3812
1.38107
1.38091
1.38071
1.38048
1.38021
1.37992
1.37959
1.37924
1.37887
1.37849
1.37809
1.3777
1.3773
1.37692
1.37654
1.37621
1.37588
1.3756
1.37534
1.37514
1.37496
1.37486
1.37479
1.3748
1.37484
1.37497
1.37513
1.37539
1.37568
1.37606
1.37647
1.37698
1.37752
1.37814
1.37878
1.3795
1.38023
1.38103
1.38183
1.38268
1.38353
1.38443
1.38531
1.38624
1.38716
1.38812
1.38907
1.39008
1.39108
1.39214
1.3932
1.3943
1.3954
1.39653
1.39763
1.39872
1.39976
1.40077
1.40171
1.40259
1.40339
1.40412
1.40477
1.40536
1.40587
1.40633
1.40672
1.40707
1.40739
1.40771
1.40807
1.40855
1.40921
1.41019
1.41165
1.41381
1.41689
1.42116
1.42677
1.43375
1.4418
1.45035
1.45867
1.46606
1.47216
1.47691
1.4805
1.48318
1.4852
1.48678
1.48807
1.48917
1.49016
1.49101
1.49172
1.49224
1.49252
1.49255
1.49231
1.4918
1.49105
1.49005
1.48886
1.48749
1.48598
1.48437
1.48268
1.48096
1.47922
1.4775
1.47582
1.4742
1.47266
1.47122
1.46989
1.4687
1.46763
1.46671
1.46594
1.46532
1.46485
1.46452
1.46433
1.46428
1.46435
1.46454
1.46484
1.46524
1.46573
1.4663
1.46695
1.46764
1.46839
1.46916
1.46994
1.47072
1.47147
1.47217
1.47281
1.47337
1.47384
1.47421
1.47447
1.47462
1.47466
1.47459
1.47443
1.47417
1.47383
1.47343
1.47296
1.47245
1.47191
1.47133
1.47074
1.47013
1.46952
1.4689
1.46829
1.46769
1.4671
1.46652
1.46597
1.46544
1.46494
1.46447
1.46404
1.46364
1.46327
1.46295
1.46266
1.46242
1.46222
1.46205
1.46193
1.46184
1.46178
1.46175
1.46175
1.46177
1.46181
1.46187
1.46193
1.462
1.46207
1.46214
1.46219
1.46223
1.46226
1.46226
1.46224
1.46219
1.46212
1.46202
1.46189
1.46174
1.46156
1.46136
1.46113
1.46087
1.46059
1.46028
1.45994
1.45958
1.45919
1.45878
1.45835
1.4579
1.45745
1.457
1.45654
1.4561
1.45566
1.45524
1.45483
1.45444
1.45407
1.45372
1.4534
1.4531
1.45283
1.45259
1.45238
1.45221
1.45208
1.452
1.45197
1.452
1.45209
1.45226
1.4525
1.45282
1.45322
1.45371
1.45428
1.45495
1.4557
1.45653
1.45744
1.45842
1.45947
1.46059
1.46176
1.46297
1.46422
1.4655
1.4668
1.4681
1.4694
1.47069
1.47195
1.47318
1.47436
1.4755
1.47657
1.47757
1.47849
1.47933
1.48008
1.48073
1.48128
1.48172
1.48205
1.48228
1.48238
1.48238
1.48226
1.48205
1.48173
1.48133
1.48084
1.48029
1.47969
1.47904
1.47837
1.47767
1.47696
1.47624
1.47552
1.47481
1.47411
1.47344
1.47281
1.47225
1.47177
1.47139
1.47113
1.47101
1.47103
1.47121
1.47153
1.47203
1.47266
1.47344
1.47487
1.4758
1.47682
1.47793
1.47909
1.48032
1.48155
1.48279
1.48399
1.48513
1.48619
1.48714
1.48795
1.48862
1.48913
1.48949
1.48968
1.48972
1.48961
1.48937
1.48894
1.4883
1.48733
1.48591
1.48384
1.48089
1.47676
1.47127
1.46442
1.45655
1.44829
1.44032
1.43323
1.42728
1.42252
1.4188
1.41593
1.41368
1.41189
1.41042
1.40918
1.40809
1.40713
1.40625
1.40545
1.4047
1.404
1.40334
1.40273
1.40214
1.4016
1.40107
1.40057
1.40008
1.39962
1.39915
1.39869
1.39822
1.39774
1.39724
1.39673
1.39619
1.39563
1.39503
1.39441
1.39375
1.39306
1.39234
1.3916
1.39083
1.39005
1.38926
1.38847
1.38768
1.38692
1.38617
1.38547
1.3848
1.38418
1.38361
1.3831
1.38265
1.38226
1.38193
1.38166
1.38144
1.38128
1.38116
1.38109
1.38105
1.38105
1.38107
1.38111
1.38117
1.38124
1.38131
1.38139
1.38145
1.38151
1.38155
1.38158
1.38158
1.38155
1.3815
1.38141
1.3813
1.38115
1.38097
1.38075
1.38051
1.38023
1.37994
1.37961
1.37928
1.37891
1.37856
1.37817
1.37781
1.37743
1.37709
1.37674
1.37644
1.37614
1.37591
1.37568
1.37554
1.37541
1.37537
1.37535
1.37544
1.37553
1.37574
1.37597
1.3763
1.37665
1.37712
1.37759
1.37816
1.37874
1.37941
1.38008
1.38082
1.38155
1.38234
1.3831
1.38391
1.38468
1.3855
1.38628
1.38709
1.38787
1.38869
1.38949
1.39034
1.39117
1.39206
1.39294
1.39387
1.3948
1.39576
1.39669
1.39764
1.39854
1.39942
1.40024
1.40102
1.40173
1.4024
1.40299
1.40356
1.40405
1.40452
1.40493
1.40533
1.4057
1.4061
1.40654
1.40711
1.40786
1.40895
1.4105
1.41277
1.41596
1.42036
1.42613
1.43329
1.44154
1.4503
1.45876
1.46621
1.47227
1.47693
1.4804
1.48298
1.48494
1.48647
1.48773
1.4888
1.48973
1.49051
1.49113
1.49156
1.49177
1.49174
1.49147
1.49096
1.49024
1.48932
1.48822
1.48696
1.48559
1.48411
1.48257
1.48098
1.47937
1.47778
1.47621
1.47469
1.47323
1.47186
1.4706
1.46944
1.46841
1.46751
1.46674
1.46612
1.46564
1.46529
1.46508
1.465
1.46503
1.46518
1.46544
1.46579
1.46623
1.46676
1.46736
1.46802
1.46872
1.46946
1.47022
1.47097
1.47171
1.47239
1.47302
1.47356
1.47402
1.47436
1.4746
1.47473
1.47475
1.47465
1.47446
1.47418
1.47382
1.47339
1.4729
1.47237
1.47181
1.47122
1.47062
1.47
1.46938
1.46876
1.46815
1.46755
1.46697
1.4664
1.46586
1.46534
1.46486
1.4644
1.46398
1.4636
1.46326
1.46296
1.46269
1.46247
1.46229
1.46215
1.46204
1.46197
1.46193
1.46191
1.46192
1.46195
1.462
1.46205
1.46211
1.46218
1.46224
1.4623
1.46234
1.46238
1.4624
1.4624
1.46238
1.46234
1.46228
1.4622
1.46209
1.46196
1.46181
1.46163
1.46142
1.46119
1.46092
1.46062
1.4603
1.45994
1.45954
1.45913
1.45869
1.45823
1.45775
1.45728
1.4568
1.45633
1.45587
1.45543
1.45501
1.45461
1.45424
1.4539
1.45358
1.4533
1.45305
1.45282
1.45264
1.45249
1.45238
1.45231
1.4523
1.45234
1.45244
1.4526
1.45284
1.45315
1.45355
1.45402
1.45459
1.45523
1.45596
1.45678
1.45767
1.45863
1.45967
1.46076
1.46191
1.46311
1.46434
1.46559
1.46687
1.46815
1.46943
1.47069
1.47194
1.47315
1.47431
1.47543
1.47649
1.47748
1.4784
1.47924
1.47999
1.48065
1.48121
1.48167
1.48201
1.48225
1.48237
1.48239
1.48228
1.48208
1.48176
1.48137
1.48089
1.48035
1.47976
1.47915
1.47851
1.47787
1.47722
1.47658
1.47595
1.47533
1.47472
1.47414
1.47359
1.4731
1.47267
1.47233
1.47208
1.47196
1.47196
1.4721
1.47238
1.47281
1.47336
1.47406
1.47544
1.47626
1.47717
1.47816
1.47921
1.48032
1.48144
1.48258
1.48368
1.48475
1.48575
1.48667
1.48747
1.48817
1.48873
1.48916
1.48943
1.48955
1.48949
1.48928
1.48887
1.48823
1.48727
1.48587
1.48385
1.48095
1.47687
1.47138
1.46444
1.45641
1.44792
1.43973
1.43243
1.42631
1.42142
1.41759
1.41462
1.41228
1.41042
1.40888
1.40759
1.40646
1.40547
1.40457
1.40377
1.40303
1.40236
1.40174
1.40119
1.40067
1.40021
1.39978
1.39939
1.39902
1.39868
1.39835
1.39803
1.39771
1.39739
1.39706
1.39671
1.39633
1.39594
1.3955
1.39504
1.39453
1.39399
1.3934
1.39278
1.39212
1.39143
1.3907
1.38996
1.38921
1.38845
1.38769
1.38696
1.38624
1.38556
1.38492
1.38434
1.3838
1.38333
1.38291
1.38255
1.38225
1.38201
1.38182
1.38167
1.38157
1.38151
1.38147
1.38147
1.38148
1.38151
1.38155
1.3816
1.38164
1.38168
1.38171
1.38172
1.38171
1.38168
1.38162
1.38154
1.38143
1.38127
1.3811
1.38089
1.38066
1.38038
1.38009
1.37977
1.37944
1.37908
1.37873
1.37835
1.37801
1.37764
1.37732
1.37699
1.37673
1.37645
1.37627
1.37609
1.376
1.37592
1.37596
1.37599
1.37615
1.37632
1.37661
1.3769
1.37733
1.37774
1.37828
1.3788
1.37944
1.38005
1.38076
1.38143
1.38218
1.38288
1.38364
1.38434
1.38509
1.38577
1.38649
1.38714
1.38783
1.38847
1.38915
1.38979
1.39049
1.39115
1.39189
1.39261
1.3934
1.39416
1.39498
1.39577
1.39659
1.39735
1.39812
1.39882
1.3995
1.40011
1.40071
1.40124
1.40176
1.40223
1.40268
1.4031
1.40352
1.40393
1.40439
1.40489
1.40553
1.40637
1.40754
1.4092
1.41156
1.41486
1.41939
1.42531
1.43266
1.44114
1.45012
1.45876
1.4663
1.47234
1.47691
1.48027
1.48275
1.48464
1.48612
1.48735
1.48838
1.48925
1.48997
1.49051
1.49086
1.49099
1.4909
1.4906
1.4901
1.48941
1.48856
1.48756
1.48642
1.48517
1.48384
1.48244
1.48099
1.47953
1.47806
1.47661
1.4752
1.47384
1.47255
1.47135
1.47024
1.46925
1.46837
1.46763
1.46701
1.46652
1.46616
1.46593
1.46581
1.46581
1.46591
1.46612
1.46642
1.46682
1.46729
1.46784
1.46845
1.46912
1.46982
1.47055
1.47127
1.47198
1.47264
1.47324
1.47377
1.4742
1.47452
1.47474
1.47484
1.47483
1.47471
1.4745
1.47419
1.4738
1.47335
1.47284
1.47229
1.47171
1.47111
1.47049
1.46986
1.46923
1.46861
1.468
1.4674
1.46682
1.46626
1.46573
1.46523
1.46476
1.46433
1.46393
1.46357
1.46325
1.46297
1.46274
1.46254
1.46239
1.46227
1.46218
1.46213
1.4621
1.4621
1.46212
1.46215
1.4622
1.46225
1.46231
1.46237
1.46243
1.46248
1.46252
1.46255
1.46257
1.46257
1.46256
1.46254
1.46249
1.46243
1.46234
1.46223
1.4621
1.46194
1.46175
1.46154
1.46129
1.461
1.46068
1.46033
1.45994
1.45951
1.45906
1.45859
1.4581
1.4576
1.4571
1.45661
1.45613
1.45567
1.45524
1.45483
1.45446
1.45412
1.45381
1.45353
1.4533
1.45309
1.45293
1.4528
1.4527
1.45266
1.45266
1.4527
1.45281
1.45298
1.45322
1.45352
1.45391
1.45437
1.45492
1.45555
1.45626
1.45706
1.45793
1.45887
1.45989
1.46096
1.46209
1.46326
1.46447
1.46571
1.46696
1.46822
1.46948
1.47072
1.47194
1.47313
1.47427
1.47537
1.47642
1.4774
1.47831
1.47915
1.4799
1.48056
1.48113
1.4816
1.48196
1.48222
1.48236
1.48239
1.4823
1.48211
1.4818
1.48142
1.48096
1.48044
1.47988
1.4793
1.47871
1.47813
1.47755
1.47699
1.47645
1.47593
1.47542
1.47494
1.47447
1.47406
1.47368
1.47337
1.47314
1.47301
1.47299
1.47309
1.47331
1.47366
1.47413
1.47473
1.47606
1.47678
1.47757
1.47845
1.47938
1.48037
1.48137
1.4824
1.48341
1.4844
1.48532
1.4862
1.48699
1.48771
1.48831
1.48879
1.48912
1.48931
1.48931
1.48913
1.48873
1.48808
1.48712
1.48574
1.48375
1.4809
1.47685
1.47133
1.46428
1.45606
1.44735
1.43892
1.43143
1.42514
1.42013
1.41619
1.41315
1.41075
1.40885
1.40727
1.40595
1.4048
1.40381
1.40291
1.40213
1.40141
1.40079
1.40022
1.39973
1.39928
1.39891
1.39856
1.39828
1.398
1.39778
1.39756
1.39737
1.39717
1.39699
1.39679
1.39659
1.39635
1.39611
1.39582
1.39551
1.39515
1.39475
1.3943
1.39381
1.39327
1.39268
1.39205
1.39139
1.39068
1.38996
1.38922
1.38848
1.38774
1.38703
1.38634
1.38569
1.38508
1.38454
1.38403
1.3836
1.38322
1.3829
1.38263
1.38242
1.38225
1.38214
1.38205
1.382
1.38197
1.38196
1.38196
1.38197
1.38198
1.38198
1.38197
1.38195
1.38191
1.38184
1.38176
1.38163
1.38149
1.38132
1.38112
1.38089
1.38065
1.38037
1.38009
1.37978
1.37948
1.37914
1.37883
1.37848
1.37818
1.37785
1.37759
1.3773
1.3771
1.37687
1.37675
1.37662
1.37661
1.37659
1.37671
1.37681
1.37705
1.37729
1.37767
1.37803
1.37853
1.379
1.37961
1.38017
1.38085
1.38147
1.38219
1.38283
1.38357
1.38421
1.38491
1.38552
1.38619
1.38675
1.38737
1.38789
1.38846
1.38894
1.38949
1.38998
1.39054
1.39106
1.39167
1.39224
1.3929
1.39353
1.39424
1.3949
1.3956
1.39624
1.39691
1.39749
1.39809
1.39861
1.39912
1.39958
1.40004
1.40046
1.40089
1.40128
1.40171
1.40213