# vtk DataFile Version 2.0
LBE mesh
ASCII
DATASET STRUCTURED_POINTS
DIMENSIONS 402 102 1
ASPECT_RATIO 1 1 1
ORIGIN 0 0 0
POINT_DATA 41004
SCALARS rho double 1
LOOKUP_TABLE default
0
0
0
0
0
0
0
0
0
0
0
0
0
0
0
0
0
0
0
0
0
0
0
0
0
0
0
0
0
0
0
0
0
0
0
0
0
0
0
0
0
0
0
0
0
0
0
0
0
0
0
0
0
0
0
0
0
0
0
0
0
0
0
0
0
0
0
0
0
0
0
0
0
0
0
0
0
0
0
0
0
0
0
0
0
0
0
0
0
0
0
0
0
0
0
0
0
0
0
0
0
0
0
0
0
0
0
0
0
0
0
0
0
0
0
0
0
0
0
0
0
0
0
0
0
0
0
0
0
0
0
0
0
0
0
0
0
0
0
0
0
0
0
0
0
0
0
0
0
0
0
0
0
0
0
0
0
0
0
0
0
0
0
0
0
0
0
0
0
0
0
0
0
0
0
0
0
0
0
0
0
0
0
0
0
0
0
0
0
0
0
0
0
0
0
0
0
0
0
0
0
0
0
0
0
0
0
0
0
0
0
0
0
0
0
0
0
0
0
0
0
0
0
0
0
0
0
0
0
0
0
0
0
0
0
0
0
0
0
0
0
0
0
0
0
0
0
0
0
0
0
0
0
0
0
0
0
0
0
0
0
0
0
0
0
0
0
0
0
0
0
0
0
0
0
0
0
0
0
0
0
0
0
0
0
0
0
0
0
0
0
0
0
0
0
0
0
0
0
0
0
0
0
0
0
0
0
0
0
0
0
0
0
0
0
0
0
0
0
0
0
0
0
0
0
0
0
0
0
0
0
0
0
0
0
0
0
0
0
0
0
0
0
0
0
0
0
0
0
0
0
0
0
0
0
0
0
0
0
0
0
0
0
0
0
0
0
0
0
0
0
0
0
0
0
0
0
0
0
0
0
0
0
0
0
0
0
0
0
0
0
0
0
0
0
0
0
0
0
0
0
0
0
0.95254
1.02145
1.00856
1.0006
0.997011
0.994746
0.992944
0.991512
0.99038
0.989462
0.988703
0.988064
0.987519
0.987047
0.98663
0.986253
0.985906
0.985577
0.985257
0.984938
0.984612
0.984272
0.983914
0.983534
0.983129
0.9827
0.982248
0.981778
0.981298
0.980815
0.980341
0.979889
0.979471
0.979103
0.978794
0.978558
0.978403
0.978334
0.978356
0.978467
0.978665
0.978944
0.979294
0.979704
0.980163
0.980658
0.981173
0.981698
0.982218
0.982724
0.983206
0.983656
0.984071
0.984445
0.984779
0.985072
0.985326
0.985545
0.985731
0.985889
0.986022
0.986137
0.986236
0.986323
0.986401
0.986473
0.986541
0.986607
0.986673
0.986738
0.986805
0.986872
0.986942
0.987014
0.987088
0.987166
0.987247
0.987331
0.987421
0.987516
0.987617
0.987726
0.987844
0.987972
0.988112
0.988265
0.988433
0.988617
0.988819
0.989039
0.989279
0.98954
0.989821
0.990122
0.990444
0.990784
0.991141
0.991513
0.991899
0.992294
0.992695
0.993099
0.993502
0.9939
0.994288
0.994663
0.995021
0.995358
0.995671
0.995955
0.996209
0.996429
0.996614
0.996761
0.99687
0.996938
0.996966
0.996952
0.996899
0.996807
0.996676
0.996511
0.996313
0.996086
0.995835
0.995563
0.995276
0.994979
0.994678
0.994377
0.994082
0.993797
0.993526
0.993272
0.993038
0.992827
0.992639
0.992475
0.992335
0.99222
0.992128
0.99206
0.992014
0.99199
0.991987
0.992004
0.992042
0.992098
0.992172
0.992263
0.992371
0.992494
0.992631
0.992779
0.992937
0.993103
0.993275
0.99345
0.993625
0.993798
0.993968
0.994131
0.994286
0.994431
0.994565
0.994687
0.994797
0.994895
0.99498
0.995053
0.995114
0.995164
0.995205
0.995237
0.99526
0.995276
0.995285
0.995289
0.995288
0.995281
0.99527
0.995256
0.995237
0.995214
0.995187
0.995156
0.995122
0.995083
0.99504
0.994992
0.99494
0.994883
0.994821
0.994755
0.994684
0.994608
0.994528
0.994444
0.994357
0.994266
0.994173
0.994077
0.993981
0.993884
0.993788
0.993693
0.993602
0.993515
0.993433
0.993358
0.993291
0.993233
0.993186
0.993151
0.993129
0.993122
0.993129
0.993153
0.993192
0.993248
0.99332
0.993408
0.993511
0.993629
0.993759
0.993901
0.994054
0.994216
0.994385
0.994561
0.994743
0.99493
0.995121
0.995316
0.995515
0.995718
0.995924
0.996133
0.996343
0.996554
0.996762
0.996966
0.997162
0.997346
0.997515
0.997665
0.997792
0.997893
0.997964
0.998003
0.998009
0.997982
0.997923
0.997833
0.997715
0.997572
0.997408
0.997227
0.997034
0.996833
0.996628
0.996424
0.996222
0.996027
0.995841
0.995665
0.995501
0.995349
0.995209
0.995082
0.994967
0.994864
0.994772
0.994689
0.994615
0.99455
0.994493
0.994442
0.994399
0.994361
0.99433
0.994305
0.994287
0.994276
0.994272
0.994277
0.994291
0.994315
0.994349
0.994395
0.994453
0.994524
0.994609
0.994708
0.99482
0.994946
0.995085
0.995236
0.9954
0.995573
0.995756
0.995946
0.996143
0.996343
0.996546
0.996751
0.996954
0.997156
0.997354
0.997547
0.997735
0.997917
0.998091
0.998258
0.998417
0.998568
0.99871
0.998845
0.998972
0.999091
0.999203
0.999308
0.999406
0.999498
0.999584
0.999664
0.999739
0.999809
0.999873
0.999934
0.99999
1.00004
1.00009
1.00014
1.00018
1.00022
1.00025
1.00029
1.00032
1.00034
1.00037
1.00039
1.00041
1.00043
1.00044
1.00046
1.00047
1.00048
1.00048
1.00049
1.00048
1.00049
1.00048
1.00048
1.00046
1.00046
1.00044
1.00043
1.0004
1.00038
1.00035
1.00033
1.00029
1.00026
1.00022
1.00019
1.00014
1.0001
1.00005
1
0.999945
0.999893
0.999833
0.999776
0.999712
0.999652
0.999584
0.999521
0.99945
0.999384
0.999312
0.999244
0.999169
0.999097
0.999017
0.998937
0.998844
0.998742
0.998615
0.998461
0.998256
0.997984
0.997577
0.996907
0.995834
0.994638
0.993906
0.989741
0.954462
0.850588
0
0
1.02227
1.01474
1.0067
1.0022
0.998369
0.995569
0.993547
0.992001
0.990771
0.989769
0.988948
0.988259
0.987677
0.987174
0.986732
0.986336
0.985973
0.985631
0.985301
0.984974
0.984642
0.984299
0.98394
0.98356
0.983158
0.982733
0.982288
0.981825
0.981352
0.980877
0.980411
0.979965
0.979553
0.979187
0.978878
0.978639
0.978478
0.978401
0.978411
0.978509
0.978692
0.978955
0.979289
0.979685
0.980129
0.980611
0.981116
0.981632
0.982147
0.98265
0.983131
0.983584
0.984002
0.984382
0.984723
0.985024
0.985287
0.985513
0.985707
0.985873
0.986014
0.986135
0.986239
0.98633
0.986413
0.986488
0.986559
0.986627
0.986694
0.986761
0.986829
0.986897
0.986968
0.987041
0.987117
0.987195
0.987277
0.987364
0.987454
0.987551
0.987654
0.987765
0.987884
0.988014
0.988155
0.98831
0.988478
0.988662
0.988864
0.989083
0.989321
0.989579
0.989856
0.990153
0.990469
0.990803
0.991153
0.991518
0.991895
0.992282
0.992675
0.99307
0.993465
0.993855
0.994237
0.994606
0.994959
0.995291
0.995601
0.995883
0.996136
0.996357
0.996543
0.996693
0.996805
0.996877
0.99691
0.996904
0.996857
0.996772
0.99665
0.996492
0.996303
0.996084
0.995841
0.995577
0.995298
0.995007
0.994712
0.994416
0.994125
0.993842
0.993573
0.99332
0.993087
0.992874
0.992685
0.992519
0.992377
0.992259
0.992165
0.992094
0.992045
0.992018
0.992012
0.992027
0.99206
0.992113
0.992183
0.992271
0.992374
0.992493
0.992624
0.992768
0.992921
0.993083
0.99325
0.99342
0.993592
0.993762
0.993929
0.994091
0.994245
0.994389
0.994524
0.994647
0.994759
0.994858
0.994945
0.99502
0.995084
0.995137
0.99518
0.995214
0.99524
0.995258
0.99527
0.995275
0.995275
0.99527
0.995261
0.995247
0.995229
0.995207
0.995181
0.995151
0.995117
0.995078
0.995036
0.994988
0.994937
0.994881
0.99482
0.994754
0.994684
0.994609
0.99453
0.994447
0.994361
0.994271
0.994179
0.994085
0.99399
0.993895
0.9938
0.993707
0.993617
0.993532
0.993451
0.993377
0.993311
0.993254
0.993208
0.993173
0.993152
0.993144
0.993151
0.993173
0.993212
0.993266
0.993336
0.993422
0.993523
0.993638
0.993766
0.993906
0.994057
0.994217
0.994385
0.99456
0.994741
0.994927
0.995117
0.995312
0.995511
0.995713
0.995917
0.996124
0.996332
0.996539
0.996744
0.996943
0.997135
0.997314
0.997479
0.997625
0.997748
0.997846
0.997914
0.997952
0.997958
0.997932
0.997875
0.997787
0.997672
0.997532
0.997372
0.997195
0.997007
0.99681
0.996609
0.996408
0.996211
0.996019
0.995836
0.995662
0.9955
0.99535
0.995212
0.995087
0.994973
0.99487
0.994778
0.994696
0.994623
0.994558
0.9945
0.99445
0.994407
0.99437
0.994339
0.994315
0.994297
0.994287
0.994285
0.994291
0.994306
0.994331
0.994367
0.994415
0.994475
0.994547
0.994633
0.994732
0.994845
0.994972
0.995111
0.995262
0.995424
0.995596
0.995778
0.995966
0.99616
0.996358
0.996559
0.99676
0.996961
0.99716
0.997355
0.997546
0.997731
0.997911
0.998083
0.998248
0.998406
0.998556
0.998697
0.998832
0.998958
0.999077
0.999188
0.999293
0.999391
0.999483
0.999568
0.999649
0.999723
0.999794
0.999858
0.999919
0.999975
1.00003
1.00008
1.00012
1.00016
1.0002
1.00024
1.00027
1.0003
1.00033
1.00035
1.00038
1.00039
1.00041
1.00042
1.00044
1.00045
1.00046
1.00046
1.00047
1.00046
1.00047
1.00046
1.00045
1.00044
1.00043
1.00041
1.0004
1.00037
1.00036
1.00032
1.0003
1.00026
1.00023
1.00019
1.00015
1.0001
1.00006
1
0.999952
0.99989
0.999836
0.999769
0.999709
0.999637
0.999571
0.999493
0.999422
0.999339
0.999261
0.999171
0.999086
0.998987
0.99889
0.998776
0.998657
0.998514
0.998354
0.998151
0.997904
0.997569
0.997117
0.99648
0.995618
0.994366
0.992002
0.986616
0.977663
0.969193
0.956772
0
0
1.01843
1.00909
1.0058
1.00185
0.9983
0.995725
0.993757
0.99219
0.99093
0.989904
0.989059
0.988351
0.987751
0.987232
0.986779
0.986372
0.986001
0.985651
0.985316
0.984984
0.984649
0.984305
0.983946
0.983568
0.98317
0.98275
0.982311
0.981857
0.981393
0.980927
0.98047
0.980033
0.979627
0.979265
0.978958
0.978718
0.978552
0.978467
0.978467
0.978553
0.978721
0.978967
0.979284
0.979663
0.980092
0.980558
0.981051
0.981557
0.982064
0.982562
0.983042
0.983495
0.983917
0.984303
0.984651
0.98496
0.985232
0.985468
0.985672
0.985847
0.985996
0.986124
0.986235
0.986333
0.98642
0.986499
0.986574
0.986645
0.986714
0.986783
0.986853
0.986924
0.986996
0.987071
0.987149
0.987229
0.987314
0.987403
0.987496
0.987596
0.987702
0.987816
0.987939
0.988072
0.988216
0.988373
0.988544
0.988729
0.988931
0.98915
0.989387
0.989641
0.989915
0.990206
0.990515
0.990841
0.991182
0.991537
0.991903
0.992277
0.992658
0.993042
0.993425
0.993804
0.994175
0.994535
0.99488
0.995206
0.995511
0.99579
0.996041
0.996262
0.99645
0.996603
0.996719
0.996797
0.996837
0.996838
0.996801
0.996725
0.996613
0.996466
0.996287
0.996079
0.995846
0.995592
0.995321
0.995039
0.994751
0.994461
0.994175
0.993896
0.99363
0.993379
0.993145
0.992933
0.992742
0.992574
0.99243
0.992309
0.992212
0.992138
0.992086
0.992055
0.992045
0.992055
0.992084
0.992132
0.992197
0.992278
0.992376
0.992487
0.992612
0.992749
0.992896
0.99305
0.993211
0.993376
0.993542
0.993708
0.993871
0.99403
0.994182
0.994326
0.99446
0.994585
0.994698
0.9948
0.99489
0.994968
0.995036
0.995093
0.99514
0.995177
0.995207
0.995228
0.995243
0.995251
0.995254
0.995251
0.995244
0.995232
0.995215
0.995194
0.99517
0.995141
0.995107
0.99507
0.995028
0.994981
0.99493
0.994875
0.994814
0.99475
0.99468
0.994607
0.994529
0.994447
0.994362
0.994274
0.994183
0.994091
0.993997
0.993904
0.993811
0.99372
0.993632
0.993548
0.99347
0.993398
0.993333
0.993278
0.993233
0.993199
0.993178
0.99317
0.993177
0.993199
0.993236
0.993289
0.993357
0.993441
0.993539
0.993652
0.993777
0.993915
0.994063
0.994221
0.994387
0.994561
0.994741
0.994927
0.995117
0.995312
0.99551
0.995711
0.995915
0.99612
0.996326
0.99653
0.996731
0.996926
0.997113
0.997288
0.997448
0.997589
0.997708
0.997802
0.997868
0.997904
0.99791
0.997884
0.997827
0.997741
0.997628
0.997492
0.997335
0.997163
0.996978
0.996785
0.996588
0.996391
0.996196
0.996008
0.995828
0.995657
0.995497
0.995349
0.995213
0.995088
0.994976
0.994874
0.994783
0.994701
0.994628
0.994564
0.994507
0.994457
0.994414
0.994378
0.994348
0.994325
0.994309
0.9943
0.9943
0.994308
0.994325
0.994352
0.99439
0.99444
0.994501
0.994576
0.994663
0.994764
0.994878
0.995004
0.995143
0.995293
0.995454
0.995625
0.995803
0.995989
0.99618
0.996374
0.996571
0.996769
0.996966
0.997161
0.997353
0.99754
0.997723
0.997899
0.998069
0.998232
0.998388
0.998536
0.998677
0.99881
0.998936
0.999055
0.999166
0.999271
0.999369
0.999461
0.999547
0.999628
0.999702
0.999773
0.999838
0.9999
0.999956
1.00001
1.00006
1.0001
1.00015
1.00019
1.00022
1.00025
1.00028
1.00031
1.00033
1.00036
1.00038
1.00039
1.00041
1.00042
1.00043
1.00044
1.00044
1.00045
1.00044
1.00044
1.00044
1.00043
1.00042
1.00041
1.00039
1.00037
1.00035
1.00033
1.00029
1.00027
1.00023
1.00019
1.00015
1.00011
1.00006
1.00001
0.999955
0.999902
0.999838
0.999778
0.999708
0.999641
0.999564
0.99949
0.999406
0.999324
0.999231
0.99914
0.999036
0.998932
0.998814
0.99869
0.998549
0.998394
0.998211
0.997999
0.997737
0.997413
0.996993
0.996443
0.995677
0.994569
0.992976
0.990796
0.987297
0.980676
0.976802
0.982703
0
0
1.008
1.00558
1.00347
1.00021
0.997634
0.995442
0.993608
0.992115
0.990899
0.989894
0.989058
0.988352
0.987753
0.987233
0.986778
0.986369
0.985994
0.985642
0.985304
0.98497
0.984635
0.98429
0.983932
0.983556
0.983161
0.982747
0.982316
0.981869
0.981415
0.98096
0.980513
0.980085
0.979688
0.979332
0.97903
0.978791
0.978623
0.978533
0.978524
0.978598
0.978752
0.978983
0.979283
0.979643
0.980054
0.980505
0.980983
0.981476
0.981974
0.982466
0.982942
0.983395
0.98382
0.98421
0.984565
0.984883
0.985165
0.985411
0.985625
0.98581
0.985969
0.986106
0.986225
0.986329
0.986422
0.986507
0.986586
0.986661
0.986733
0.986805
0.986877
0.98695
0.987025
0.987103
0.987183
0.987267
0.987355
0.987447
0.987545
0.987648
0.987759
0.987878
0.988006
0.988143
0.988292
0.988453
0.988627
0.988815
0.989018
0.989237
0.989473
0.989725
0.989994
0.990279
0.99058
0.990896
0.991226
0.991568
0.991921
0.992281
0.992647
0.993016
0.993384
0.993749
0.994107
0.994455
0.994789
0.995107
0.995404
0.995679
0.995927
0.996148
0.996337
0.996493
0.996615
0.9967
0.996748
0.996758
0.996731
0.996666
0.996566
0.996431
0.996264
0.996068
0.995847
0.995604
0.995344
0.995072
0.994792
0.99451
0.99423
0.993956
0.993693
0.993444
0.993212
0.992999
0.992808
0.992639
0.992492
0.992369
0.992268
0.99219
0.992134
0.992099
0.992084
0.992089
0.992113
0.992154
0.992213
0.992287
0.992377
0.992481
0.992597
0.992725
0.992863
0.993009
0.993162
0.993318
0.993478
0.993638
0.993796
0.99395
0.9941
0.994242
0.994377
0.994502
0.994617
0.994721
0.994815
0.994898
0.99497
0.995032
0.995083
0.995126
0.99516
0.995186
0.995205
0.995217
0.995223
0.995224
0.995219
0.99521
0.995195
0.995177
0.995153
0.995126
0.995094
0.995057
0.995016
0.99497
0.99492
0.994865
0.994806
0.994742
0.994674
0.994601
0.994524
0.994444
0.99436
0.994273
0.994184
0.994094
0.994002
0.993911
0.993821
0.993732
0.993646
0.993565
0.993489
0.993419
0.993356
0.993303
0.993259
0.993227
0.993207
0.9932
0.993207
0.993228
0.993264
0.993316
0.993382
0.993463
0.993559
0.993669
0.993792
0.993927
0.994073
0.994228
0.994393
0.994566
0.994745
0.99493
0.995121
0.995315
0.995513
0.995714
0.995917
0.996121
0.996325
0.996526
0.996724
0.996915
0.997097
0.997267
0.997422
0.997558
0.997672
0.997762
0.997825
0.997859
0.997863
0.997837
0.997781
0.997696
0.997586
0.997452
0.997299
0.997129
0.996948
0.996759
0.996565
0.996371
0.99618
0.995995
0.995817
0.995649
0.995491
0.995345
0.995211
0.995088
0.994976
0.994876
0.994786
0.994705
0.994633
0.994569
0.994513
0.994464
0.994422
0.994387
0.994359
0.994337
0.994323
0.994316
0.994318
0.994328
0.994348
0.994378
0.994418
0.994471
0.994535
0.994612
0.994701
0.994803
0.994917
0.995044
0.995182
0.995331
0.99549
0.995658
0.995833
0.996015
0.996202
0.996392
0.996584
0.996777
0.996969
0.997159
0.997346
0.99753
0.997708
0.997882
0.998049
0.998209
0.998363
0.99851
0.998649
0.998782
0.998907
0.999025
0.999137
0.999242
0.99934
0.999433
0.999519
0.9996
0.999676
0.999747
0.999813
0.999875
0.999932
0.999986
1.00004
1.00008
1.00012
1.00016
1.0002
1.00023
1.00026
1.00029
1.00031
1.00034
1.00036
1.00037
1.00039
1.0004
1.00041
1.00042
1.00042
1.00042
1.00042
1.00042
1.00041
1.00041
1.00039
1.00038
1.00036
1.00035
1.00032
1.0003
1.00027
1.00024
1.0002
1.00016
1.00012
1.00007
1.00002
0.99997
0.999911
0.999854
0.999788
0.999724
0.99965
0.999578
0.999497
0.999415
0.999325
0.999234
0.999132
0.999029
0.998913
0.998793
0.998659
0.998515
0.998351
0.998169
0.997957
0.99771
0.997411
0.997045
0.99658
0.995982
0.995205
0.994173
0.992711
0.990637
0.988376
0.986324
0.984568
0.987332
0
0
1.00182
1.00196
1.0004
0.998477
0.996597
0.99477
0.993188
0.991849
0.990719
0.989767
0.988964
0.988281
0.987696
0.987186
0.986736
0.986331
0.985959
0.985608
0.98527
0.984936
0.984599
0.984255
0.983898
0.983525
0.983134
0.982725
0.9823
0.981863
0.981418
0.980973
0.980538
0.980121
0.979734
0.979387
0.979091
0.978856
0.978688
0.978595
0.97858
0.978644
0.978785
0.979
0.979283
0.979625
0.980018
0.980452
0.980914
0.981393
0.98188
0.982364
0.982835
0.983287
0.983713
0.984108
0.984469
0.984796
0.985087
0.985344
0.985569
0.985764
0.985934
0.98608
0.986208
0.98632
0.98642
0.98651
0.986594
0.986673
0.98675
0.986825
0.9869
0.986977
0.987055
0.987135
0.987219
0.987307
0.987399
0.987496
0.987598
0.987707
0.987824
0.987948
0.988082
0.988225
0.98838
0.988546
0.988724
0.988916
0.989121
0.989341
0.989576
0.989825
0.990089
0.990368
0.99066
0.990966
0.991283
0.991611
0.991948
0.992292
0.992641
0.992992
0.993343
0.993691
0.994033
0.994366
0.994688
0.994995
0.995284
0.995553
0.995798
0.996017
0.996207
0.996367
0.996494
0.996586
0.996643
0.996664
0.996648
0.996596
0.996508
0.996387
0.996233
0.996051
0.995842
0.995612
0.995364
0.995103
0.994833
0.994559
0.994287
0.994019
0.99376
0.993515
0.993285
0.993073
0.992881
0.99271
0.992562
0.992436
0.992332
0.99225
0.99219
0.99215
0.99213
0.992129
0.992146
0.992181
0.992232
0.992298
0.992379
0.992473
0.99258
0.992698
0.992825
0.992961
0.993104
0.993251
0.993402
0.993555
0.993706
0.993856
0.994002
0.994142
0.994276
0.994401
0.994518
0.994626
0.994723
0.99481
0.994888
0.994955
0.995012
0.995061
0.9951
0.995132
0.995156
0.995173
0.995183
0.995188
0.995187
0.995181
0.995169
0.995153
0.995132
0.995106
0.995075
0.99504
0.995
0.994956
0.994907
0.994853
0.994794
0.994731
0.994664
0.994592
0.994516
0.994437
0.994355
0.99427
0.994183
0.994094
0.994005
0.993916
0.993828
0.993742
0.993659
0.99358
0.993507
0.993439
0.99338
0.993329
0.993287
0.993257
0.993238
0.993232
0.993239
0.99326
0.993296
0.993346
0.993411
0.99349
0.993583
0.99369
0.99381
0.993942
0.994085
0.994239
0.994402
0.994573
0.994752
0.994937
0.995127
0.995322
0.99552
0.995721
0.995924
0.996127
0.996329
0.996528
0.996722
0.996909
0.997086
0.997251
0.9974
0.997531
0.997641
0.997726
0.997786
0.997817
0.997819
0.997792
0.997737
0.997653
0.997545
0.997413
0.997263
0.997096
0.996918
0.996732
0.996542
0.996351
0.996163
0.99598
0.995805
0.995639
0.995484
0.995339
0.995207
0.995085
0.994975
0.994876
0.994787
0.994707
0.994637
0.994574
0.994519
0.994471
0.994431
0.994397
0.994371
0.994351
0.994339
0.994335
0.994339
0.994353
0.994376
0.994409
0.994453
0.994509
0.994576
0.994655
0.994746
0.99485
0.994965
0.995092
0.995229
0.995376
0.995533
0.995697
0.995869
0.996046
0.996227
0.996411
0.996597
0.996784
0.99697
0.997155
0.997337
0.997515
0.997689
0.997858
0.998022
0.998179
0.998331
0.998475
0.998614
0.998745
0.99887
0.998988
0.9991
0.999205
0.999304
0.999397
0.999485
0.999567
0.999644
0.999716
0.999782
0.999845
0.999903
0.999958
1.00001
1.00006
1.0001
1.00014
1.00017
1.00021
1.00024
1.00027
1.00029
1.00031
1.00033
1.00035
1.00036
1.00038
1.00039
1.00039
1.0004
1.0004
1.0004
1.0004
1.00039
1.00038
1.00037
1.00036
1.00034
1.00032
1.00029
1.00027
1.00024
1.00021
1.00017
1.00013
1.00008
1.00004
0.999985
0.999932
0.999872
0.999812
0.999744
0.999675
0.999599
0.999522
0.999437
0.99935
0.999254
0.999156
0.999047
0.998935
0.99881
0.998678
0.998532
0.998374
0.998196
0.997998
0.997769
0.997505
0.997191
0.996814
0.996352
0.995777
0.995049
0.994134
0.993023
0.991666
0.99018
0.98939
0.989129
0.989839
0
0
0.998362
0.998657
0.997854
0.996751
0.995344
0.99393
0.992624
0.991455
0.990436
0.989559
0.988806
0.988158
0.987596
0.987103
0.986665
0.986267
0.9859
0.985552
0.985215
0.984882
0.984546
0.984202
0.983847
0.983476
0.983088
0.982684
0.982266
0.981837
0.981402
0.980969
0.980545
0.98014
0.979765
0.979428
0.979141
0.978911
0.978746
0.978652
0.978632
0.978687
0.978817
0.979018
0.979284
0.979609
0.979984
0.9804
0.980845
0.98131
0.981785
0.98226
0.982725
0.983174
0.983601
0.983999
0.984366
0.984701
0.985001
0.985269
0.985505
0.985711
0.985891
0.986048
0.986185
0.986305
0.986412
0.986509
0.986599
0.986683
0.986764
0.986843
0.986922
0.987002
0.987084
0.987169
0.987257
0.987349
0.987446
0.987548
0.987657
0.987772
0.987895
0.988026
0.988167
0.988317
0.988478
0.98865
0.988833
0.989029
0.989237
0.989458
0.989692
0.989938
0.990197
0.990469
0.990752
0.991046
0.99135
0.991662
0.991982
0.992308
0.992637
0.992969
0.993301
0.99363
0.993955
0.994272
0.99458
0.994875
0.995154
0.995416
0.995656
0.995873
0.996064
0.996227
0.996359
0.996459
0.996525
0.996557
0.996553
0.996514
0.99644
0.996333
0.996194
0.996026
0.995832
0.995615
0.99538
0.995131
0.994872
0.994608
0.994344
0.994083
0.99383
0.993588
0.993361
0.993151
0.992959
0.992788
0.992638
0.992509
0.992402
0.992317
0.992252
0.992208
0.992182
0.992175
0.992186
0.992213
0.992255
0.992312
0.992383
0.992467
0.992563
0.992669
0.992785
0.992909
0.993041
0.993178
0.993319
0.993462
0.993606
0.99375
0.993891
0.994028
0.99416
0.994286
0.994404
0.994515
0.994616
0.994708
0.99479
0.994863
0.994927
0.994982
0.995028
0.995065
0.995095
0.995118
0.995134
0.995143
0.995146
0.995144
0.995136
0.995122
0.995104
0.99508
0.995052
0.995018
0.99498
0.994937
0.994889
0.994836
0.994778
0.994716
0.99465
0.99458
0.994505
0.994428
0.994347
0.994264
0.994179
0.994092
0.994005
0.993919
0.993834
0.993751
0.993671
0.993595
0.993524
0.99346
0.993403
0.993355
0.993316
0.993287
0.99327
0.993266
0.993273
0.993295
0.99333
0.993379
0.993442
0.993519
0.99361
0.993714
0.993831
0.99396
0.994101
0.994252
0.994414
0.994584
0.994761
0.994946
0.995137
0.995332
0.995531
0.995732
0.995935
0.996137
0.996337
0.996534
0.996725
0.996908
0.99708
0.99724
0.997384
0.997509
0.997614
0.997694
0.99775
0.997778
0.997778
0.99775
0.997694
0.997612
0.997505
0.997376
0.997227
0.997064
0.996888
0.996705
0.996518
0.99633
0.996145
0.995964
0.995792
0.995628
0.995474
0.995332
0.995201
0.995081
0.994973
0.994875
0.994787
0.994709
0.994639
0.994578
0.994525
0.994479
0.99444
0.994408
0.994384
0.994367
0.994358
0.994357
0.994365
0.994382
0.994409
0.994446
0.994494
0.994554
0.994624
0.994707
0.9948
0.994905
0.995021
0.995148
0.995284
0.995429
0.995583
0.995743
0.995909
0.99608
0.996255
0.996433
0.996612
0.996792
0.996971
0.997149
0.997324
0.997497
0.997665
0.997829
0.997989
0.998143
0.998291
0.998434
0.99857
0.998701
0.998825
0.998943
0.999055
0.999161
0.999261
0.999355
0.999444
0.999527
0.999605
0.999678
0.999746
0.99981
0.99987
0.999926
0.999977
1.00002
1.00007
1.00011
1.00015
1.00018
1.00021
1.00024
1.00027
1.00029
1.00031
1.00033
1.00034
1.00035
1.00036
1.00037
1.00037
1.00038
1.00038
1.00037
1.00037
1.00036
1.00035
1.00033
1.00031
1.0003
1.00027
1.00024
1.00021
1.00018
1.00014
1.0001
1.00005
1.00001
0.999954
0.999899
0.999838
0.999775
0.999706
0.999635
0.999557
0.999476
0.999388
0.999297
0.999198
0.999094
0.998982
0.998863
0.998733
0.998594
0.998442
0.998276
0.998091
0.997886
0.997654
0.997389
0.99708
0.996718
0.996288
0.995774
0.995159
0.994425
0.993589
0.992749
0.991957
0.991472
0.991622
0.992151
0
0
0.995905
0.996117
0.995808
0.995104
0.994113
0.99305
0.991986
0.990992
0.990095
0.989304
0.988609
0.988003
0.987469
0.986997
0.986573
0.986185
0.985824
0.98548
0.985146
0.984814
0.984478
0.984135
0.98378
0.983411
0.983026
0.982627
0.982215
0.981795
0.98137
0.980947
0.980536
0.980144
0.97978
0.979455
0.979177
0.978954
0.978794
0.9787
0.978677
0.978726
0.978846
0.979034
0.979286
0.979594
0.979952
0.98035
0.980779
0.981229
0.981691
0.982156
0.982615
0.98306
0.983486
0.983887
0.984259
0.984601
0.984911
0.985188
0.985435
0.985652
0.985843
0.98601
0.986156
0.986285
0.9864
0.986504
0.9866
0.986689
0.986775
0.986859
0.986942
0.987027
0.987113
0.987202
0.987295
0.987392
0.987495
0.987604
0.987719
0.987842
0.987972
0.988111
0.988259
0.988416
0.988584
0.988762
0.988951
0.989151
0.989362
0.989583
0.989816
0.99006
0.990314
0.990578
0.990851
0.991132
0.991422
0.991718
0.99202
0.992326
0.992636
0.992947
0.993258
0.993568
0.993873
0.994173
0.994465
0.994747
0.995016
0.995269
0.995504
0.995718
0.995909
0.996075
0.996212
0.996319
0.996395
0.996437
0.996446
0.996421
0.996361
0.996269
0.996145
0.995993
0.995814
0.995612
0.99539
0.995154
0.994907
0.994654
0.994399
0.994146
0.9939
0.993663
0.993439
0.993231
0.993041
0.99287
0.992719
0.992588
0.992479
0.99239
0.992321
0.992272
0.992241
0.992227
0.992231
0.99225
0.992283
0.992331
0.992391
0.992464
0.992547
0.992641
0.992745
0.992856
0.992975
0.9931
0.99323
0.993364
0.993499
0.993635
0.993771
0.993904
0.994034
0.994159
0.994278
0.994391
0.994495
0.994592
0.99468
0.994759
0.994829
0.99489
0.994942
0.994987
0.995023
0.995052
0.995073
0.995088
0.995096
0.995098
0.995094
0.995084
0.995069
0.995048
0.995022
0.994991
0.994955
0.994913
0.994866
0.994815
0.994759
0.994698
0.994633
0.994564
0.994491
0.994415
0.994336
0.994255
0.994172
0.994088
0.994004
0.99392
0.993838
0.993757
0.993681
0.993608
0.993541
0.99348
0.993426
0.993381
0.993345
0.993319
0.993304
0.9933
0.993309
0.993331
0.993366
0.993414
0.993475
0.99355
0.993639
0.99374
0.993855
0.993981
0.994119
0.994269
0.994428
0.994597
0.994774
0.994959
0.995149
0.995345
0.995545
0.995746
0.995949
0.99615
0.996349
0.996544
0.996731
0.996911
0.997078
0.997233
0.997371
0.997491
0.99759
0.997666
0.997718
0.997743
0.997741
0.997711
0.997655
0.997573
0.997467
0.997339
0.997193
0.997032
0.99686
0.996679
0.996494
0.996309
0.996126
0.995948
0.995778
0.995616
0.995464
0.995324
0.995195
0.995077
0.99497
0.994873
0.994787
0.99471
0.994642
0.994582
0.994531
0.994486
0.99445
0.994421
0.994399
0.994385
0.99438
0.994383
0.994395
0.994417
0.994448
0.99449
0.994543
0.994606
0.994681
0.994766
0.994862
0.994969
0.995086
0.995212
0.995347
0.99549
0.995639
0.995795
0.995955
0.99612
0.996288
0.996458
0.996629
0.9968
0.996972
0.997141
0.997309
0.997475
0.997637
0.997796
0.99795
0.9981
0.998246
0.998386
0.99852
0.998649
0.998773
0.998891
0.999003
0.999109
0.99921
0.999305
0.999395
0.99948
0.99956
0.999635
0.999704
0.99977
0.999831
0.999888
0.999941
0.99999
1.00004
1.00008
1.00012
1.00015
1.00018
1.00021
1.00024
1.00026
1.00028
1.0003
1.00032
1.00033
1.00034
1.00035
1.00035
1.00035
1.00035
1.00035
1.00034
1.00034
1.00032
1.00031
1.00029
1.00027
1.00025
1.00022
1.00019
1.00016
1.00012
1.00008
1.00003
0.999981
0.999928
0.999872
0.99981
0.999746
0.999676
0.999603
0.999524
0.999442
0.999353
0.999259
0.999158
0.999052
0.998937
0.998816
0.998684
0.998543
0.998389
0.998222
0.998039
0.997836
0.99761
0.997356
0.997068
0.996737
0.996357
0.995919
0.995421
0.99487
0.994284
0.993733
0.99332
0.993092
0.99327
0.993842
0
0
0.993948
0.994205
0.994117
0.993669
0.992993
0.992189
0.991336
0.990507
0.98973
0.989025
0.988391
0.987829
0.987327
0.986878
0.986468
0.986091
0.985737
0.985397
0.985064
0.984733
0.984397
0.984054
0.983699
0.983332
0.98295
0.982555
0.982149
0.981736
0.981321
0.98091
0.980511
0.980132
0.979781
0.979468
0.9792
0.978986
0.978831
0.97874
0.978717
0.978761
0.978873
0.97905
0.979288
0.979581
0.979922
0.980303
0.980716
0.981151
0.9816
0.982055
0.982506
0.982947
0.983372
0.983774
0.984151
0.984499
0.984817
0.985104
0.985361
0.985589
0.98579
0.985967
0.986123
0.986261
0.986384
0.986495
0.986597
0.986693
0.986784
0.986873
0.986961
0.98705
0.987141
0.987236
0.987335
0.987438
0.987547
0.987663
0.987785
0.987915
0.988054
0.9882
0.988356
0.988521
0.988696
0.98888
0.989074
0.989278
0.989492
0.989714
0.989946
0.990186
0.990434
0.99069
0.990953
0.991221
0.991496
0.991775
0.992058
0.992345
0.992634
0.992924
0.993214
0.993503
0.993789
0.994071
0.994347
0.994614
0.994871
0.995115
0.995344
0.995555
0.995746
0.995913
0.996055
0.99617
0.996254
0.996308
0.996329
0.996317
0.996272
0.996196
0.996088
0.995951
0.995787
0.995601
0.995394
0.995172
0.994937
0.994696
0.994451
0.994207
0.993968
0.993737
0.993518
0.993313
0.993125
0.992955
0.992804
0.992672
0.992561
0.992469
0.992396
0.992342
0.992306
0.992286
0.992282
0.992293
0.992317
0.992354
0.992404
0.992464
0.992536
0.992616
0.992706
0.992804
0.99291
0.993022
0.99314
0.993263
0.993388
0.993516
0.993645
0.993773
0.9939
0.994023
0.994142
0.994256
0.994364
0.994464
0.994557
0.994642
0.994718
0.994786
0.994845
0.994897
0.99494
0.994975
0.995002
0.995023
0.995037
0.995043
0.995044
0.995038
0.995027
0.995009
0.994986
0.994958
0.994924
0.994884
0.994839
0.99479
0.994735
0.994676
0.994612
0.994545
0.994474
0.994399
0.994322
0.994243
0.994163
0.994081
0.994
0.993919
0.99384
0.993763
0.99369
0.993621
0.993557
0.9935
0.993449
0.993407
0.993374
0.993351
0.993338
0.993336
0.993346
0.993368
0.993403
0.99345
0.99351
0.993584
0.99367
0.993769
0.993881
0.994005
0.99414
0.994287
0.994445
0.994613
0.994789
0.994974
0.995165
0.995361
0.995561
0.995763
0.995966
0.996167
0.996364
0.996557
0.996742
0.996917
0.99708
0.99723
0.997363
0.997477
0.997571
0.997642
0.997689
0.997711
0.997707
0.997676
0.997619
0.997537
0.997432
0.997305
0.997161
0.997002
0.996832
0.996654
0.996471
0.996288
0.996108
0.995932
0.995763
0.995603
0.995454
0.995315
0.995187
0.995071
0.994966
0.994871
0.994786
0.994711
0.994644
0.994587
0.994537
0.994495
0.994461
0.994435
0.994417
0.994407
0.994405
0.994413
0.99443
0.994456
0.994493
0.99454
0.994598
0.994666
0.994745
0.994834
0.994933
0.995041
0.995159
0.995284
0.995417
0.995557
0.995702
0.995852
0.996007
0.996164
0.996324
0.996485
0.996648
0.99681
0.996972
0.997134
0.997293
0.997451
0.997606
0.997759
0.997908
0.998053
0.998194
0.998331
0.998464
0.998591
0.998714
0.998831
0.998943
0.999051
0.999152
0.999249
0.99934
0.999427
0.999508
0.999585
0.999656
0.999724
0.999787
0.999845
0.9999
0.999951
0.999998
1.00004
1.00008
1.00012
1.00015
1.00018
1.00021
1.00023
1.00025
1.00027
1.00029
1.0003
1.00031
1.00032
1.00033
1.00033
1.00033
1.00033
1.00032
1.00031
1.0003
1.00029
1.00027
1.00025
1.00023
1.0002
1.00017
1.00013
1.0001
1.00006
1.00001
0.999961
0.999908
0.999851
0.99979
0.999725
0.999655
0.999582
0.999503
0.99942
0.999331
0.999237
0.999136
0.99903
0.998916
0.998794
0.998664
0.998524
0.998374
0.998211
0.998034
0.997841
0.997629
0.997394
0.997133
0.996842
0.996518
0.996158
0.995768
0.99536
0.994961
0.994608
0.994378
0.994323
0.994506
0.995
0
0
0.992392
0.992696
0.992711
0.99245
0.991987
0.991384
0.990711
0.990026
0.98936
0.988738
0.988166
0.987648
0.987177
0.98675
0.986356
0.985989
0.98564
0.985304
0.984972
0.984641
0.984306
0.983962
0.983607
0.98324
0.98286
0.982469
0.982069
0.981664
0.981258
0.980858
0.980471
0.980105
0.979767
0.979467
0.979211
0.979007
0.978859
0.978772
0.978749
0.978791
0.978897
0.979064
0.97929
0.979569
0.979895
0.98026
0.980658
0.981079
0.981515
0.981959
0.982402
0.982838
0.983261
0.983664
0.984044
0.984398
0.984723
0.985019
0.985285
0.985523
0.985735
0.985922
0.986087
0.986234
0.986365
0.986483
0.986592
0.986693
0.98679
0.986885
0.986979
0.987073
0.98717
0.987271
0.987376
0.987486
0.987602
0.987725
0.987855
0.987993
0.988139
0.988294
0.988458
0.988631
0.988812
0.989003
0.989202
0.989409
0.989625
0.989848
0.990077
0.990313
0.990555
0.990803
0.991054
0.99131
0.991569