# vtk DataFile Version 2.0
LBE mesh
ASCII
DATASET STRUCTURED_POINTS
DIMENSIONS 402 102 1
ASPECT_RATIO 1 1 1
ORIGIN 0 0 0
POINT_DATA 41004
SCALARS rho double 1
LOOKUP_TABLE default
0
0
0
0
0
0
0
0
0
0
0
0
0
0
0
0
0
0
0
0
0
0
0
0
0
0
0
0
0
0
0
0
0
0
0
0
0
0
0
0
0
0
0
0
0
0
0
0
0
0
0
0
0
0
0
0
0
0
0
0
0
0
0
0
0
0
0
0
0
0
0
0
0
0
0
0
0
0
0
0
0
0
0
0
0
0
0
0
0
0
0
0
0
0
0
0
0
0
0
0
0
0
0
0
0
0
0
0
0
0
0
0
0
0
0
0
0
0
0
0
0
0
0
0
0
0
0
0
0
0
0
0
0
0
0
0
0
0
0
0
0
0
0
0
0
0
0
0
0
0
0
0
0
0
0
0
0
0
0
0
0
0
0
0
0
0
0
0
0
0
0
0
0
0
0
0
0
0
0
0
0
0
0
0
0
0
0
0
0
0
0
0
0
0
0
0
0
0
0
0
0
0
0
0
0
0
0
0
0
0
0
0
0
0
0
0
0
0
0
0
0
0
0
0
0
0
0
0
0
0
0
0
0
0
0
0
0
0
0
0
0
0
0
0
0
0
0
0
0
0
0
0
0
0
0
0
0
0
0
0
0
0
0
0
0
0
0
0
0
0
0
0
0
0
0
0
0
0
0
0
0
0
0
0
0
0
0
0
0
0
0
0
0
0
0
0
0
0
0
0
0
0
0
0
0
0
0
0
0
0
0
0
0
0
0
0
0
0
0
0
0
0
0
0
0
0
0
0
0
0
0
0
0
0
0
0
0
0
0
0
0
0
0
0
0
0
0
0
0
0
0
0
0
0
0
0
0
0
0
0
0
0
0
0
0
0
0
0
0
0
0
0
0
0
0
0
0
0
0
0
0
0
0
0
0
0
0
0
0
0
0
0
0
0
0
0
0
0
0
0
0
0
0
0.889549
0.95381
0.941631
0.934061
0.930558
0.928279
0.926413
0.924876
0.923601
0.922513
0.921563
0.92072
0.919962
0.919275
0.918646
0.918067
0.917531
0.917032
0.916565
0.916128
0.915716
0.915328
0.91496
0.914613
0.914283
0.913969
0.913671
0.913387
0.913116
0.912858
0.912611
0.912376
0.912151
0.911935
0.91173
0.911533
0.911344
0.911164
0.910991
0.910826
0.910668
0.910516
0.91037
0.910231
0.910097
0.909969
0.909845
0.909727
0.909613
0.909504
0.909399
0.909297
0.9092
0.909105
0.909015
0.908927
0.908842
0.90876
0.90868
0.908603
0.908527
0.908454
0.908383
0.908314
0.908247
0.908181
0.908116
0.908053
0.907992
0.907932
0.907874
0.907817
0.907761
0.907707
0.907655
0.907605
0.907556
0.90751
0.907465
0.907423
0.907384
0.907347
0.907314
0.907284
0.907257
0.907235
0.907216
0.907202
0.907192
0.907187
0.907187
0.907193
0.907203
0.907219
0.907241
0.907268
0.9073
0.907338
0.907381
0.90743
0.907483
0.907541
0.907604
0.907671
0.907742
0.907816
0.907894
0.907974
0.908057
0.908142
0.908229
0.908317
0.908406
0.908495
0.908585
0.908675
0.908765
0.908855
0.908944
0.909032
0.909119
0.909205
0.90929
0.909373
0.909455
0.909535
0.909614
0.909691
0.909766
0.90984
0.909912
0.909983
0.910052
0.910119
0.910184
0.910248
0.91031
0.910371
0.91043
0.910488
0.910544
0.910599
0.910652
0.910704
0.910754
0.910803
0.910851
0.910898
0.910944
0.910988
0.911031
0.911073
0.911114
0.911154
0.911193
0.911231
0.911268
0.911304
0.91134
0.911374
0.911408
0.911441
0.911473
0.911505
0.911536
0.911566
0.911596
0.911625
0.911654
0.911682
0.91171
0.911737
0.911764
0.91179
0.911816
0.911842
0.911868
0.911893
0.911918
0.911943
0.911967
0.911991
0.912015
0.912039
0.912063
0.912086
0.912109
0.912132
0.912155
0.912178
0.9122
0.912222
0.912244
0.912266
0.912288
0.912309
0.912331
0.912351
0.912372
0.912393
0.912413
0.912433
0.912452
0.912471
0.91249
0.912509
0.912527
0.912545
0.912562
0.912579
0.912596
0.912612
0.912628
0.912643
0.912658
0.912672
0.912686
0.912699
0.912712
0.912725
0.912737
0.912748
0.912759
0.91277
0.91278
0.91279
0.912799
0.912808
0.912817
0.912825
0.912833
0.912841
0.912848
0.912855
0.912862
0.912868
0.912875
0.912881
0.912887
0.912893
0.912899
0.912905
0.91291
0.912916
0.912922
0.912929
0.912935
0.912941
0.912948
0.912955
0.912962
0.91297
0.912978
0.912986
0.912995
0.913004
0.913014
0.913024
0.913035
0.913046
0.913058
0.91307
0.913083
0.913097
0.913111
0.913126
0.913142
0.913158
0.913175
0.913192
0.91321
0.913229
0.913248
0.913268
0.913289
0.91331
0.913332
0.913354
0.913377
0.913401
0.913425
0.913449
0.913474
0.913499
0.913525
0.913551
0.913577
0.913604
0.913631
0.913659
0.913686
0.913714
0.913742
0.91377
0.913799
0.913827
0.913856
0.913884
0.913913
0.913942
0.913971
0.913999
0.914028
0.914057
0.914086
0.914116
0.914145
0.914174
0.914203
0.914233
0.914263
0.914293
0.914323
0.914353
0.914384
0.914416
0.914447
0.91448
0.914513
0.914546
0.914581
0.914616
0.914652
0.914689
0.914728
0.914767
0.914808
0.91485
0.914894
0.91494
0.914987
0.915036
0.915087
0.91514
0.915195
0.915252
0.915311
0.915373
0.915437
0.915503
0.915572
0.915643
0.915717
0.915793
0.915872
0.915953
0.916036
0.916121
0.916208
0.916297
0.916388
0.91648
0.916573
0.916667
0.916762
0.916857
0.916952
0.917047
0.91714
0.917232
0.917322
0.91741
0.917494
0.917576
0.917653
0.917725
0.917792
0.917853
0.917907
0.917955
0.917994
0.918025
0.918048
0.91806
0.918063
0.918055
0.918036
0.918005
0.917963
0.917907
0.917839
0.917757
0.917661
0.917549
0.917421
0.917276
0.91711
0.91692
0.916701
0.916445
0.916142
0.915774
0.915292
0.914575
0.91351
0.912353
0.911652
0.907828
0.875489
0.780227
0
0
0.954674
0.947556
0.939942
0.935611
0.931892
0.929116
0.927043
0.9254
0.924032
0.922868
0.92186
0.920971
0.920179
0.919463
0.918812
0.918215
0.917663
0.917151
0.916674
0.916227
0.915807
0.915412
0.915039
0.914686
0.914351
0.914033
0.913731
0.913443
0.913169
0.912908
0.912659
0.912421
0.912193
0.911976
0.911768
0.911569
0.911379
0.911197
0.911023
0.910856
0.910696
0.910543
0.910396
0.910255
0.91012
0.909991
0.909867
0.909747
0.909633
0.909522
0.909416
0.909314
0.909216
0.909121
0.90903
0.908942
0.908856
0.908774
0.908694
0.908616
0.908541
0.908467
0.908396
0.908327
0.908259
0.908193
0.908129
0.908066
0.908005
0.907945
0.907887
0.90783
0.907775
0.907721
0.907669
0.907619
0.90757
0.907524
0.90748
0.907438
0.907399
0.907363
0.907329
0.907299
0.907272
0.90725
0.907231
0.907216
0.907206
0.907201
0.9072
0.907205
0.907215
0.90723
0.90725
0.907277
0.907308
0.907345
0.907387
0.907434
0.907487
0.907544
0.907606
0.907672
0.907741
0.907815
0.907891
0.907971
0.908053
0.908137
0.908223
0.908311
0.908399
0.908489
0.908578
0.908668
0.908758
0.908847
0.908936
0.909024
0.909111
0.909197
0.909282
0.909365
0.909447
0.909528
0.909606
0.909684
0.909759
0.909833
0.909906
0.909976
0.910045
0.910112
0.910178
0.910242
0.910305
0.910365
0.910425
0.910482
0.910539
0.910594
0.910647
0.910699
0.91075
0.910799
0.910847
0.910894
0.910939
0.910984
0.911027
0.911069
0.91111
0.911151
0.91119
0.911228
0.911265
0.911301
0.911337
0.911371
0.911405
0.911438
0.91147
0.911502
0.911533
0.911564
0.911593
0.911623
0.911651
0.91168
0.911707
0.911735
0.911762
0.911788
0.911814
0.91184
0.911866
0.911891
0.911916
0.911941
0.911965
0.911989
0.912014
0.912037
0.912061
0.912084
0.912108
0.91213
0.912153
0.912176
0.912198
0.912221
0.912243
0.912265
0.912286
0.912308
0.912329
0.91235
0.91237
0.912391
0.912411
0.912431
0.91245
0.91247
0.912488
0.912507
0.912525
0.912543
0.91256
0.912577
0.912594
0.91261
0.912626
0.912641
0.912656
0.91267
0.912684
0.912698
0.912711
0.912723
0.912735
0.912747
0.912758
0.912769
0.912779
0.912789
0.912798
0.912807
0.912816
0.912824
0.912832
0.91284
0.912847
0.912854
0.912861
0.912867
0.912874
0.91288
0.912886
0.912892
0.912898
0.912904
0.91291
0.912916
0.912922
0.912928
0.912934
0.912941
0.912948
0.912955
0.912962
0.91297
0.912978
0.912986
0.912995
0.913004
0.913013
0.913024
0.913034
0.913046
0.913057
0.91307
0.913083
0.913096
0.91311
0.913125
0.913141
0.913157
0.913173
0.913191
0.913209
0.913228
0.913247
0.913267
0.913287
0.913308
0.91333
0.913352
0.913375
0.913398
0.913422
0.913447
0.913471
0.913497
0.913522
0.913548
0.913575
0.913601
0.913628
0.913655
0.913683
0.913711
0.913739
0.913767
0.913795
0.913823
0.913852
0.91388
0.913909
0.913937
0.913966
0.913995
0.914024
0.914053
0.914082
0.914111
0.91414
0.914169
0.914198
0.914228
0.914257
0.914287
0.914317
0.914348
0.914378
0.914409
0.914441
0.914473
0.914506
0.914539
0.914573
0.914608
0.914644
0.914681
0.914719
0.914758
0.914798
0.91484
0.914883
0.914928
0.914975
0.915023
0.915073
0.915125
0.915179
0.915235
0.915294
0.915354
0.915417
0.915482
0.91555
0.915619
0.915692
0.915766
0.915843
0.915922
0.916003
0.916086
0.916171
0.916258
0.916347
0.916436
0.916527
0.916619
0.916711
0.916803
0.916895
0.916987
0.917077
0.917166
0.917253
0.917338
0.917419
0.917497
0.917571
0.917639
0.917703
0.91776
0.917811
0.917854
0.917889
0.917916
0.917933
0.91794
0.917937
0.917923
0.917897
0.917858
0.917806
0.91774
0.91766
0.917563
0.91745
0.917318
0.917165
0.916988
0.916784
0.916546
0.916266
0.915932
0.915519
0.914992
0.914305
0.913417
0.912191
0.909961
0.904989
0.89677
0.889015
0.877636
0
0
0.951096
0.94228
0.939126
0.935323
0.931882
0.929324
0.927307
0.925646
0.924253
0.923065
0.922034
0.921126
0.920317
0.919587
0.918923
0.918315
0.917755
0.917235
0.916751
0.916298
0.915873
0.915473
0.915096
0.914739
0.914401
0.91408
0.913775
0.913485
0.913209
0.912946
0.912694
0.912454
0.912225
0.912006
0.911797
0.911596
0.911405
0.911221
0.911046
0.910878
0.910717
0.910563
0.910415
0.910273
0.910138
0.910007
0.909882
0.909762
0.909647
0.909536
0.90943
0.909327
0.909229
0.909133
0.909042
0.908953
0.908867
0.908785
0.908704
0.908627
0.908551
0.908478
0.908407
0.908337
0.90827
0.908204
0.90814
0.908077
0.908016
0.907956
0.907898
0.907842
0.907787
0.907733
0.907681
0.907631
0.907583
0.907537
0.907493
0.907451
0.907412
0.907375
0.907342
0.907311
0.907285
0.907261
0.907242
0.907227
0.907216
0.90721
0.907209
0.907213
0.907222
0.907236
0.907256
0.907281
0.907312
0.907348
0.907389
0.907435
0.907487
0.907543
0.907604
0.907669
0.907738
0.907811
0.907887
0.907966
0.908048
0.908132
0.908217
0.908305
0.908393
0.908482
0.908572
0.908661
0.908751
0.908841
0.908929
0.909017
0.909105
0.909191
0.909275
0.909359
0.909441
0.909522
0.909601
0.909678
0.909754
0.909828
0.9099
0.909971
0.91004
0.910107
0.910173
0.910237
0.9103
0.910361
0.91042
0.910478
0.910534
0.910589
0.910643
0.910695
0.910746
0.910795
0.910843
0.91089
0.910936
0.91098
0.911024
0.911066
0.911107
0.911147
0.911187
0.911225
0.911262
0.911298
0.911334
0.911369
0.911402
0.911436
0.911468
0.9115
0.911531
0.911561
0.911591
0.91162
0.911649
0.911678
0.911705
0.911733
0.91176
0.911786
0.911813
0.911838
0.911864
0.911889
0.911914
0.911939
0.911964
0.911988
0.912012
0.912036
0.912059
0.912083
0.912106
0.912129
0.912152
0.912174
0.912197
0.912219
0.912241
0.912263
0.912285
0.912306
0.912327
0.912348
0.912369
0.912389
0.912409
0.912429
0.912449
0.912468
0.912487
0.912505
0.912523
0.912541
0.912558
0.912575
0.912592
0.912608
0.912624
0.912639
0.912654
0.912668
0.912682
0.912696
0.912709
0.912721
0.912734
0.912745
0.912756
0.912767
0.912777
0.912787
0.912797
0.912806
0.912814
0.912823
0.912831
0.912838
0.912846
0.912853
0.91286
0.912866
0.912873
0.912879
0.912885
0.912891
0.912897
0.912903
0.912909
0.912915
0.912921
0.912928
0.912934
0.91294
0.912947
0.912954
0.912962
0.912969
0.912977
0.912985
0.912994
0.913003
0.913013
0.913023
0.913034
0.913045
0.913057
0.913069
0.913082
0.913096
0.91311
0.913124
0.91314
0.913156
0.913173
0.91319
0.913208
0.913226
0.913246
0.913265
0.913286
0.913307
0.913328
0.913351
0.913373
0.913396
0.91342
0.913444
0.913469
0.913494
0.91352
0.913546
0.913572
0.913598
0.913625
0.913652
0.91368
0.913707
0.913735
0.913763
0.913791
0.91382
0.913848
0.913876
0.913905
0.913933
0.913962
0.913991
0.91402
0.914048
0.914077
0.914106
0.914135
0.914164
0.914193
0.914223
0.914252
0.914282
0.914312
0.914342
0.914372
0.914403
0.914435
0.914466
0.914499
0.914532
0.914566
0.9146
0.914636
0.914672
0.91471
0.914748
0.914788
0.914829
0.914872
0.914916
0.914962
0.915009
0.915059
0.91511
0.915163
0.915218
0.915275
0.915335
0.915396
0.91546
0.915526
0.915595
0.915665
0.915738
0.915814
0.915891
0.91597
0.916052
0.916135
0.91622
0.916306
0.916394
0.916482
0.916572
0.916662
0.916751
0.916841
0.91693
0.917018
0.917105
0.917189
0.917271
0.917349
0.917424
0.917495
0.917561
0.917621
0.917675
0.917722
0.917762
0.917793
0.917816
0.917829
0.917832
0.917823
0.917803
0.91777
0.917724
0.917664
0.917588
0.917496
0.917387
0.917257
0.917106
0.916931
0.916727
0.91649
0.916212
0.915882
0.915484
0.914997
0.914386
0.913584
0.912474
0.910936
0.908879
0.905639
0.89956
0.896015
0.901441
0
0
0.94133
0.938956
0.93691
0.933782
0.931268
0.929086
0.927209
0.925626
0.924279
0.923113
0.922092
0.921187
0.920377
0.919646
0.91898
0.918369
0.917806
0.917283
0.916797
0.916341
0.915914
0.915512
0.915133
0.914774
0.914434
0.914112
0.913805
0.913513
0.913235
0.912971
0.912718
0.912477
0.912246
0.912026
0.911816
0.911615
0.911422
0.911238
0.911061
0.910893
0.910731
0.910576
0.910428
0.910285
0.910149
0.910018
0.909893
0.909772
0.909657
0.909546
0.909439
0.909336
0.909237
0.909142
0.90905
0.908961
0.908875
0.908792
0.908712
0.908635
0.908559
0.908486
0.908415
0.908346
0.908278
0.908213
0.908149
0.908086
0.908026
0.907966
0.907908
0.907852
0.907797
0.907744
0.907692
0.907642
0.907594
0.907548
0.907504
0.907462
0.907422
0.907386
0.907352
0.907321
0.907294
0.90727
0.90725
0.907234
0.907223
0.907216
0.907214
0.907217
0.907225
0.907238
0.907257
0.907281
0.907311
0.907346
0.907387
0.907432
0.907483
0.907539
0.907599
0.907664
0.907733
0.907805
0.907881
0.90796
0.908041
0.908125
0.908211
0.908298
0.908386
0.908476
0.908565
0.908655
0.908745
0.908835
0.908924
0.909012
0.909099
0.909186
0.909271
0.909354
0.909436
0.909517
0.909596
0.909674
0.90975
0.909824
0.909896
0.909967
0.910036
0.910104
0.91017
0.910234
0.910296
0.910357
0.910417
0.910475
0.910531
0.910586
0.91064
0.910692
0.910743
0.910792
0.91084
0.910887
0.910933
0.910978
0.911021
0.911063
0.911105
0.911145
0.911184
0.911222
0.91126
0.911296
0.911332
0.911366
0.9114
0.911433
0.911466
0.911498
0.911529
0.911559
0.911589
0.911619
0.911647
0.911676
0.911704
0.911731
0.911758
0.911785
0.911811
0.911837
0.911862
0.911888
0.911913
0.911937
0.911962
0.911986
0.91201
0.912034
0.912058
0.912081
0.912104
0.912127
0.91215
0.912173
0.912195
0.912217
0.912239
0.912261
0.912283
0.912304
0.912325
0.912346
0.912367
0.912387
0.912407
0.912427
0.912447
0.912466
0.912485
0.912503
0.912521
0.912539
0.912557
0.912573
0.91259
0.912606
0.912622
0.912637
0.912652
0.912667
0.912681
0.912694
0.912707
0.91272
0.912732
0.912743
0.912755
0.912765
0.912776
0.912786
0.912795
0.912804
0.912813
0.912821
0.912829
0.912837
0.912845
0.912852
0.912859
0.912865
0.912872
0.912878
0.912884
0.91289
0.912897
0.912903
0.912909
0.912915
0.912921
0.912927
0.912934
0.91294
0.912947
0.912954
0.912961
0.912969
0.912977
0.912985
0.912994
0.913003
0.913013
0.913023
0.913034
0.913045
0.913056
0.913069
0.913082
0.913095
0.913109
0.913124
0.913139
0.913155
0.913172
0.913189
0.913207
0.913225
0.913244
0.913264
0.913285
0.913305
0.913327
0.913349
0.913372
0.913395
0.913418
0.913442
0.913467
0.913492
0.913517
0.913543
0.913569
0.913596
0.913623
0.91365
0.913677
0.913704
0.913732
0.91376
0.913788
0.913816
0.913844
0.913873
0.913901
0.91393
0.913958
0.913987
0.914015
0.914044
0.914073
0.914102
0.914131
0.914159
0.914188
0.914218
0.914247
0.914276
0.914306
0.914336
0.914367
0.914397
0.914428
0.91446
0.914492
0.914525
0.914558
0.914592
0.914627
0.914663
0.9147
0.914739
0.914778
0.914818
0.91486
0.914904
0.914949
0.914996
0.915044
0.915094
0.915146
0.915201
0.915257
0.915315
0.915375
0.915438
0.915503
0.91557
0.915639
0.915711
0.915784
0.91586
0.915938
0.916017
0.916099
0.916182
0.916267
0.916352
0.916439
0.916526
0.916614
0.916702
0.91679
0.916877
0.916963
0.917047
0.917129
0.917208
0.917285
0.917357
0.917426
0.917489
0.917547
0.917598
0.917642
0.917679
0.917707
0.917726
0.917735
0.917734
0.917721
0.917696
0.917657
0.917604
0.917537
0.917453
0.917351
0.91723
0.917087
0.916921
0.916728
0.916504
0.916243
0.915937
0.915576
0.915145
0.914619
0.91397
0.913159
0.912124
0.91071
0.908754
0.90665
0.904759
0.903153
0.905702
0
0
0.935492
0.935493
0.933951
0.93208
0.930243
0.928426
0.926806
0.925382
0.924128
0.92302
0.922036
0.921155
0.920361
0.91964
0.918982
0.918376
0.917816
0.917296
0.91681
0.916356
0.915929
0.915528
0.915148
0.914789
0.914449
0.914126
0.913819
0.913527
0.913248
0.912983
0.91273
0.912488
0.912257
0.912036
0.911825
0.911623
0.91143
0.911246
0.911069
0.9109
0.910737
0.910582
0.910433
0.910291
0.910154
0.910023
0.909898
0.909777
0.909661
0.90955
0.909443
0.90934
0.909241
0.909146
0.909054
0.908966
0.90888
0.908797
0.908717
0.90864
0.908565
0.908492
0.908421
0.908352
0.908285
0.90822
0.908156
0.908094
0.908033
0.907974
0.907917
0.907861
0.907806
0.907753
0.907701
0.907651
0.907603
0.907557
0.907512
0.90747
0.907431
0.907393
0.907359
0.907328
0.9073
0.907275
0.907255
0.907238
0.907226
0.907218
0.907215
0.907217
0.907224
0.907236
0.907254
0.907278
0.907306
0.907341
0.907381
0.907426
0.907476
0.907531
0.907591
0.907656
0.907725
0.907797
0.907873
0.907952
0.908034
0.908118
0.908204
0.908291
0.90838
0.90847
0.90856
0.90865
0.90874
0.90883
0.908919
0.909008
0.909096
0.909182
0.909267
0.909351
0.909433
0.909514
0.909594
0.909671
0.909747
0.909821
0.909894
0.909965
0.910034
0.910101
0.910167
0.910232
0.910294
0.910355
0.910415
0.910472
0.910529
0.910584
0.910637
0.91069
0.91074
0.91079
0.910838
0.910885
0.910931
0.910975
0.911019
0.911061
0.911102
0.911143
0.911182
0.91122
0.911258
0.911294
0.91133
0.911364
0.911398
0.911432
0.911464
0.911496
0.911527
0.911558
0.911588
0.911617
0.911646
0.911674
0.911702
0.911729
0.911757
0.911783
0.911809
0.911835
0.911861
0.911886
0.911911
0.911936
0.911961
0.911985
0.912009
0.912033
0.912056
0.91208
0.912103
0.912126
0.912149
0.912171
0.912194
0.912216
0.912238
0.912259
0.912281
0.912302
0.912324
0.912344
0.912365
0.912385
0.912405
0.912425
0.912445
0.912464
0.912483
0.912501
0.912519
0.912537
0.912554
0.912571
0.912588
0.912604
0.91262
0.912635
0.91265
0.912665
0.912679
0.912692
0.912705
0.912718
0.91273
0.912742
0.912753
0.912764
0.912774
0.912784
0.912794
0.912803
0.912812
0.91282
0.912828
0.912836
0.912843
0.91285
0.912857
0.912864
0.912871
0.912877
0.912883
0.91289
0.912896
0.912902
0.912908
0.912914
0.91292
0.912927
0.912933
0.91294
0.912946
0.912953
0.912961
0.912969
0.912977
0.912985
0.912994
0.913003
0.913013
0.913023
0.913033
0.913044
0.913056
0.913068
0.913081
0.913095
0.913109
0.913123
0.913139
0.913154
0.913171
0.913188
0.913206
0.913224
0.913243
0.913263
0.913283
0.913304
0.913326
0.913348
0.91337
0.913393
0.913417
0.913441
0.913465
0.91349
0.913515
0.913541
0.913567
0.913593
0.91362
0.913647
0.913674
0.913702
0.913729
0.913757
0.913785
0.913813
0.913841
0.913869
0.913898
0.913926
0.913955
0.913983
0.914012
0.91404
0.914069
0.914097
0.914126
0.914155
0.914184
0.914213
0.914242
0.914271
0.914301
0.914331
0.914361
0.914391
0.914422
0.914453
0.914485
0.914517
0.914551
0.914584
0.914619
0.914654
0.914691
0.914729
0.914767
0.914807
0.914849
0.914891
0.914936
0.914981
0.915029
0.915078
0.91513
0.915183
0.915238
0.915295
0.915354
0.915416
0.915479
0.915545
0.915613
0.915683
0.915755
0.91583
0.915906
0.915984
0.916064
0.916145
0.916228
0.916312
0.916397
0.916483
0.916569
0.916655
0.916741
0.916826
0.91691
0.916993
0.917073
0.917151
0.917225
0.917296
0.917362
0.917423
0.917479
0.917528
0.91757
0.917604
0.917629
0.917645
0.917651
0.917646
0.917629
0.9176
0.917556
0.917498
0.917424
0.917333
0.917224
0.917094
0.916942
0.916765
0.91656
0.916323
0.916049
0.91573
0.915358
0.91492
0.914401
0.913776
0.913014
0.912091
0.911003
0.909708
0.908315
0.907579
0.90734
0.908004
0
0
0.932146
0.932268
0.931419
0.930322
0.928944
0.927538
0.926201
0.924958
0.923826
0.922803
0.921877
0.921038
0.920273
0.919574
0.918931
0.918337
0.917786
0.917273
0.916793
0.916343
0.915919
0.91552
0.915142
0.914785
0.914446
0.914124
0.913817
0.913526
0.913248
0.912983
0.912729
0.912488
0.912257
0.912036
0.911825
0.911623
0.91143
0.911245
0.911068
0.910899
0.910737
0.910581
0.910433
0.91029
0.910153
0.910023
0.909897
0.909776
0.909661
0.90955
0.909443
0.90934
0.909242
0.909147
0.909055
0.908967
0.908881
0.908799
0.908719
0.908642
0.908568
0.908495
0.908425
0.908356
0.90829
0.908225
0.908162
0.9081
0.90804
0.907981
0.907924
0.907868
0.907813
0.90776
0.907709
0.907659
0.90761
0.907564
0.907519
0.907477
0.907437
0.907399
0.907364
0.907332
0.907303
0.907278
0.907256
0.907238
0.907225
0.907216
0.907212
0.907213
0.907219
0.90723
0.907247
0.907269
0.907298
0.907331
0.907371
0.907415
0.907465
0.90752
0.90758
0.907645
0.907714
0.907787
0.907863
0.907942
0.908025
0.908109
0.908196
0.908284
0.908373
0.908464
0.908554
0.908645
0.908736
0.908826
0.908916
0.909005
0.909093
0.90918
0.909265
0.909349
0.909432
0.909513
0.909592
0.90967
0.909746
0.90982
0.909893
0.909964
0.910033
0.9101
0.910166
0.91023
0.910293
0.910354
0.910413
0.910471
0.910528
0.910583
0.910636
0.910688
0.910739
0.910788
0.910837
0.910884
0.910929
0.910974
0.911017
0.91106
0.911101
0.911141
0.91118
0.911219
0.911256
0.911292
0.911328
0.911363
0.911397
0.91143
0.911463
0.911494
0.911526
0.911556
0.911586
0.911615
0.911644
0.911673
0.911701
0.911728
0.911755
0.911782
0.911808
0.911834
0.91186
0.911885
0.91191
0.911935
0.911959
0.911983
0.912007
0.912031
0.912055
0.912078
0.912101
0.912124
0.912147
0.91217
0.912192
0.912214
0.912236
0.912258
0.912279
0.912301
0.912322
0.912343
0.912363
0.912384
0.912404
0.912423
0.912443
0.912462
0.912481
0.912499
0.912517
0.912535
0.912552
0.912569
0.912586
0.912602
0.912618
0.912633
0.912648
0.912662
0.912676
0.91269
0.912703
0.912716
0.912728
0.91274
0.912751
0.912762
0.912772
0.912782
0.912792
0.912801
0.91281
0.912818
0.912827
0.912834
0.912842
0.912849
0.912856
0.912863
0.91287
0.912876
0.912883
0.912889
0.912895
0.912901
0.912907
0.912913
0.91292
0.912926
0.912933
0.912939
0.912946
0.912953
0.912961
0.912968
0.912976
0.912985
0.912993
0.913003
0.913012
0.913022
0.913033
0.913044
0.913056
0.913068
0.913081
0.913094
0.913108
0.913123
0.913138
0.913154
0.913171
0.913188
0.913205
0.913224
0.913243
0.913262
0.913282
0.913303
0.913325
0.913346
0.913369
0.913392
0.913415
0.913439
0.913464
0.913488
0.913514
0.913539
0.913565
0.913591
0.913618
0.913645
0.913672
0.913699
0.913727
0.913754
0.913782
0.91381
0.913838
0.913866
0.913895
0.913923
0.913951
0.91398
0.914008
0.914036
0.914065
0.914094
0.914122
0.914151
0.91418
0.914208
0.914237
0.914266
0.914296
0.914325
0.914355
0.914385
0.914416
0.914447
0.914478
0.91451
0.914543
0.914576
0.914611
0.914646
0.914682
0.914719
0.914757
0.914796
0.914837
0.914879
0.914922
0.914967
0.915014
0.915063
0.915113
0.915165
0.915219
0.915275
0.915333
0.915394
0.915456
0.915521
0.915587
0.915656
0.915727
0.9158
0.915875
0.915951
0.91603
0.91611
0.916191
0.916274
0.916357
0.916442
0.916526
0.916611
0.916695
0.916779
0.916861
0.916942
0.917021
0.917097
0.91717
0.917239
0.917304
0.917363
0.917417
0.917464
0.917504
0.917536
0.917559
0.917573
0.917576
0.917568
0.917548
0.917515
0.917467
0.917405
0.917327
0.91723
0.917116
0.91698
0.916822
0.916639
0.916429
0.916187
0.91591
0.915592
0.915227
0.914805
0.914317
0.913752
0.913099
0.912346
0.911514
0.910696
0.909939
0.90948
0.909616
0.910112
0
0
0.929692
0.929722
0.929321
0.928591
0.927609
0.926547
0.925459
0.924404
0.92341
0.922486
0.921632
0.920846
0.920121
0.919451
0.918831
0.918255
0.917718
0.917216
0.916745
0.916302
0.915884
0.915489
0.915116
0.914761
0.914425
0.914105
0.9138
0.91351
0.913233
0.912969
0.912717
0.912476
0.912246
0.912026
0.911815
0.911614
0.911421
0.911236
0.91106
0.910891
0.910729
0.910574
0.910425
0.910283
0.910147
0.910016
0.909891
0.909771
0.909655
0.909545
0.909438
0.909336
0.909238
0.909143
0.909052
0.908964
0.90888
0.908798
0.908719
0.908642
0.908568
0.908496
0.908426
0.908358
0.908292
0.908228
0.908165
0.908104
0.908044
0.907986
0.907929
0.907873
0.907819
0.907766
0.907715
0.907665
0.907616
0.907569
0.907524
0.907481
0.907441
0.907402
0.907366
0.907333
0.907303
0.907277
0.907254
0.907235
0.90722
0.90721
0.907205
0.907205
0.907209
0.90722
0.907236
0.907257
0.907285
0.907318
0.907357
0.907401
0.907451
0.907506
0.907567
0.907632
0.907701
0.907774
0.907851
0.907932
0.908015
0.9081
0.908188
0.908277
0.908367
0.908458
0.90855
0.908641
0.908733
0.908824
0.908914
0.909004
0.909092
0.909179
0.909265
0.909349
0.909432
0.909513
0.909593
0.909671
0.909747
0.909821
0.909893
0.909964
0.910033
0.910101
0.910167
0.910231
0.910293
0.910354
0.910413
0.910471
0.910527
0.910582
0.910636
0.910688
0.910738
0.910788
0.910836
0.910883
0.910928
0.910973
0.911016
0.911058
0.9111
0.91114
0.911179
0.911217
0.911255
0.911291
0.911327
0.911362
0.911396
0.911429
0.911461
0.911493
0.911524
0.911555
0.911585
0.911614
0.911643
0.911672
0.911699
0.911727
0.911754
0.911781
0.911807
0.911833
0.911859
0.911884
0.911909
0.911934
0.911958
0.911982
0.912006
0.91203
0.912054
0.912077
0.9121
0.912123
0.912146
0.912168
0.912191
0.912213
0.912235
0.912256
0.912278
0.912299
0.91232
0.912341
0.912361
0.912382
0.912402
0.912421
0.912441
0.91246
0.912479
0.912497
0.912515
0.912533
0.91255
0.912567
0.912584
0.9126
0.912616
0.912631
0.912646
0.91266
0.912674
0.912688
0.912701
0.912714
0.912726
0.912738
0.912749
0.91276
0.91277
0.91278
0.91279
0.912799
0.912808
0.912817
0.912825
0.912833
0.91284
0.912848
0.912855
0.912862
0.912869
0.912875
0.912881
0.912888
0.912894
0.9129
0.912906
0.912913
0.912919
0.912925
0.912932
0.912939
0.912946
0.912953
0.91296
0.912968
0.912976
0.912984
0.912993
0.913002
0.913012
0.913022
0.913033
0.913044
0.913056
0.913068
0.913081
0.913094
0.913108
0.913123
0.913138
0.913154
0.91317
0.913187
0.913205
0.913223
0.913242
0.913262
0.913282
0.913302
0.913324
0.913345
0.913368
0.913391
0.913414
0.913438
0.913462
0.913487
0.913512
0.913538
0.913563
0.91359
0.913616
0.913643
0.91367
0.913697
0.913725
0.913752
0.91378
0.913808
0.913836
0.913864
0.913892
0.91392
0.913948
0.913977
0.914005
0.914033
0.914062
0.91409
0.914118
0.914147
0.914175
0.914204
0.914233
0.914262
0.914291
0.91432
0.91435
0.91438
0.91441
0.914441
0.914472
0.914504
0.914536
0.914569
0.914603
0.914637
0.914673
0.914709
0.914747
0.914785
0.914825
0.914866
0.914909
0.914954
0.914999
0.915047
0.915096
0.915148
0.915201
0.915256
0.915313
0.915372
0.915433
0.915497
0.915562
0.91563
0.915699
0.915771
0.915845
0.91592
0.915997
0.916076
0.916156
0.916237
0.916319
0.916402
0.916486
0.916569
0.916652
0.916734
0.916816
0.916895
0.916973
0.917047
0.917119
0.917187
0.91725
0.917308
0.91736
0.917406
0.917444
0.917474
0.917496
0.917507
0.917508
0.917498
0.917475
0.91744
0.91739
0.917324
0.917243
0.917143
0.917025
0.916887
0.916727
0.916542
0.916332
0.916093
0.915822
0.915515
0.915169
0.914778
0.914339
0.913848
0.913308
0.912728
0.912129
0.911578
0.911169
0.910944
0.911103
0.911637
0
0
0.927661
0.927725
0.927518
0.927018
0.92633
0.925521
0.92465
0.923771
0.922912
0.922091
0.921316
0.92059
0.919912
0.919278
0.918687
0.918133
0.917614
0.917127
0.916667
0.916234
0.915825
0.915437
0.915069
0.914719
0.914387
0.91407
0.913768
0.913481
0.913206
0.912944
0.912693
0.912454
0.912225
0.912005
0.911796
0.911595
0.911403
0.91122
0.911044
0.910875
0.910714
0.91056
0.910412
0.91027
0.910134
0.910004
0.909879
0.90976
0.909645
0.909535
0.909429
0.909328
0.90923
0.909136
0.909046
0.908959
0.908875
0.908793
0.908715
0.908639
0.908566
0.908495
0.908425
0.908358
0.908293
0.908229
0.908167
0.908106
0.908047
0.907989
0.907932
0.907877
0.907823
0.90777
0.907719
0.907669
0.90762
0.907573
0.907528
0.907484
0.907442
0.907403
0.907366
0.907332
0.907301
0.907273
0.907249
0.907229
0.907213
0.907201
0.907194
0.907193
0.907196
0.907206
0.90722
0.907241
0.907268
0.907301
0.907339
0.907383
0.907434
0.907489
0.90755
0.907615
0.907685
0.90776
0.907838
0.907919
0.908004
0.90809
0.908179
0.908269
0.908361
0.908453
0.908545
0.908638
0.90873
0.908822
0.908913
0.909003
0.909092
0.90918
0.909266
0.909351
0.909434
0.909515
0.909595
0.909673
0.909749
0.909823
0.909895
0.909966
0.910035
0.910102
0.910168
0.910232
0.910294
0.910355
0.910414
0.910472
0.910528
0.910582
0.910636
0.910688
0.910738
0.910788
0.910836
0.910882
0.910928
0.910972
0.911016
0.911058
0.911099
0.911139
0.911178
0.911217
0.911254
0.91129
0.911326
0.911361
0.911395
0.911428
0.91146
0.911492
0.911523
0.911554
0.911584
0.911613
0.911642
0.911671
0.911699
0.911726
0.911753
0.91178
0.911806
0.911832
0.911858
0.911883
0.911908
0.911933
0.911957
0.911981
0.912005
0.912029
0.912052
0.912076
0.912099
0.912122
0.912144
0.912167
0.912189
0.912211
0.912233
0.912255
0.912276
0.912297
0.912318
0.912339
0.91236
0.91238
0.9124
0.91242
0.912439
0.912458
0.912477
0.912495
0.912513
0.912531
0.912548
0.912565
0.912582
0.912598
0.912614
0.912629
0.912644
0.912658
0.912672
0.912686
0.912699
0.912711
0.912724
0.912735
0.912747
0.912758
0.912768
0.912778
0.912788
0.912797
0.912806
0.912815
0.912823
0.912831
0.912839
0.912846
0.912854
0.912861
0.912867
0.912874
0.91288
0.912887
0.912893
0.912899
0.912906
0.912912
0.912918
0.912925
0.912932
0.912938
0.912945
0.912953
0.91296
0.912968
0.912976
0.912984
0.912993
0.913002
0.913012
0.913022
0.913033
0.913044
0.913056
0.913068
0.913081
0.913094
0.913108
0.913123
0.913138
0.913154
0.91317
0.913187
0.913205
0.913223
0.913242
0.913261
0.913281
0.913302
0.913323
0.913345
0.913367
0.91339
0.913413
0.913437
0.913461
0.913486
0.913511
0.913536
0.913562
0.913588
0.913615
0.913641
0.913668
0.913695
0.913723
0.91375
0.913778
0.913806
0.913833
0.913861
0.913889
0.913917
0.913946
0.913974
0.914002
0.91403
0.914058
0.914087
0.914115
0.914143
0.914172
0.9142
0.914229
0.914258
0.914287
0.914316
0.914345
0.914375
0.914405
0.914435
0.914466
0.914497
0.914529
0.914561
0.914595
0.914629
0.914664
0.9147
0.914737
0.914775
0.914814
0.914855
0.914897
0.91494
0.914985
0.915032
0.91508
0.915131
0.915183
0.915237
0.915293
0.915351
0.915411
0.915473
0.915538
0.915604
0.915673
0.915743
0.915816
0.91589
0.915966
0.916043
0.916122
0.916202
0.916283
0.916365
0.916447
0.916529
0.916611
0.916693
0.916773
0.916851
0.916928
0.917001
0.917072
0.917138
0.9172
0.917257
0.917308
0.917353
0.91739
0.917418
0.917438
0.917448
0.917448
0.917436
0.917411
0.917373
0.917322
0.917254
0.917171
0.917071
0.916952
0.916813
0.916653
0.916472
0.916266
0.916034
0.915775
0.915487
0.915168
0.914816
0.914432
0.914018
0.913581
0.913137
0.912715
0.912348
0.912107
0.91204
0.912202
0.91266
0
0
0.925971
0.926081
0.925963
0.925628
0.925133
0.924514
0.923822
0.923095
0.922361
0.921641
0.920946
0.920284
0.919656
0.919063
0.918503
0.917976
0.917478
0.917008
0.916563
0.916142
0.915742
0.915363
0.915002
0.914659
0.914332
0.91402
0.913722
0.913437
0.913166
0.912906
0.912658
0.91242
0.912193
0.911975
0.911767
0.911568
0.911377
0.911195
0.91102
0.910853
0.910692
0.910539
0.910392
0.910251
0.910116
0.909987
0.909863
0.909744
0.90963
0.909521
0.909416
0.909315
0.909219
0.909125
0.909036
0.90895
0.908866
0.908786
0.908709