# vtk DataFile Version 2.0
LBE mesh
ASCII
DATASET STRUCTURED_POINTS
DIMENSIONS 402 102 1
ASPECT_RATIO 1 1 1
ORIGIN 0 0 0
POINT_DATA 41004
SCALARS rho double 1
LOOKUP_TABLE default
0
0
0
0
0
0
0
0
0
0
0
0
0
0
0
0
0
0
0
0
0
0
0
0
0
0
0
0
0
0
0
0
0
0
0
0
0
0
0
0
0
0
0
0
0
0
0
0
0
0
0
0
0
0
0
0
0
0
0
0
0
0
0
0
0
0
0
0
0
0
0
0
0
0
0
0
0
0
0
0
0
0
0
0
0
0
0
0
0
0
0
0
0
0
0
0
0
0
0
0
0
0
0
0
0
0
0
0
0
0
0
0
0
0
0
0
0
0
0
0
0
0
0
0
0
0
0
0
0
0
0
0
0
0
0
0
0
0
0
0
0
0
0
0
0
0
0
0
0
0
0
0
0
0
0
0
0
0
0
0
0
0
0
0
0
0
0
0
0
0
0
0
0
0
0
0
0
0
0
0
0
0
0
0
0
0
0
0
0
0
0
0
0
0
0
0
0
0
0
0
0
0
0
0
0
0
0
0
0
0
0
0
0
0
0
0
0
0
0
0
0
0
0
0
0
0
0
0
0
0
0
0
0
0
0
0
0
0
0
0
0
0
0
0
0
0
0
0
0
0
0
0
0
0
0
0
0
0
0
0
0
0
0
0
0
0
0
0
0
0
0
0
0
0
0
0
0
0
0
0
0
0
0
0
0
0
0
0
0
0
0
0
0
0
0
0
0
0
0
0
0
0
0
0
0
0
0
0
0
0
0
0
0
0
0
0
0
0
0
0
0
0
0
0
0
0
0
0
0
0
0
0
0
0
0
0
0
0
0
0
0
0
0
0
0
0
0
0
0
0
0
0
0
0
0
0
0
0
0
0
0
0
0
0
0
0
0
0
0
0
0
0
0
0
0
0
0
0
0
0
0
0
0
0
0
0
0
0
0
0
0
0
0
0
0
0
0
0
0
0
0
0
0
0.915487
0.981624
0.969095
0.961309
0.95771
0.955373
0.95346
0.951888
0.950586
0.949479
0.948514
0.947661
0.946898
0.946209
0.945584
0.945012
0.944487
0.944002
0.943555
0.94314
0.942756
0.942398
0.942066
0.941757
0.94147
0.941203
0.940955
0.940724
0.94051
0.940312
0.940129
0.93996
0.939804
0.93966
0.939529
0.939408
0.939298
0.939198
0.939107
0.939026
0.938952
0.938886
0.938828
0.938776
0.938731
0.938692
0.938658
0.938629
0.938605
0.938585
0.938569
0.938557
0.938548
0.938541
0.938537
0.938535
0.938535
0.938537
0.93854
0.938544
0.938548
0.938553
0.938558
0.938564
0.938569
0.938574
0.938578
0.938582
0.938585
0.938587
0.938588
0.938588
0.938587
0.938585
0.938581
0.938577
0.938571
0.938565
0.938558
0.93855
0.938541
0.938532
0.938523
0.938514
0.938505
0.938496
0.938488
0.938481
0.938474
0.938469
0.938465
0.938463
0.938463
0.938465
0.938468
0.938474
0.938481
0.938491
0.938503
0.938517
0.938533
0.938551
0.93857
0.938591
0.938613
0.938637
0.938661
0.938686
0.938711
0.938737
0.938763
0.938789
0.938814
0.938839
0.938863
0.938887
0.938909
0.938931
0.938952
0.938971
0.93899
0.939007
0.939023
0.939038
0.939052
0.939065
0.939077
0.939089
0.939099
0.939108
0.939117
0.939125
0.939132
0.939139
0.939146
0.939152
0.939157
0.939162
0.939167
0.939171
0.939175
0.939179
0.939183
0.939186
0.939189
0.939191
0.939194
0.939196
0.939197
0.939198
0.939199
0.939199
0.939199
0.939198
0.939196
0.939194
0.939191
0.939187
0.939183
0.939177
0.939171
0.939164
0.939156
0.939147
0.939137
0.939125
0.939113
0.9391
0.939086
0.939071
0.939055
0.939038
0.93902
0.939001
0.938981
0.93896
0.938938
0.938916
0.938892
0.938868
0.938844
0.938818
0.938792
0.938766
0.938739
0.938711
0.938683
0.938655
0.938626
0.938597
0.938568
0.938539
0.938509
0.93848
0.93845
0.93842
0.938391
0.938361
0.938331
0.938302
0.938272
0.938243
0.938214
0.938185
0.938156
0.938128
0.938099
0.938071
0.938043
0.938015
0.937988
0.937961
0.937934
0.937907
0.937881
0.937854
0.937828
0.937803
0.937777
0.937752
0.937727
0.937702
0.937677
0.937652
0.937628
0.937603
0.937579
0.937555
0.93753
0.937506
0.937482
0.937458
0.937433
0.937409
0.937384
0.93736
0.937335
0.93731
0.937285
0.937259
0.937233
0.937207
0.937181
0.937154
0.937126
0.937099
0.937071
0.937042
0.937013
0.936983
0.936953
0.936923
0.936891
0.93686
0.936827
0.936795
0.936761
0.936727
0.936693
0.936658
0.936623
0.936587
0.936551
0.936514
0.936477
0.93644
0.936403
0.936365
0.936328
0.93629
0.936252
0.936215
0.936178
0.936141
0.936105
0.936069
0.936034
0.935999
0.935966
0.935933
0.935902
0.935872
0.935843
0.935815
0.935789
0.935765
0.935743
0.935722
0.935704
0.935688
0.935673
0.935661
0.935652
0.935645
0.93564
0.935638
0.935639
0.935642
0.935648
0.935657
0.935669
0.935683
0.9357
0.93572
0.935743
0.935768
0.935796
0.935827
0.935861
0.935897
0.935936
0.935977
0.936021
0.936067
0.936116
0.936166
0.936219
0.936274
0.936331
0.93639
0.936451
0.936514
0.936578
0.936644
0.936712
0.936781
0.936851
0.936923
0.936996
0.93707
0.937145
0.937221
0.937298
0.937376
0.937455
0.937534
0.937614
0.937695
0.937777
0.937858
0.937941
0.938023
0.938106
0.93819
0.938273
0.938357
0.93844
0.938523
0.938606
0.938689
0.938771
0.938853
0.938933
0.939013
0.939092
0.939169
0.939245
0.939319
0.939392
0.939462
0.939529
0.939594
0.939656
0.939714
0.939769
0.93982
0.939866
0.939908
0.939945
0.939977
0.940002
0.940022
0.940036
0.940042
0.940041
0.940033
0.940017
0.939992
0.939958
0.939915
0.939862
0.939798
0.939722
0.939634
0.939531
0.939411
0.939273
0.93911
0.938917
0.938685
0.938402
0.93805
0.937575
0.936854
0.93577
0.934585
0.933862
0.929935
0.896802
0.799224
0
0
0.982516
0.975192
0.967361
0.962909
0.959087
0.956238
0.954114
0.952432
0.951036
0.94985
0.948825
0.947926
0.947127
0.94641
0.945761
0.94517
0.944629
0.944131
0.943672
0.943248
0.942855
0.94249
0.942151
0.941836
0.941544
0.941272
0.941019
0.940784
0.940567
0.940365
0.940178
0.940006
0.939847
0.939701
0.939567
0.939444
0.939332
0.93923
0.939137
0.939053
0.938978
0.938911
0.93885
0.938797
0.938751
0.93871
0.938675
0.938645
0.93862
0.938599
0.938582
0.938569
0.938559
0.938552
0.938547
0.938545
0.938544
0.938545
0.938547
0.938551
0.938555
0.93856
0.938565
0.93857
0.938575
0.93858
0.938584
0.938588
0.938591
0.938593
0.938594
0.938594
0.938593
0.938591
0.938588
0.938584
0.938579
0.938573
0.938566
0.938558
0.938549
0.938541
0.938532
0.938522
0.938513
0.938505
0.938496
0.938489
0.938482
0.938477
0.938473
0.93847
0.938469
0.93847
0.938473
0.938478
0.938485
0.938494
0.938505
0.938518
0.938533
0.938551
0.938569
0.938589
0.938611
0.938634
0.938657
0.938682
0.938707
0.938732
0.938758
0.938783
0.938809
0.938833
0.938858
0.938881
0.938904
0.938926
0.938946
0.938966
0.938985
0.939002
0.939019
0.939034
0.939048
0.939062
0.939074
0.939085
0.939096
0.939106
0.939115
0.939123
0.93913
0.939138
0.939144
0.93915
0.939156
0.939161
0.939166
0.93917
0.939174
0.939178
0.939182
0.939185
0.939188
0.939191
0.939193
0.939195
0.939197
0.939198
0.939198
0.939199
0.939198
0.939197
0.939195
0.939193
0.93919
0.939186
0.939182
0.939176
0.93917
0.939163
0.939155
0.939146
0.939135
0.939124
0.939112
0.939099
0.939085
0.93907
0.939054
0.939037
0.939019
0.939
0.93898
0.938959
0.938937
0.938915
0.938891
0.938867
0.938842
0.938817
0.938791
0.938764
0.938737
0.93871
0.938682
0.938654
0.938625
0.938596
0.938567
0.938537
0.938508
0.938478
0.938449
0.938419
0.938389
0.938359
0.93833
0.9383
0.938271
0.938241
0.938212
0.938183
0.938154
0.938126
0.938097
0.938069
0.938041
0.938013
0.937986
0.937959
0.937932
0.937905
0.937879
0.937852
0.937826
0.9378
0.937775
0.93775
0.937724
0.937699
0.937674
0.93765
0.937625
0.937601
0.937576
0.937552
0.937528
0.937504
0.937479
0.937455
0.937431
0.937406
0.937382
0.937357
0.937332
0.937307
0.937282
0.937256
0.93723
0.937204
0.937178
0.937151
0.937123
0.937096
0.937068
0.937039
0.93701
0.93698
0.93695
0.93692
0.936889
0.936857
0.936825
0.936792
0.936759
0.936725
0.93669
0.936656
0.93662
0.936585
0.936549
0.936512
0.936475
0.936438
0.936401
0.936363
0.936326
0.936288
0.936251
0.936214
0.936177
0.93614
0.936104
0.936068
0.936033
0.935999
0.935965
0.935933
0.935902
0.935872
0.935843
0.935816
0.93579
0.935766
0.935743
0.935723
0.935704
0.935688
0.935674
0.935662
0.935652
0.935645
0.93564
0.935638
0.935639
0.935642
0.935648
0.935657
0.935668
0.935682
0.935699
0.935719
0.935741
0.935766
0.935794
0.935825
0.935858
0.935894
0.935932
0.935973
0.936017
0.936062
0.936111
0.936161
0.936213
0.936268
0.936324
0.936383
0.936443
0.936505
0.936569
0.936635
0.936702
0.93677
0.93684
0.936911
0.936983
0.937056
0.93713
0.937206
0.937282
0.937359
0.937437
0.937516
0.937595
0.937675
0.937755
0.937836
0.937917
0.937998
0.93808
0.938162
0.938244
0.938326
0.938408
0.93849
0.938571
0.938652
0.938733
0.938812
0.938891
0.938969
0.939045
0.939121
0.939194
0.939266
0.939336
0.939403
0.939468
0.93953
0.939589
0.939644
0.939696
0.939743
0.939786
0.939825
0.939857
0.939885
0.939906
0.939921
0.939929
0.939929
0.939922
0.939906
0.939882
0.939848
0.939804
0.939749
0.939682
0.939602
0.939507
0.939396
0.939265
0.939113
0.938933
0.938719
0.938462
0.938148
0.937752
0.937236
0.936552
0.935656
0.934408
0.932126
0.927029
0.918602
0.910653
0.898997
0
0
0.978838
0.969767
0.966525
0.962616
0.959082
0.956457
0.954391
0.952692
0.951268
0.950058
0.949011
0.948092
0.947275
0.946543
0.945881
0.945279
0.944729
0.944223
0.943757
0.943326
0.942927
0.942557
0.942214
0.941895
0.941598
0.941322
0.941066
0.940829
0.940608
0.940404
0.940215
0.940041
0.939879
0.939731
0.939595
0.939471
0.939357
0.939253
0.939159
0.939074
0.938997
0.938929
0.938867
0.938813
0.938766
0.938724
0.938688
0.938658
0.938632
0.93861
0.938592
0.938579
0.938568
0.93856
0.938555
0.938552
0.938551
0.938552
0.938554
0.938558
0.938562
0.938566
0.938571
0.938576
0.938581
0.938586
0.93859
0.938594
0.938597
0.938599
0.938601
0.938601
0.9386
0.938598
0.938595
0.938591
0.938586
0.93858
0.938573
0.938565
0.938556
0.938548
0.938538
0.938529
0.93852
0.938511
0.938502
0.938494
0.938487
0.938481
0.938476
0.938473
0.938472
0.938472
0.938474
0.938478
0.938484
0.938493
0.938503
0.938516
0.93853
0.938547
0.938565
0.938585
0.938606
0.938628
0.938652
0.938676
0.938701
0.938726
0.938752
0.938777
0.938802
0.938827
0.938852
0.938876
0.938898
0.93892
0.938941
0.938962
0.93898
0.938998
0.939015
0.939031
0.939045
0.939059
0.939072
0.939083
0.939094
0.939104
0.939113
0.939122
0.93913
0.939137
0.939144
0.93915
0.939156
0.939161
0.939166
0.93917
0.939175
0.939179
0.939182
0.939186
0.939188
0.939191
0.939193
0.939195
0.939197
0.939198
0.939199
0.939199
0.939198
0.939197
0.939195
0.939193
0.93919
0.939186
0.939182
0.939176
0.93917
0.939163
0.939154
0.939145
0.939135
0.939124
0.939112
0.939099
0.939085
0.939069
0.939053
0.939036
0.939018
0.938999
0.938979
0.938958
0.938936
0.938914
0.93889
0.938866
0.938842
0.938816
0.93879
0.938764
0.938736
0.938709
0.938681
0.938653
0.938624
0.938595
0.938566
0.938536
0.938507
0.938477
0.938447
0.938418
0.938388
0.938358
0.938328
0.938299
0.938269
0.93824
0.938211
0.938182
0.938153
0.938124
0.938096
0.938067
0.938039
0.938012
0.937984
0.937957
0.93793
0.937903
0.937876
0.93785
0.937824
0.937798
0.937772
0.937747
0.937722
0.937697
0.937672
0.937647
0.937623
0.937598
0.937574
0.937549
0.937525
0.937501
0.937476
0.937452
0.937428
0.937403
0.937379
0.937354
0.937329
0.937304
0.937278
0.937253
0.937227
0.937201
0.937174
0.937147
0.93712
0.937092
0.937064
0.937036
0.937007
0.936977
0.936947
0.936917
0.936885
0.936854
0.936822
0.936789
0.936756
0.936722
0.936688
0.936653
0.936618
0.936582
0.936546
0.93651
0.936473
0.936436
0.936399
0.936362
0.936325
0.936287
0.93625
0.936213
0.936176
0.93614
0.936104
0.936068
0.936033
0.935999
0.935966
0.935934
0.935902
0.935873
0.935844
0.935817
0.935791
0.935767
0.935745
0.935724
0.935706
0.935689
0.935675
0.935663
0.935654
0.935647
0.935642
0.93564
0.93564
0.935643
0.935649
0.935657
0.935668
0.935682
0.935699
0.935718
0.935741
0.935766
0.935793
0.935823
0.935856
0.935892
0.93593
0.935971
0.936014
0.936059
0.936107
0.936156
0.936209
0.936263
0.936319
0.936377
0.936437
0.936498
0.936561
0.936626
0.936692
0.93676
0.936829
0.936899
0.936971
0.937043
0.937117
0.937192
0.937267
0.937343
0.93742
0.937498
0.937576
0.937655
0.937734
0.937814
0.937894
0.937975
0.938055
0.938136
0.938216
0.938297
0.938378
0.938458
0.938538
0.938617
0.938696
0.938774
0.938851
0.938927
0.939001
0.939075
0.939146
0.939216
0.939283
0.939349
0.939411
0.939471
0.939527
0.939579
0.939628
0.939672
0.939712
0.939747
0.939776
0.939799
0.939817
0.939827
0.93983
0.939825
0.939811
0.939789
0.939757
0.939714
0.939661
0.939594
0.939514
0.939419
0.939307
0.939175
0.939021
0.938839
0.938624
0.938368
0.938059
0.937679
0.937207
0.936604
0.935801
0.934679
0.933112
0.931006
0.927683
0.921448
0.917811
0.923365
0
0
0.968791
0.96635
0.964248
0.961034
0.958455
0.956218
0.954295
0.952676
0.951301
0.950114
0.949076
0.94816
0.947344
0.94661
0.945945
0.94534
0.944786
0.944277
0.943808
0.943374
0.942972
0.9426
0.942253
0.941932
0.941633
0.941356
0.941098
0.940858
0.940636
0.94043
0.940239
0.940063
0.939901
0.939751
0.939614
0.939488
0.939373
0.939269
0.939173
0.939088
0.93901
0.938941
0.938879
0.938824
0.938776
0.938734
0.938697
0.938666
0.93864
0.938618
0.9386
0.938586
0.938575
0.938567
0.938562
0.938559
0.938558
0.938559
0.93856
0.938564
0.938568
0.938572
0.938577
0.938582
0.938587
0.938592
0.938597
0.938601
0.938603
0.938606
0.938607
0.938607
0.938607
0.938605
0.938602
0.938598
0.938592
0.938586
0.938579
0.938571
0.938562
0.938553
0.938543
0.938534
0.938524
0.938514
0.938505
0.938496
0.938489
0.938482
0.938476
0.938473
0.93847
0.93847
0.938471
0.938475
0.93848
0.938488
0.938498
0.93851
0.938524
0.93854
0.938557
0.938577
0.938598
0.93862
0.938644
0.938668
0.938693
0.938719
0.938744
0.93877
0.938796
0.938821
0.938846
0.93887
0.938893
0.938916
0.938937
0.938958
0.938977
0.938995
0.939012
0.939029
0.939044
0.939058
0.93907
0.939082
0.939093
0.939104
0.939113
0.939122
0.93913
0.939137
0.939144
0.939151
0.939156
0.939162
0.939167
0.939171
0.939176
0.93918
0.939183
0.939187
0.93919
0.939192
0.939195
0.939196
0.939198
0.939199
0.939199
0.9392
0.939199
0.939198
0.939196
0.939194
0.939191
0.939187
0.939182
0.939177
0.93917
0.939163
0.939155
0.939145
0.939135
0.939124
0.939112
0.939099
0.939085
0.939069
0.939053
0.939036
0.939018
0.938999
0.938979
0.938958
0.938936
0.938914
0.93889
0.938866
0.938841
0.938816
0.93879
0.938763
0.938736
0.938708
0.93868
0.938652
0.938623
0.938594
0.938565
0.938535
0.938506
0.938476
0.938446
0.938417
0.938387
0.938357
0.938327
0.938297
0.938268
0.938238
0.938209
0.93818
0.938151
0.938122
0.938094
0.938065
0.938037
0.938009
0.937982
0.937955
0.937927
0.937901
0.937874
0.937848
0.937821
0.937796
0.93777
0.937744
0.937719
0.937694
0.937669
0.937644
0.937619
0.937595
0.93757
0.937546
0.937522
0.937497
0.937473
0.937449
0.937424
0.9374
0.937375
0.93735
0.937325
0.9373
0.937275
0.937249
0.937223
0.937197
0.937171
0.937144
0.937116
0.937089
0.937061
0.937032
0.937003
0.936974
0.936944
0.936913
0.936882
0.936851
0.936819
0.936786
0.936753
0.936719
0.936685
0.936651
0.936616
0.93658
0.936544
0.936508
0.936472
0.936435
0.936398
0.936361
0.936324
0.936287
0.93625
0.936213
0.936176
0.93614
0.936104
0.936069
0.936034
0.936
0.935967
0.935935
0.935904
0.935874
0.935846
0.935819
0.935793
0.935769
0.935747
0.935727
0.935708
0.935692
0.935678
0.935666
0.935656
0.935649
0.935644
0.935642
0.935642
0.935645
0.935651
0.935659
0.93567
0.935684
0.9357
0.93572
0.935742
0.935766
0.935794
0.935824
0.935856
0.935891
0.935929
0.935969
0.936012
0.936057
0.936104
0.936153
0.936205
0.936259
0.936314
0.936372
0.936431
0.936492
0.936555
0.936619
0.936684
0.936751
0.93682
0.936889
0.93696
0.937032
0.937105
0.937179
0.937253
0.937329
0.937405
0.937481
0.937559
0.937637
0.937715
0.937794
0.937873
0.937952
0.938031
0.938111
0.93819
0.938269
0.938349
0.938427
0.938506
0.938584
0.938661
0.938737
0.938813
0.938887
0.93896
0.939031
0.939101
0.939169
0.939235
0.939298
0.939358
0.939415
0.939469
0.939519
0.939565
0.939607
0.939644
0.939675
0.939701
0.939721
0.939734
0.93974
0.939739
0.939729
0.93971
0.939682
0.939643
0.939593
0.93953
0.939454
0.939363
0.939255
0.939129
0.93898
0.938807
0.938603
0.938363
0.938078
0.937736
0.937321
0.936808
0.936165
0.935354
0.934307
0.932865
0.930862
0.928703
0.926758
0.925104
0.927711
0
0
0.962786
0.96279
0.961207
0.959287
0.957404
0.955542
0.953885
0.95243
0.95115
0.950022
0.949023
0.948132
0.947332
0.946609
0.945951
0.945351
0.9448
0.944293
0.943825
0.943392
0.94299
0.942617
0.942271
0.941949
0.941649
0.941371
0.941112
0.940872
0.940649
0.940442
0.940251
0.940074
0.939911
0.939761
0.939623
0.939497
0.939382
0.939276
0.939181
0.939095
0.939017
0.938947
0.938885
0.93883
0.938782
0.938739
0.938703
0.938672
0.938645
0.938623
0.938605
0.938591
0.93858
0.938572
0.938567
0.938564
0.938563
0.938564
0.938566
0.938569
0.938573
0.938578
0.938583
0.938588
0.938593
0.938598
0.938603
0.938607
0.93861
0.938612
0.938614
0.938614
0.938613
0.938611
0.938608
0.938604
0.938598
0.938592
0.938585
0.938576
0.938567
0.938557
0.938547
0.938537
0.938526
0.938516
0.938505
0.938496
0.938487
0.93848
0.938473
0.938469
0.938465
0.938464
0.938464
0.938467
0.938472
0.938479
0.938488
0.9385
0.938513
0.938529
0.938547
0.938566
0.938587
0.93861
0.938634
0.938658
0.938684
0.93871
0.938736
0.938762
0.938788
0.938814
0.93884
0.938864
0.938888
0.938911
0.938933
0.938954
0.938974
0.938993
0.939011
0.939027
0.939043
0.939057
0.93907
0.939083
0.939094
0.939104
0.939114
0.939123
0.939131
0.939139
0.939146
0.939152
0.939158
0.939164
0.939169
0.939173
0.939178
0.939182
0.939185
0.939189
0.939192
0.939194
0.939196
0.939198
0.9392
0.939201
0.939201
0.939201
0.939201
0.939199
0.939198
0.939195
0.939192
0.939188
0.939183
0.939178
0.939171
0.939164
0.939155
0.939146
0.939136
0.939125
0.939112
0.939099
0.939085
0.93907
0.939054
0.939036
0.939018
0.938999
0.938979
0.938958
0.938936
0.938914
0.93889
0.938866
0.938841
0.938816
0.93879
0.938763
0.938736
0.938708
0.93868
0.938652
0.938623
0.938594
0.938564
0.938535
0.938505
0.938475
0.938445
0.938416
0.938386
0.938356
0.938326
0.938296
0.938266
0.938237
0.938207
0.938178
0.938149
0.93812
0.938092
0.938063
0.938035
0.938007
0.93798
0.937952
0.937925
0.937898
0.937871
0.937845
0.937819
0.937793
0.937767
0.937741
0.937716
0.937691
0.937666
0.937641
0.937616
0.937592
0.937567
0.937543
0.937518
0.937494
0.937469
0.937445
0.93742
0.937396
0.937371
0.937346
0.937321
0.937296
0.937271
0.937245
0.937219
0.937193
0.937167
0.93714
0.937113
0.937085
0.937057
0.937028
0.936999
0.93697
0.93694
0.93691
0.936879
0.936847
0.936815
0.936783
0.93675
0.936717
0.936683
0.936648
0.936613
0.936578
0.936543
0.936507
0.93647
0.936434
0.936397
0.93636
0.936323
0.936286
0.93625
0.936213
0.936177
0.936141
0.936105
0.93607
0.936035
0.936002
0.935969
0.935937
0.935906
0.935877
0.935848
0.935821
0.935796
0.935772
0.93575
0.93573
0.935712
0.935696
0.935682
0.93567
0.93566
0.935653
0.935648
0.935646
0.935646
0.935649
0.935654
0.935663
0.935673
0.935687
0.935703
0.935722
0.935744
0.935768
0.935795
0.935825
0.935857
0.935892
0.93593
0.935969
0.936011
0.936056
0.936103
0.936152
0.936203
0.936256
0.936311
0.936368
0.936427
0.936487
0.936549
0.936613
0.936678
0.936744
0.936812
0.936881
0.936951
0.937022
0.937094
0.937167
0.937241
0.937315
0.93739
0.937466
0.937543
0.937619
0.937697
0.937774
0.937852
0.93793
0.938009
0.938087
0.938165
0.938243
0.938321
0.938399
0.938476
0.938552
0.938628
0.938703
0.938777
0.93885
0.938921
0.938991
0.939059
0.939125
0.939189
0.93925
0.939309
0.939364
0.939416
0.939464
0.939508
0.939547
0.939581
0.93961
0.939633
0.93965
0.939659
0.939662
0.939656
0.939642
0.939618
0.939584
0.93954
0.939483
0.939414
0.93933
0.93923
0.939112
0.938975
0.938815
0.938628
0.93841
0.938156
0.937856
0.937502
0.93708
0.936572
0.935954
0.935191
0.934257
0.933148
0.931822
0.93039
0.929629
0.929377
0.93005
0
0
0.959346
0.959474
0.958606
0.957483
0.956072
0.954633
0.953267
0.951998
0.950844
0.949804
0.948865
0.948016
0.947245
0.946544
0.945902
0.945314
0.944772
0.944271
0.943808
0.943379
0.94298
0.94261
0.942265
0.941944
0.941646
0.941369
0.94111
0.940871
0.940648
0.940442
0.940251
0.940074
0.939911
0.939761
0.939623
0.939497
0.939382
0.939277
0.939181
0.939095
0.939018
0.938948
0.938886
0.938831
0.938783
0.938741
0.938704
0.938673
0.938647
0.938625
0.938608
0.938594
0.938583
0.938575
0.93857
0.938568
0.938567
0.938568
0.93857
0.938574
0.938578
0.938583
0.938588
0.938594
0.938599
0.938604
0.938609
0.938613
0.938616
0.938619
0.93862
0.938621
0.93862
0.938618
0.938614
0.93861
0.938604
0.938597
0.938589
0.93858
0.938571
0.93856
0.938549
0.938538
0.938526
0.938515
0.938504
0.938493
0.938483
0.938475
0.938467
0.938461
0.938457
0.938454
0.938454
0.938456
0.93846
0.938466
0.938475
0.938486
0.9385
0.938516
0.938533
0.938553
0.938574
0.938597
0.938621
0.938647
0.938673
0.938699
0.938726
0.938754
0.93878
0.938807
0.938833
0.938859
0.938883
0.938907
0.93893
0.938952
0.938972
0.938992
0.93901
0.939027
0.939043
0.939057
0.939071
0.939084
0.939095
0.939106
0.939116
0.939125
0.939133
0.939141
0.939148
0.939155
0.939161
0.939166
0.939171
0.939176
0.939181
0.939185
0.939188
0.939192
0.939194
0.939197
0.939199
0.939201
0.939202
0.939203
0.939204
0.939204
0.939203
0.939202
0.9392
0.939197
0.939194
0.93919
0.939185
0.939179
0.939173
0.939165
0.939157
0.939148
0.939137
0.939126
0.939114
0.9391
0.939086
0.939071
0.939054
0.939037
0.939019
0.939
0.93898
0.938959
0.938937
0.938914
0.938891
0.938867
0.938842
0.938816
0.93879
0.938763
0.938736
0.938708
0.93868
0.938651
0.938623
0.938593
0.938564
0.938534
0.938505
0.938475
0.938445
0.938415
0.938385
0.938355
0.938325
0.938295
0.938265
0.938235
0.938206
0.938177
0.938147
0.938119
0.93809
0.938061
0.938033
0.938005
0.937977
0.93795
0.937922
0.937895
0.937869
0.937842
0.937816
0.93779
0.937764
0.937738
0.937713
0.937687
0.937662
0.937637
0.937612
0.937588
0.937563
0.937539
0.937514
0.93749
0.937465
0.937441
0.937416
0.937392
0.937367
0.937342
0.937317
0.937292
0.937267
0.937241
0.937215
0.937189
0.937163
0.937136
0.937108
0.937081
0.937053
0.937024
0.936996
0.936966
0.936936
0.936906
0.936875
0.936844
0.936812
0.93678
0.936747
0.936714
0.93668
0.936646
0.936611
0.936576
0.936541
0.936505
0.936469
0.936433
0.936396
0.93636
0.936323
0.936287
0.93625
0.936214
0.936178
0.936142
0.936106
0.936072
0.936038
0.936004
0.935972
0.93594
0.935909
0.93588
0.935852
0.935825
0.9358
0.935776
0.935755
0.935735
0.935716
0.9357
0.935686
0.935675
0.935665
0.935658
0.935653
0.935651
0.935651
0.935654
0.935659
0.935667
0.935678
0.935691
0.935707
0.935726
0.935748
0.935772
0.935799
0.935828
0.93586
0.935894
0.935931
0.935971
0.936013
0.936057
0.936103
0.936151
0.936202
0.936255
0.936309
0.936366
0.936424
0.936483
0.936545
0.936608
0.936672
0.936738
0.936805
0.936873
0.936942
0.937013
0.937084
0.937156
0.937229
0.937303
0.937377
0.937452
0.937528
0.937604
0.93768
0.937757
0.937834
0.937911
0.937988
0.938065
0.938142
0.938219
0.938296
0.938372
0.938448
0.938523
0.938598
0.938671
0.938744
0.938815
0.938885
0.938954
0.93902
0.939085
0.939147
0.939206
0.939263
0.939317
0.939367
0.939413
0.939455
0.939492
0.939524
0.93955
0.939571
0.939585
0.939591
0.939591
0.939582
0.939564
0.939536
0.939498
0.939449
0.939387
0.939312
0.939222
0.939116
0.938992
0.938847
0.93868
0.938487
0.938264
0.938005
0.937706
0.937358
0.936951
0.936474
0.935916
0.935263
0.934502
0.933655
0.932817
0.932037
0.931561
0.931694
0.932194
0
0
0.956825
0.95686
0.956451
0.955706
0.954702
0.953618
0.952508
0.951432
0.95042
0.949481
0.948616
0.947821
0.947091
0.94642
0.945802
0.945231
0.944703
0.944214
0.94376
0.943337
0.942944
0.942579
0.942238
0.94192
0.941624
0.941349
0.941093
0.940855
0.940633
0.940428
0.940238
0.940063
0.939901
0.939751
0.939614
0.939489
0.939374
0.93927
0.939175
0.93909
0.939013
0.938944
0.938882
0.938828
0.93878
0.938739
0.938703
0.938672
0.938646
0.938625
0.938608
0.938594
0.938584
0.938577
0.938572
0.93857
0.938569
0.938571
0.938574
0.938578
0.938582
0.938588
0.938593
0.938599
0.938605
0.93861
0.938615
0.938619
0.938623
0.938625
0.938627
0.938627
0.938626
0.938624
0.93862
0.938615
0.938609
0.938602
0.938593
0.938584
0.938573
0.938562
0.93855
0.938537
0.938524
0.938512
0.938499
0.938488
0.938476
0.938466
0.938457
0.93845
0.938445
0.938441
0.93844
0.938441
0.938444
0.93845
0.938459
0.93847
0.938483
0.938499
0.938517
0.938537
0.938558
0.938582
0.938607
0.938633
0.93866
0.938688
0.938716
0.938744
0.938772
0.9388
0.938827
0.938853
0.938879
0.938904
0.938927
0.93895
0.938971
0.938991
0.93901
0.939027
0.939044
0.939059
0.939073
0.939086
0.939098
0.939109
0.939119
0.939128
0.939137
0.939145
0.939152
0.939158
0.939164
0.93917
0.939175
0.93918
0.939184
0.939188
0.939192
0.939195
0.939198
0.9392
0.939202
0.939204
0.939205
0.939206
0.939207
0.939206
0.939206
0.939204
0.939202
0.9392
0.939196
0.939192
0.939187
0.939181
0.939175
0.939167
0.939159
0.939149
0.939139
0.939128
0.939115
0.939102
0.939088
0.939072
0.939056
0.939039
0.93902
0.939001
0.938981
0.93896
0.938938
0.938915
0.938892
0.938867
0.938842
0.938817
0.938791
0.938764
0.938736
0.938709
0.93868
0.938652
0.938623
0.938593
0.938564
0.938534
0.938504
0.938474
0.938444
0.938414
0.938384
0.938354
0.938324
0.938294
0.938264
0.938234
0.938204
0.938175
0.938146
0.938117
0.938088
0.938059
0.938031
0.938003
0.937975
0.937947
0.93792
0.937892
0.937866
0.937839
0.937812
0.937786
0.93776
0.937735
0.937709
0.937684
0.937658
0.937633
0.937609
0.937584
0.937559
0.937535
0.93751
0.937485
0.937461
0.937436
0.937412
0.937387
0.937363
0.937338
0.937313
0.937288
0.937262
0.937237
0.937211
0.937185
0.937158
0.937131
0.937104
0.937077
0.937049
0.93702
0.936992
0.936962
0.936933
0.936902
0.936872
0.936841
0.936809
0.936777
0.936744
0.936711
0.936678
0.936644
0.936609
0.936574
0.936539
0.936504
0.936468
0.936432
0.936396
0.93636
0.936323
0.936287
0.936251
0.936215
0.936179
0.936144
0.936109
0.936074
0.93604
0.936007
0.935975
0.935944
0.935913
0.935884
0.935856
0.93583
0.935805
0.935782
0.93576
0.93574
0.935722
0.935706
0.935692
0.935681
0.935671
0.935664
0.935659
0.935657
0.935657
0.93566
0.935665
0.935673
0.935684
0.935697
0.935713
0.935732
0.935753
0.935777
0.935803
0.935832
0.935864
0.935898
0.935935
0.935974
0.936015
0.936059
0.936105
0.936153
0.936203
0.936255
0.936309
0.936365
0.936422
0.936481
0.936542
0.936605
0.936668
0.936733
0.9368
0.936867
0.936936
0.937005
0.937076
0.937147
0.937219
0.937292
0.937366
0.93744
0.937514
0.937589
0.937665
0.93774
0.937816
0.937892
0.937969
0.938045
0.938121
0.938197
0.938272
0.938347
0.938422
0.938496
0.93857
0.938642
0.938713
0.938783
0.938852
0.938919
0.938984
0.939047
0.939108
0.939166
0.939222
0.939273
0.939322
0.939366
0.939406
0.939442
0.939472
0.939496
0.939514
0.939526
0.93953
0.939527
0.939515
0.939494
0.939463
0.939422
0.939369
0.939303
0.939225
0.939131
0.939021
0.938893
0.938746
0.938577
0.938383
0.938161
0.937908
0.937619
0.93729
0.936914
0.936486
0.936002
0.935463
0.93488
0.934271
0.933707
0.933286
0.93305
0.933207
0.933745
0
0
0.954741
0.95481
0.954602
0.954094
0.953392
0.952567
0.95168
0.950785
0.949911
0.949078
0.948294
0.947561
0.946879
0.946245
0.945656
0.945108
0.944598
0.944123
0.943681
0.943269
0.942884
0.942524
0.942189
0.941876
0.941585
0.941313
0.94106
0.940824
0.940605
0.940403
0.940214
0.940041
0.93988
0.939733
0.939597
0.939473
0.939359
0.939256
0.939162
0.939078
0.939002
0.938934
0.938873
0.93882
0.938773
0.938733
0.938697
0.938668
0.938643
0.938622
0.938605
0.938593
0.938583
0.938577
0.938573
0.938571
0.938571
0.938573
0.938576
0.938581
0.938586
0.938592
0.938598
0.938604
0.93861
0.938616
0.938621
0.938626
0.938629
0.938632
0.938633
0.938633
0.938632
0.93863
0.938626
0.938621
0.938614
0.938606
0.938597
0.938586
0.938574
0.938562
0.938549
0.938535
0.938521
0.938507
0.938493
0.93848
0.938467
0.938455
0.938445
0.938436
0.93843
0.938425
0.938422
0.938423
0.938425
0.93843
0.938438
0.938449
0.938463
0.938479
0.938497
0.938518
0.93854
0.938565
0.938591
0.938618
0.938646
0.938675
0.938704
0.938734
0.938763
0.938792
0.93882
0.938848
0.938875
0.9389
0.938925
0.938948
0.93897
0.938991
0.93901
0.939029
0.939045
0.939061
0.939075
0.939089
0.939101
0.939112
0.939123
0.939132
0.939141
0.939149
0.939156
0.939163
0.939169
0.939174
0.93918
0.939184
0.939189
0.939193
0.939196
0.939199
0.939202
0.939205
0.939206
0.939208
0.939209
0.93921
0.93921
0.93921
0.939209
0.939208
0.939205
0.939203
0.939199
0.939195
0.93919
0.939184
0.939177
0.93917
0.939161
0.939152
0.939141
0.93913
0.939117
0.939104
0.93909
0.939074
0.939058
0.93904
0.939022
0.939003
0.938982
0.938961
0.938939
0.938917
0.938893
0.938869
0.938843
0.938818
0.938791
0.938765
0.938737
0.938709
0.938681
0.938652
0.938623
0.938594
0.938564
0.938534
0.938504
0.938474
0.938444
0.938414
0.938383
0.938353
0.938323
0.938293
0.938263
0.938233
0.938203
0.938173
0.938144
0.938115
0.938086
0.938057
0.938028
0.938
0.937972
0.937944
0.937917
0.937889
0.937862
0.937836
0.937809
0.937783
0.937757
0.937731
0.937705
0.93768
0.937654
0.937629
0.937604
0.93758
0.937555
0.93753
0.937505
0.937481
0.937456
0.937432
0.937407
0.937383
0.937358
0.937333
0.937308
0.937283
0.937257
0.937232
0.937206
0.93718
0.937153
0.937127
0.9371
0.937072
0.937044
0.937016
0.936987
0.936958
0.936929
0.936899
0.936868
0.936837
0.936806
0.936774
0.936741
0.936709
0.936675
0.936641
0.936607
0.936573
0.936538
0.936503
0.936467
0.936432
0.936396
0.93636
0.936324
0.936288
0.936252
0.936216
0.936181
0.936146
0.936111
0.936077
0.936044
0.936011
0.935979
0.935948
0.935918
0.935889
0.935862
0.935836
0.935811
0.935788
0.935766
0.935747
0.935729
0.935713
0.935699
0.935688
0.935679
0.935672
0.935667
0.935665
0.935665
0.935668
0.935673
0.935681
0.935691
0.935704
0.93572
0.935739
0.93576
0.935783
0.93581
0.935838
0.93587
0.935904
0.93594
0.935978
0.936019
0.936063
0.936108
0.936156
0.936205
0.936257
0.93631
0.936365
0.936422
0.936481
0.936541
0.936603
0.936666
0.93673
0.936796
0.936863
0.936931
0.936999
0.937069
0.93714
0.937211
0.937283
0.937356
0.937429
0.937503
0.937577
0.937651
0.937726
0.937801
0.937876
0.937951
0.938027
0.938102
0.938176
0.938251
0.938325
0.938399
0.938472
0.938544
0.938615
0.938685
0.938754
0.938822
0.938888
0.938952
0.939014
0.939073
0.93913
0.939184
0.939234
0.939281
0.939324
0.939363
0.939396
0.939425
0.939447
0.939464
0.939473
0.939476
0.93947
0.939456
0.939433
0.9394
0.939356
0.939301
0.939233
0.939152
0.939056
0.938945
0.938816
0.938669
0.938502
0.938312
0.938098
0.937856
0.937585
0.937282
0.936945
0.936572
0.936166
0.935733
0.935288
0.93486
0.934486
0.934238
0.934166
0.934326
0.934788
0
0
0.953008
0.953125
0.953009
0.95267
0.952167
0.951537
0.950833
0.950094
0.949349
0.948619
0.947917
0.947249
0.946618
0.946025
0.945469
0.944948
0.944459
0.944002
0.943575
0.943174
0.942799
0.942449
0.942121
0.941815
0.941528
0.941261
0.941012
0.940781
0.940565
0.940365
0.94018
0.940009
0.93985
0.939705
0.939571
0.939449
0.939337
0.939236
0.939144
0.939061
0.938986
0.93892
0.93886
0.938808
0.938763
0.938723
0.938689
0.93866
0.938636
0.938617
0.938601
0.938589
0.938581
0.938575
0.938572
0.938571
0.938572
0.938574
0.938578
0.938583
0.938589