# vtk DataFile Version 2.0
LBE mesh
ASCII
DATASET STRUCTURED_POINTS
DIMENSIONS 402 102 1
ASPECT_RATIO 1 1 1
ORIGIN 0 0 0
POINT_DATA 41004
SCALARS rho double 1
LOOKUP_TABLE default
0
0
0
0
0
0
0
0
0
0
0
0
0
0
0
0
0
0
0
0
0
0
0
0
0
0
0
0
0
0
0
0
0
0
0
0
0
0
0
0
0
0
0
0
0
0
0
0
0
0
0
0
0
0
0
0
0
0
0
0
0
0
0
0
0
0
0
0
0
0
0
0
0
0
0
0
0
0
0
0
0
0
0
0
0
0
0
0
0
0
0
0
0
0
0
0
0
0
0
0
0
0
0
0
0
0
0
0
0
0
0
0
0
0
0
0
0
0
0
0
0
0
0
0
0
0
0
0
0
0
0
0
0
0
0
0
0
0
0
0
0
0
0
0
0
0
0
0
0
0
0
0
0
0
0
0
0
0
0
0
0
0
0
0
0
0
0
0
0
0
0
0
0
0
0
0
0
0
0
0
0
0
0
0
0
0
0
0
0
0
0
0
0
0
0
0
0
0
0
0
0
0
0
0
0
0
0
0
0
0
0
0
0
0
0
0
0
0
0
0
0
0
0
0
0
0
0
0
0
0
0
0
0
0
0
0
0
0
0
0
0
0
0
0
0
0
0
0
0
0
0
0
0
0
0
0
0
0
0
0
0
0
0
0
0
0
0
0
0
0
0
0
0
0
0
0
0
0
0
0
0
0
0
0
0
0
0
0
0
0
0
0
0
0
0
0
0
0
0
0
0
0
0
0
0
0
0
0
0
0
0
0
0
0
0
0
0
0
0
0
0
0
0
0
0
0
0
0
0
0
0
0
0
0
0
0
0
0
0
0
0
0
0
0
0
0
0
0
0
0
0
0
0
0
0
0
0
0
0
0
0
0
0
0
0
0
0
0
0
0
0
0
0
0
0
0
0
0
0
0
0
0
0
0
0
0
0
0
0
0
0
0
0
0
0
0
0
0
0
0
0
0
0
0.876992
0.940344
0.928336
0.920873
0.917421
0.915177
0.913341
0.91183
0.910579
0.909512
0.908581
0.907756
0.907016
0.906344
0.905731
0.905166
0.904642
0.904155
0.903698
0.90327
0.902866
0.902485
0.902123
0.90178
0.901453
0.901142
0.900844
0.90056
0.900287
0.900026
0.899776
0.899536
0.899305
0.899083
0.898869
0.898664
0.898466
0.898275
0.898092
0.897915
0.897744
0.897579
0.897419
0.897266
0.897117
0.896973
0.896834
0.896699
0.896569
0.896442
0.896319
0.8962
0.896084
0.895971
0.895861
0.895753
0.895648
0.895546
0.895445
0.895347
0.89525
0.895155
0.895062
0.894969
0.894878
0.894788
0.8947
0.894612
0.894525
0.894438
0.894353
0.894268
0.894184
0.894101
0.894019
0.893938
0.893858
0.893779
0.893701
0.893625
0.893551
0.893478
0.893408
0.89334
0.893275
0.893212
0.893153
0.893097
0.893044
0.892995
0.892951
0.89291
0.892874
0.892842
0.892815
0.892792
0.892773
0.892759
0.89275
0.892745
0.892744
0.892746
0.892753
0.892763
0.892776
0.892792
0.89281
0.89283
0.892852
0.892876
0.892901
0.892927
0.892953
0.892979
0.893006
0.893032
0.893058
0.893083
0.893108
0.893131
0.893154
0.893175
0.893195
0.893214
0.893231
0.893247
0.893262
0.893276
0.893288
0.893299
0.893308
0.893317
0.893324
0.893331
0.893336
0.89334
0.893344
0.893346
0.893348
0.893349
0.893349
0.893349
0.893348
0.893347
0.893345
0.893343
0.893341
0.893338
0.893335
0.893332
0.893329
0.893325
0.893322
0.893318
0.893314
0.89331
0.893306
0.893302
0.893299
0.893295
0.893291
0.893287
0.893283
0.89328
0.893276
0.893273
0.893269
0.893266
0.893263
0.89326
0.893257
0.893253
0.893251
0.893248
0.893245
0.893242
0.893239
0.893236
0.893233
0.89323
0.893228
0.893225
0.893222
0.893219
0.893216
0.893213
0.89321
0.893206
0.893203
0.893199
0.893196
0.893192
0.893188
0.893184
0.893179
0.893175
0.89317
0.893165
0.89316
0.893155
0.893149
0.893144
0.893138
0.893131
0.893125
0.893118
0.893111
0.893104
0.893096
0.893089
0.893081
0.893072
0.893064
0.893055
0.893046
0.893037
0.893028
0.893018
0.893008
0.892998
0.892987
0.892977
0.892966
0.892955
0.892944
0.892933
0.892921
0.892909
0.892898
0.892886
0.892873
0.892861
0.892849
0.892836
0.892824
0.892811
0.892798
0.892786
0.892773
0.89276
0.892747
0.892734
0.892721
0.892708
0.892695
0.892681
0.892668
0.892655
0.892642
0.892629
0.892616
0.892603
0.89259
0.892576
0.892563
0.89255
0.892537
0.892524
0.892511
0.892498
0.892485
0.892472
0.892459
0.892446
0.892433
0.892421
0.892408
0.892395
0.892382
0.892369
0.892356
0.892343
0.89233
0.892318
0.892305
0.892292
0.892279
0.892266
0.892253
0.892241
0.892228
0.892215
0.892202
0.89219
0.892177
0.892165
0.892152
0.89214
0.892128
0.892115
0.892104
0.892092
0.89208
0.892069
0.892058
0.892047
0.892037
0.892027
0.892017
0.892008
0.892
0.891992
0.891984
0.891977
0.891971
0.891966
0.891962
0.891958
0.891956
0.891954
0.891954
0.891955
0.891957
0.891961
0.891966
0.891973
0.891981
0.891991
0.892003
0.892017
0.892034
0.892052
0.892072
0.892095
0.892121
0.892149
0.892179
0.892213
0.892249
0.892289
0.892331
0.892377
0.892425
0.892477
0.892533
0.892592
0.892654
0.89272
0.892789
0.892861
0.892937
0.893017
0.8931
0.893186
0.893275
0.893368
0.893463
0.893561
0.893661
0.893764
0.893868
0.893975
0.894083
0.894191
0.8943
0.89441
0.894519
0.894627
0.894734
0.894839
0.894941
0.89504
0.895136
0.895227
0.895313
0.895393
0.895467
0.895534
0.895592
0.895643
0.895684
0.895715
0.895736
0.895746
0.895744
0.89573
0.895704
0.895665
0.895612
0.895545
0.895464
0.895369
0.895258
0.895131
0.894988
0.894826
0.894644
0.89444
0.894207
0.893938
0.893625
0.89325
0.892766
0.892055
0.891009
0.889876
0.889193
0.885467
0.85393
0.761016
0
0
0.941194
0.934176
0.92667
0.9224
0.918735
0.916001
0.913961
0.912345
0.911002
0.90986
0.908872
0.908002
0.907227
0.906528
0.905892
0.905309
0.90477
0.90427
0.903803
0.903366
0.902954
0.902566
0.902199
0.90185
0.901519
0.901203
0.900902
0.900614
0.900339
0.900075
0.899823
0.89958
0.899347
0.899123
0.898908
0.8987
0.898501
0.898309
0.898124
0.897945
0.897773
0.897607
0.897446
0.897291
0.897142
0.896997
0.896857
0.896721
0.896589
0.896462
0.896338
0.896218
0.896102
0.895988
0.895877
0.895769
0.895664
0.895561
0.89546
0.895361
0.895264
0.895169
0.895075
0.894983
0.894892
0.894802
0.894713
0.894625
0.894538
0.894452
0.894367
0.894282
0.894198
0.894115
0.894033
0.893952
0.893872
0.893794
0.893716
0.89364
0.893566
0.893493
0.893423
0.893355
0.89329
0.893227
0.893167
0.893111
0.893058
0.893009
0.892963
0.892922
0.892885
0.892852
0.892824
0.8928
0.892781
0.892766
0.892755
0.892749
0.892747
0.892749
0.892754
0.892763
0.892775
0.89279
0.892807
0.892827
0.892848
0.892871
0.892896
0.892921
0.892947
0.892973
0.892999
0.893025
0.893051
0.893076
0.8931
0.893124
0.893146
0.893168
0.893188
0.893207
0.893225
0.893241
0.893256
0.89327
0.893282
0.893293
0.893303
0.893312
0.89332
0.893326
0.893332
0.893336
0.89334
0.893343
0.893345
0.893346
0.893346
0.893346
0.893346
0.893345
0.893343
0.893341
0.893339
0.893336
0.893334
0.89333
0.893327
0.893324
0.89332
0.893316
0.893313
0.893309
0.893305
0.893301
0.893298
0.893294
0.89329
0.893286
0.893283
0.893279
0.893275
0.893272
0.893269
0.893265
0.893262
0.893259
0.893256
0.893253
0.89325
0.893247
0.893244
0.893241
0.893238
0.893235
0.893232
0.893229
0.893227
0.893224
0.893221
0.893218
0.893215
0.893212
0.893208
0.893205
0.893202
0.893198
0.893194
0.89319
0.893186
0.893182
0.893178
0.893173
0.893169
0.893164
0.893159
0.893153
0.893148
0.893142
0.893136
0.89313
0.893123
0.893116
0.893109
0.893102
0.893095
0.893087
0.893079
0.89307
0.893062
0.893053
0.893044
0.893035
0.893025
0.893016
0.893006
0.892996
0.892985
0.892975
0.892964
0.892953
0.892942
0.89293
0.892919
0.892907
0.892895
0.892883
0.892871
0.892859
0.892847
0.892834
0.892821
0.892809
0.892796
0.892783
0.89277
0.892757
0.892744
0.892731
0.892718
0.892705
0.892692
0.892679
0.892666
0.892653
0.89264
0.892626
0.892613
0.8926
0.892587
0.892574
0.892561
0.892548
0.892535
0.892522
0.892509
0.892496
0.892483
0.89247
0.892457
0.892444
0.892431
0.892418
0.892406
0.892393
0.89238
0.892367
0.892354
0.892341
0.892329
0.892316
0.892303
0.89229
0.892277
0.892264
0.892252
0.892239
0.892226
0.892214
0.892201
0.892188
0.892176
0.892163
0.892151
0.892139
0.892127
0.892114
0.892103
0.892091
0.89208
0.892068
0.892057
0.892047
0.892036
0.892026
0.892017
0.892008
0.891999
0.891991
0.891984
0.891977
0.891971
0.891965
0.891961
0.891957
0.891955
0.891953
0.891953
0.891954
0.891956
0.891959
0.891964
0.891971
0.891979
0.891989
0.892
0.892014
0.89203
0.892048
0.892068
0.89209
0.892115
0.892142
0.892172
0.892205
0.892241
0.892279
0.89232
0.892365
0.892413
0.892464
0.892518
0.892575
0.892636
0.8927
0.892768
0.892839
0.892913
0.892991
0.893072
0.893156
0.893243
0.893334
0.893427
0.893522
0.89362
0.89372
0.893822
0.893926
0.894031
0.894137
0.894243
0.894349
0.894455
0.894561
0.894664
0.894766
0.894865
0.894961
0.895053
0.895141
0.895223
0.8953
0.89537
0.895433
0.895488
0.895535
0.895572
0.895599
0.895615
0.89562
0.895613
0.895594
0.895561
0.895514
0.895453
0.895377
0.895284
0.895175
0.895048
0.894902
0.894735
0.894544
0.894326
0.894075
0.893783
0.893439
0.893019
0.89249
0.891806
0.890929
0.889725
0.887547
0.882696
0.874683
0.867126
0.856031
0
0
0.937662
0.928972
0.925864
0.922115
0.918725
0.916205
0.914221
0.912588
0.911219
0.910053
0.909043
0.908154
0.907362
0.906649
0.906
0.905407
0.904859
0.904352
0.903879
0.903436
0.903019
0.902627
0.902256
0.901904
0.901569
0.901251
0.900947
0.900657
0.90038
0.900114
0.899859
0.899615
0.89938
0.899155
0.898938
0.89873
0.898529
0.898335
0.898149
0.897969
0.897796
0.897629
0.897468
0.897312
0.897161
0.897016
0.896875
0.896739
0.896606
0.896478
0.896354
0.896234
0.896116
0.896002
0.895891
0.895783
0.895677
0.895574
0.895473
0.895374
0.895277
0.895182
0.895088
0.894995
0.894904
0.894814
0.894725
0.894637
0.894551
0.894464
0.894379
0.894295
0.894211
0.894128
0.894046
0.893965
0.893886
0.893807
0.893729
0.893653
0.893579
0.893506
0.893436
0.893367
0.893301
0.893238
0.893178
0.893121
0.893067
0.893017
0.892971
0.892929
0.892891
0.892858
0.892828
0.892804
0.892783
0.892767
0.892756
0.892749
0.892746
0.892747
0.892751
0.892759
0.892771
0.892785
0.892802
0.892821
0.892842
0.892865
0.892889
0.892914
0.89294
0.892966
0.892992
0.893018
0.893044
0.893069
0.893094
0.893118
0.89314
0.893162
0.893182
0.893202
0.89322
0.893236
0.893251
0.893265
0.893278
0.89329
0.8933
0.893309
0.893317
0.893323
0.893329
0.893334
0.893338
0.89334
0.893343
0.893344
0.893345
0.893345
0.893345
0.893344
0.893342
0.89334
0.893338
0.893336
0.893333
0.89333
0.893327
0.893323
0.89332
0.893316
0.893312
0.893309
0.893305
0.893301
0.893297
0.893293
0.89329
0.893286
0.893282
0.893279
0.893275
0.893272
0.893268
0.893265
0.893262
0.893259
0.893256
0.893252
0.893249
0.893246
0.893244
0.893241
0.893238
0.893235
0.893232
0.893229
0.893226
0.893223
0.89322
0.893217
0.893214
0.893211
0.893208
0.893204
0.893201
0.893197
0.893193
0.89319
0.893186
0.893181
0.893177
0.893172
0.893168
0.893163
0.893158
0.893152
0.893147
0.893141
0.893135
0.893128
0.893122
0.893115
0.893108
0.893101
0.893093
0.893085
0.893077
0.893069
0.89306
0.893051
0.893042
0.893033
0.893024
0.893014
0.893004
0.892994
0.892983
0.892973
0.892962
0.892951
0.89294
0.892928
0.892917
0.892905
0.892893
0.892881
0.892869
0.892857
0.892844
0.892832
0.892819
0.892806
0.892794
0.892781
0.892768
0.892755
0.892742
0.892729
0.892716
0.892703
0.89269
0.892677
0.892664
0.89265
0.892637
0.892624
0.892611
0.892598
0.892585
0.892572
0.892559
0.892545
0.892532
0.892519
0.892506
0.892493
0.892481
0.892468
0.892455
0.892442
0.892429
0.892416
0.892403
0.89239
0.892378
0.892365
0.892352
0.892339
0.892326
0.892314
0.892301
0.892288
0.892275
0.892263
0.89225
0.892237
0.892224
0.892212
0.892199
0.892187
0.892174
0.892162
0.892149
0.892137
0.892125
0.892113
0.892101
0.89209
0.892078
0.892067
0.892056
0.892045
0.892035
0.892025
0.892016
0.892006
0.891998
0.89199
0.891982
0.891975
0.891969
0.891964
0.891959
0.891956
0.891953
0.891951
0.891951
0.891951
0.891953
0.891956
0.891961
0.891967
0.891975
0.891984
0.891996
0.892009
0.892024
0.892041
0.892061
0.892083
0.892107
0.892133
0.892163
0.892195
0.892229
0.892267
0.892307
0.892351
0.892397
0.892447
0.8925
0.892556
0.892615
0.892678
0.892744
0.892814
0.892886
0.892962
0.893041
0.893124
0.893209
0.893297
0.893388
0.893481
0.893577
0.893675
0.893775
0.893876
0.893978
0.894082
0.894185
0.894289
0.894393
0.894495
0.894596
0.894695
0.894791
0.894885
0.894974
0.895059
0.895139
0.895212
0.89528
0.895339
0.895391
0.895434
0.895468
0.895491
0.895504
0.895504
0.895493
0.895468
0.895429
0.895375
0.895307
0.895221
0.895118
0.894997
0.894855
0.894691
0.894503
0.894286
0.894036
0.893746
0.893406
0.893
0.892509
0.891898
0.891102
0.89001
0.888502
0.886492
0.883333
0.877408
0.873958
0.879256
0
0
0.928033
0.925695
0.92368
0.920597
0.918121
0.915972
0.914125
0.912568
0.911245
0.910101
0.9091
0.908214
0.907422
0.906707
0.906057
0.905461
0.904911
0.904401
0.903925
0.90348
0.903061
0.902667
0.902294
0.90194
0.901604
0.901284
0.900979
0.900687
0.900409
0.900142
0.899886
0.899641
0.899405
0.899178
0.898961
0.898751
0.89855
0.898355
0.898168
0.897988
0.897814
0.897646
0.897484
0.897328
0.897176
0.89703
0.896889
0.896752
0.89662
0.896491
0.896367
0.896246
0.896128
0.896014
0.895903
0.895794
0.895688
0.895585
0.895484
0.895385
0.895288
0.895192
0.895098
0.895006
0.894915
0.894825
0.894736
0.894649
0.894562
0.894476
0.894391
0.894306
0.894223
0.89414
0.894058
0.893977
0.893897
0.893818
0.893741
0.893664
0.89359
0.893517
0.893446
0.893377
0.89331
0.893246
0.893185
0.893128
0.893073
0.893022
0.892975
0.892932
0.892893
0.892859
0.892828
0.892803
0.892781
0.892765
0.892752
0.892744
0.892741
0.892741
0.892745
0.892753
0.892764
0.892778
0.892795
0.892814
0.892835
0.892857
0.892882
0.892907
0.892933
0.892959
0.892986
0.893012
0.893038
0.893064
0.893089
0.893112
0.893136
0.893157
0.893178
0.893198
0.893216
0.893233
0.893248
0.893263
0.893276
0.893287
0.893298
0.893307
0.893315
0.893322
0.893328
0.893333
0.893337
0.89334
0.893342
0.893343
0.893344
0.893345
0.893344
0.893343
0.893342
0.89334
0.893338
0.893336
0.893333
0.89333
0.893327
0.893323
0.89332
0.893316
0.893313
0.893309
0.893305
0.893302
0.893298
0.893294
0.89329
0.893287
0.893283
0.893279
0.893276
0.893272
0.893269
0.893266
0.893262
0.893259
0.893256
0.893253
0.89325
0.893247
0.893244
0.893241
0.893238
0.893235
0.893232
0.893229
0.893226
0.893223
0.89322
0.893217
0.893214
0.893211
0.893207
0.893204
0.893201
0.893197
0.893193
0.893189
0.893185
0.893181
0.893176
0.893172
0.893167
0.893162
0.893157
0.893151
0.893146
0.89314
0.893134
0.893127
0.893121
0.893114
0.893107
0.893099
0.893092
0.893084
0.893076
0.893067
0.893059
0.89305
0.893041
0.893032
0.893022
0.893012
0.893002
0.892992
0.892982
0.892971
0.89296
0.892949
0.892938
0.892926
0.892915
0.892903
0.892891
0.892879
0.892867
0.892855
0.892842
0.89283
0.892817
0.892804
0.892792
0.892779
0.892766
0.892753
0.89274
0.892727
0.892714
0.892701
0.892687
0.892674
0.892661
0.892648
0.892635
0.892622
0.892608
0.892595
0.892582
0.892569
0.892556
0.892543
0.89253
0.892517
0.892504
0.892491
0.892478
0.892465
0.892452
0.892439
0.892427
0.892414
0.892401
0.892388
0.892375
0.892362
0.89235
0.892337
0.892324
0.892311
0.892299
0.892286
0.892273
0.89226
0.892248
0.892235
0.892222
0.89221
0.892197
0.892185
0.892172
0.89216
0.892148
0.892135
0.892123
0.892111
0.8921
0.892088
0.892076
0.892065
0.892054
0.892044
0.892033
0.892023
0.892014
0.892005
0.891996
0.891988
0.89198
0.891973
0.891967
0.891961
0.891957
0.891953
0.89195
0.891948
0.891947
0.891948
0.891949
0.891952
0.891956
0.891962
0.891969
0.891978
0.891989
0.892002
0.892017
0.892033
0.892052
0.892073
0.892096
0.892122
0.892151
0.892182
0.892215
0.892252
0.892291
0.892334
0.892379
0.892427
0.892479
0.892534
0.892592
0.892653
0.892718
0.892785
0.892856
0.892931
0.893008
0.893088
0.893172
0.893258
0.893347
0.893438
0.893532
0.893628
0.893725
0.893824
0.893925
0.894026
0.894127
0.894229
0.89433
0.89443
0.894529
0.894626
0.89472
0.894811
0.894898
0.894981
0.895058
0.895129
0.895194
0.895251
0.895301
0.895341
0.895372
0.895392
0.895401
0.895398
0.895382
0.895352
0.895308
0.895249
0.895173
0.89508
0.894968
0.894836
0.894682
0.894504
0.894298
0.894062
0.893789
0.893473
0.893103
0.892665
0.892137
0.891488
0.890686
0.889666
0.888281
0.886371
0.884321
0.882482
0.880922
0.883415
0
0
0.92228
0.922284
0.920765
0.918922
0.917113
0.915323
0.91373
0.912331
0.911099
0.910011
0.909047
0.908185
0.907409
0.906705
0.906062
0.90547
0.904924
0.904416
0.903942
0.903498
0.90308
0.902686
0.902313
0.901959
0.901623
0.901303
0.900997
0.900705
0.900426
0.900159
0.899903
0.899657
0.89942
0.899193
0.898975
0.898765
0.898563
0.898368
0.898181
0.898
0.897826
0.897657
0.897495
0.897338
0.897187
0.89704
0.896899
0.896762
0.896629
0.8965
0.896376
0.896255
0.896137
0.896023
0.895911
0.895803
0.895697
0.895594
0.895493
0.895394
0.895297
0.895201
0.895108
0.895015
0.894924
0.894835
0.894746
0.894659
0.894572
0.894486
0.894401
0.894317
0.894233
0.89415
0.894068
0.893987
0.893907
0.893828
0.89375
0.893673
0.893598
0.893525
0.893453
0.893383
0.893316
0.893251
0.893189
0.89313
0.893075
0.893023
0.892975
0.892931
0.892891
0.892855
0.892824
0.892797
0.892775
0.892757
0.892744
0.892736
0.892732
0.892732
0.892735
0.892743
0.892754
0.892768
0.892785
0.892804
0.892825
0.892848
0.892873
0.892899
0.892925
0.892952
0.892979
0.893006
0.893032
0.893059
0.893084
0.893108
0.893132
0.893154
0.893175
0.893195
0.893214
0.893231
0.893247
0.893261
0.893275
0.893286
0.893297
0.893306
0.893315
0.893322
0.893328
0.893333
0.893337
0.89334
0.893342
0.893344
0.893345
0.893345
0.893345
0.893344
0.893343
0.893341
0.893339
0.893337
0.893334
0.893331
0.893328
0.893325
0.893321
0.893318
0.893314
0.89331
0.893307
0.893303
0.893299
0.893295
0.893291
0.893288
0.893284
0.89328
0.893277
0.893273
0.89327
0.893267
0.893263
0.89326
0.893257
0.893254
0.893251
0.893248
0.893245
0.893242
0.893239
0.893236
0.893233
0.89323
0.893227
0.893224
0.893221
0.893218
0.893214
0.893211
0.893208
0.893204
0.893201
0.893197
0.893193
0.893189
0.893185
0.893181
0.893176
0.893171
0.893167
0.893162
0.893156
0.893151
0.893145
0.893139
0.893133
0.893127
0.89312
0.893113
0.893106
0.893098
0.893091
0.893083
0.893075
0.893066
0.893058
0.893049
0.89304
0.89303
0.893021
0.893011
0.893001
0.892991
0.89298
0.892969
0.892958
0.892947
0.892936
0.892925
0.892913
0.892901
0.892889
0.892877
0.892865
0.892853
0.89284
0.892828
0.892815
0.892802
0.892789
0.892777
0.892764
0.892751
0.892738
0.892724
0.892711
0.892698
0.892685
0.892672
0.892659
0.892646
0.892632
0.892619
0.892606
0.892593
0.89258
0.892567
0.892554
0.89254
0.892527
0.892514
0.892501
0.892488
0.892476
0.892463
0.89245
0.892437
0.892424
0.892411
0.892398
0.892385
0.892373
0.89236
0.892347
0.892334
0.892322
0.892309
0.892296
0.892283
0.892271
0.892258
0.892245
0.892233
0.89222
0.892208
0.892195
0.892182
0.89217
0.892158
0.892145
0.892133
0.892121
0.892109
0.892097
0.892086
0.892074
0.892063
0.892052
0.892041
0.892031
0.892021
0.892011
0.892002
0.891993
0.891985
0.891977
0.89197
0.891964
0.891958
0.891953
0.891949
0.891946
0.891944
0.891943
0.891943
0.891944
0.891946
0.89195
0.891956
0.891962
0.891971
0.891981
0.891993
0.892007
0.892023
0.892041
0.892062
0.892084
0.892109
0.892137
0.892167
0.892199
0.892235
0.892273
0.892314
0.892358
0.892405
0.892456
0.892509
0.892566
0.892625
0.892688
0.892755
0.892824
0.892896
0.892972
0.893051
0.893132
0.893217
0.893304
0.893393
0.893485
0.893579
0.893675
0.893772
0.89387
0.893969
0.894069
0.894169
0.894268
0.894366
0.894463
0.894558
0.89465
0.894739
0.894825
0.894905
0.894981
0.89505
0.895113
0.895168
0.895215
0.895253
0.895281
0.895299
0.895305
0.895298
0.895279
0.895246
0.895197
0.895133
0.895051
0.894952
0.894833
0.894693
0.894529
0.894341
0.894125
0.893877
0.893592
0.893263
0.892883
0.892439
0.891917
0.891294
0.890539
0.88963
0.888563
0.887299
0.885942
0.885229
0.885003
0.885658
0
0
0.918985
0.919108
0.918274
0.917194
0.915837
0.914453
0.913139
0.911917
0.910806
0.909802
0.908896
0.908074
0.907327
0.906644
0.906017
0.905437
0.9049
0.904399
0.90393
0.90349
0.903076
0.902684
0.902313
0.901961
0.901626
0.901307
0.901002
0.900711
0.900432
0.900165
0.899909
0.899663
0.899427
0.8992
0.898982
0.898772
0.898569
0.898375
0.898187
0.898006
0.897832
0.897663
0.897501
0.897344
0.897192
0.897046
0.896904
0.896767
0.896634
0.896506
0.896381
0.89626
0.896143
0.896028
0.895917
0.895809
0.895703
0.8956
0.895499
0.8954
0.895304
0.895208
0.895115
0.895023
0.894932
0.894843
0.894755
0.894667
0.894581
0.894495
0.89441
0.894326
0.894242
0.89416
0.894077
0.893996
0.893916
0.893836
0.893758
0.89368
0.893605
0.89353
0.893458
0.893387
0.893319
0.893253
0.89319
0.89313
0.893073
0.89302
0.89297
0.892925
0.892884
0.892847
0.892815
0.892787
0.892764
0.892746
0.892732
0.892723
0.892719
0.892718
0.892722
0.89273
0.892741
0.892755
0.892773
0.892792
0.892814
0.892838
0.892864
0.89289
0.892917
0.892945
0.892972
0.893
0.893027
0.893054
0.89308
0.893105
0.893129
0.893152
0.893174
0.893194
0.893213
0.893231
0.893247
0.893262
0.893275
0.893287
0.893298
0.893307
0.893316
0.893323
0.893329
0.893334
0.893338
0.893342
0.893344
0.893346
0.893347
0.893347
0.893347
0.893346
0.893345
0.893343
0.893341
0.893339
0.893336
0.893333
0.89333
0.893327
0.893323
0.89332
0.893316
0.893312
0.893309
0.893305
0.893301
0.893297
0.893293
0.89329
0.893286
0.893282
0.893279
0.893275
0.893272
0.893268
0.893265
0.893262
0.893258
0.893255
0.893252
0.893249
0.893246
0.893243
0.89324
0.893237
0.893234
0.893231
0.893228
0.893225
0.893222
0.893218
0.893215
0.893212
0.893208
0.893205
0.893201
0.893197
0.893194
0.89319
0.893185
0.893181
0.893176
0.893172
0.893167
0.893162
0.893156
0.893151
0.893145
0.893139
0.893133
0.893126
0.89312
0.893113
0.893105
0.893098
0.89309
0.893082
0.893074
0.893066
0.893057
0.893048
0.893039
0.893029
0.89302
0.89301
0.893
0.892989
0.892979
0.892968
0.892957
0.892946
0.892935
0.892923
0.892912
0.8929
0.892888
0.892876
0.892863
0.892851
0.892838
0.892826
0.892813
0.8928
0.892788
0.892775
0.892762
0.892749
0.892736
0.892722
0.892709
0.892696
0.892683
0.89267
0.892656
0.892643
0.89263
0.892617
0.892604
0.89259
0.892577
0.892564
0.892551
0.892538
0.892525
0.892512
0.892499
0.892486
0.892473
0.89246
0.892447
0.892434
0.892421
0.892408
0.892396
0.892383
0.89237
0.892357
0.892345
0.892332
0.892319
0.892306
0.892294
0.892281
0.892268
0.892256
0.892243
0.89223
0.892218
0.892205
0.892193
0.89218
0.892168
0.892155
0.892143
0.892131
0.892119
0.892107
0.892095
0.892083
0.892072
0.89206
0.892049
0.892039
0.892028
0.892018
0.892008
0.891999
0.89199
0.891982
0.891974
0.891966
0.89196
0.891954
0.891949
0.891944
0.891941
0.891938
0.891937
0.891937
0.891937
0.89194
0.891943
0.891948
0.891954
0.891962
0.891972
0.891983
0.891996
0.892012
0.892029
0.892048
0.89207
0.892094
0.89212
0.892149
0.892181
0.892215
0.892252
0.892292
0.892335
0.892381
0.89243
0.892482
0.892537
0.892595
0.892657
0.892721
0.892789
0.89286
0.892934
0.893011
0.893091
0.893174
0.893259
0.893347
0.893437
0.893529
0.893623
0.893718
0.893815
0.893912
0.89401
0.894108
0.894206
0.894303
0.894398
0.894491
0.894582
0.894669
0.894753
0.894832
0.894906
0.894974
0.895035
0.895088
0.895133
0.89517
0.895196
0.895211
0.895215
0.895206
0.895183
0.895147
0.895095
0.895026
0.894941
0.894837
0.894713
0.894567
0.894399
0.894205
0.893983
0.893731
0.893444
0.893116
0.892743
0.892316
0.891825
0.891261
0.890613
0.889871
0.889055
0.888255
0.887519
0.887076
0.887214
0.887706
0
0
0.916572
0.916605
0.916212
0.915494
0.914528
0.913483
0.912414
0.911378
0.910403
0.909497
0.908661
0.907892
0.907184
0.90653
0.905925
0.905363
0.90484
0.90435
0.90389
0.903457
0.903048
0.902662
0.902295
0.901946
0.901613
0.901296
0.900993
0.900704
0.900426
0.90016
0.899905
0.89966
0.899424
0.899198
0.89898
0.89877
0.898568
0.898374
0.898186
0.898006
0.897831
0.897663
0.897501
0.897344
0.897193
0.897047
0.896905
0.896768
0.896636
0.896507
0.896383
0.896262
0.896145
0.896031
0.89592
0.895812
0.895707
0.895604
0.895503
0.895405
0.895309
0.895214
0.895121
0.895029
0.894939
0.89485
0.894762
0.894675
0.894588
0.894503
0.894418
0.894334
0.89425
0.894167
0.894085
0.894003
0.893923
0.893843
0.893763
0.893685
0.893609
0.893533
0.89346
0.893388
0.893318
0.893251
0.893187
0.893125
0.893067
0.893012
0.892962
0.892915
0.892872
0.892834
0.892801
0.892772
0.892748
0.89273
0.892716
0.892706
0.892702
0.892701
0.892705
0.892713
0.892725
0.89274
0.892758
0.892779
0.892802
0.892827
0.892853
0.89288
0.892909
0.892937
0.892966
0.892995
0.893023
0.893051
0.893077
0.893103
0.893128
0.893151
0.893174
0.893194
0.893214
0.893232
0.893248
0.893263
0.893277
0.893289
0.8933
0.89331
0.893318
0.893326
0.893332
0.893337
0.893341
0.893345
0.893347
0.893349
0.89335
0.89335
0.89335
0.893349
0.893348
0.893346
0.893344
0.893342
0.893339
0.893336
0.893333
0.893329
0.893326
0.893322
0.893319
0.893315
0.893311
0.893307
0.893304
0.8933
0.893296
0.893292
0.893288
0.893285
0.893281
0.893278
0.893274
0.893271
0.893267
0.893264
0.893261
0.893257
0.893254
0.893251
0.893248
0.893245
0.893242
0.893239
0.893236
0.893233
0.893229
0.893226
0.893223
0.89322
0.893217
0.893213
0.89321
0.893206
0.893202
0.893199
0.893195
0.89319
0.893186
0.893182
0.893177
0.893172
0.893167
0.893162
0.893157
0.893151
0.893145
0.893139
0.893133
0.893126
0.89312
0.893113
0.893105
0.893098
0.89309
0.893082
0.893074
0.893065
0.893056
0.893047
0.893038
0.893029
0.893019
0.893009
0.892999
0.892988
0.892978
0.892967
0.892956
0.892945
0.892934
0.892922
0.89291
0.892898
0.892886
0.892874
0.892862
0.892849
0.892837
0.892824
0.892811
0.892799
0.892786
0.892773
0.89276
0.892747
0.892734
0.89272
0.892707
0.892694
0.892681
0.892667
0.892654
0.892641
0.892628
0.892614
0.892601
0.892588
0.892575
0.892562
0.892549
0.892535
0.892522
0.892509
0.892496
0.892483
0.89247
0.892457
0.892444
0.892431
0.892419
0.892406
0.892393
0.89238
0.892367
0.892355
0.892342
0.892329
0.892316
0.892304
0.892291
0.892278
0.892265
0.892253
0.89224
0.892227
0.892215
0.892202
0.89219
0.892177
0.892165
0.892152
0.89214
0.892128
0.892116
0.892104
0.892092
0.89208
0.892069
0.892057
0.892046
0.892035
0.892025
0.892014
0.892005
0.891995
0.891986
0.891977
0.891969
0.891962
0.891955
0.891949
0.891943
0.891939
0.891935
0.891932
0.89193
0.89193
0.89193
0.891932
0.891934
0.891939
0.891944
0.891952
0.891961
0.891971
0.891984
0.891998
0.892015
0.892033
0.892054
0.892077
0.892103
0.89213
0.892161
0.892194
0.89223
0.892269
0.89231
0.892355
0.892402
0.892453
0.892506
0.892563
0.892623
0.892686
0.892752
0.892822
0.892894
0.892969
0.893048
0.893129
0.893212
0.893298
0.893387
0.893477
0.89357
0.893663
0.893759
0.893854
0.893951
0.894047
0.894144
0.894239
0.894333
0.894425
0.894514
0.8946
0.894682
0.89476
0.894833
0.894899
0.894959
0.895011
0.895055
0.895089
0.895113
0.895127
0.895129
0.895118
0.895093
0.895054
0.895
0.894929
0.89484
0.894733
0.894606
0.894458
0.894288
0.894093
0.893872
0.893622
0.893341
0.893025
0.892671
0.892275
0.891832
0.891341
0.890803
0.890231
0.889642
0.889103
0.888706
0.88849
0.888651
0.889178
0
0
0.914578
0.914644
0.914442
0.913952
0.913276
0.912481
0.911625
0.910763
0.909921
0.909116
0.908359
0.907649
0.906987
0.906369
0.905792
0.905253
0.904747
0.904271
0.903823
0.9034
0.902999
0.902619
0.902258
0.901913
0.901585
0.901271
0.900971
0.900684
0.900409
0.900145
0.899891
0.899647
0.899413
0.899187
0.89897
0.898761
0.89856
0.898366
0.898179
0.897999
0.897825
0.897658
0.897496
0.89734
0.897189
0.897043
0.896902
0.896765
0.896633
0.896505
0.896381
0.896261
0.896144
0.89603
0.89592
0.895813
0.895708
0.895605
0.895505
0.895408
0.895312
0.895217
0.895125
0.895034
0.894944
0.894855
0.894767
0.894681
0.894595
0.894509
0.894425
0.89434
0.894257
0.894174
0.894091
0.894009
0.893928
0.893847
0.893767
0.893689
0.893611
0.893534
0.89346
0.893386
0.893315
0.893247
0.893181
0.893118
0.893058
0.893001
0.892949
0.892901
0.892857
0.892817
0.892783
0.892753
0.892729
0.892709
0.892695
0.892685
0.892681
0.892681
0.892685
0.892694
0.892706
0.892722
0.892742
0.892763
0.892788
0.892814
0.892842
0.89287
0.8929
0.89293
0.89296
0.89299
0.893019
0.893048
0.893075
0.893102
0.893128
0.893152
0.893175
0.893196
0.893216
0.893234
0.893251
0.893266
0.89328
0.893293
0.893304
0.893314
0.893322
0.89333
0.893336
0.893341
0.893345
0.893349
0.893351
0.893353
0.893354
0.893354
0.893354
0.893353
0.893352
0.89335
0.893348
0.893345
0.893343
0.89334
0.893336
0.893333
0.89333
0.893326
0.893322
0.893318
0.893315
0.893311
0.893307
0.893303
0.893299
0.893295
0.893292
0.893288
0.893284
0.893281
0.893277
0.893273
0.89327
0.893267
0.893263
0.89326
0.893257
0.893254
0.89325
0.893247
0.893244
0.893241
0.893238
0.893235
0.893232
0.893228
0.893225
0.893222
0.893218
0.893215
0.893211
0.893208
0.893204
0.8932
0.893196
0.893192
0.893187
0.893183
0.893178
0.893173
0.893168
0.893163
0.893158
0.893152
0.893146
0.89314
0.893133
0.893127
0.89312
0.893113
0.893106
0.893098
0.89309
0.893082
0.893074
0.893065
0.893056
0.893047
0.893038
0.893028
0.893019
0.893009
0.892998
0.892988
0.892977
0.892966
0.892955
0.892944
0.892933
0.892921
0.892909
0.892897
0.892885
0.892873
0.892861
0.892848
0.892835
0.892823
0.89281
0.892797
0.892784
0.892771
0.892758
0.892745
0.892732
0.892718
0.892705
0.892692
0.892679
0.892665
0.892652
0.892639
0.892625
0.892612
0.892599
0.892586
0.892572
0.892559
0.892546
0.892533
0.89252
0.892507
0.892494
0.892481
0.892468
0.892455
0.892442
0.892429
0.892416
0.892403
0.89239
0.892377
0.892365
0.892352
0.892339
0.892326
0.892313
0.892301
0.892288
0.892275
0.892263
0.89225
0.892237
0.892224
0.892212
0.892199
0.892187
0.892174
0.892162
0.892149
0.892137
0.892125
0.892113
0.8921
0.892089
0.892077
0.892065
0.892054
0.892043
0.892032
0.892021
0.89201
0.892
0.891991
0.891982
0.891973
0.891965
0.891957
0.89195
0.891943
0.891937
0.891932
0.891928
0.891925
0.891923
0.891922
0.891921
0.891923
0.891925
0.891929
0.891934
0.89194
0.891949
0.891958
0.89197
0.891984
0.891999
0.892017
0.892037
0.892059
0.892083
0.89211
0.892139
0.892171
0.892206
0.892243
0.892283
0.892326
0.892373
0.892422
0.892474
0.892529
0.892588
0.892649
0.892714
0.892781
0.892852
0.892926
0.893003
0.893082
0.893164
0.893249
0.893335
0.893424
0.893515
0.893608
0.893701
0.893796
0.893891
0.893986
0.894081
0.894175
0.894267
0.894358
0.894446
0.894531
0.894612
0.894689
0.89476
0.894825
0.894884
0.894935
0.894977
0.895011
0.895034
0.895046
0.895046
0.895033
0.895007
0.894966
0.89491
0.894838
0.894748
0.89464
0.894512
0.894364
0.894195
0.894002
0.893786
0.893544
0.893275
0.892977
0.89265
0.892292
0.891903
0.891488
0.891051
0.890612
0.890195
0.889836
0.889602
0.889539
0.889702
0.890156
0
0
0.912922
0.913033
0.912918
0.91259
0.912105
0.911498
0.910819
0.910107
0.909388
0.908684
0.908005
0.907358
0.906745
0.906167
0.905622
0.905108
0.904623
0.904165
0.903731
0.90332
0.902929
0.902558
0.902203
0.901865
0.901542
0.901233
0.900936
0.900652
0.90038
0.900118
0.899867
0.899625
0.899392
0.899168
0.898953
0.898745
0.898545
0.898352
0.898166
0.897987
0.897814
0.897647
0.897486
0.89733
0.89718
0.897034
0.896894
0.896758
0.896626
0.896499
0.896376
0.896256
0.89614
0.896027
0.895917
0.89581
0.895706
0.895604
0.895505
0.895408