# vtk DataFile Version 2.0
LBE mesh
ASCII
DATASET STRUCTURED_POINTS
DIMENSIONS 402 102 1
ASPECT_RATIO 1 1 1
ORIGIN 0 0 0
POINT_DATA 41004
SCALARS rho double 1
LOOKUP_TABLE default
0
0
0
0
0
0
0
0
0
0
0
0
0
0
0
0
0
0
0
0
0
0
0
0
0
0
0
0
0
0
0
0
0
0
0
0
0
0
0
0
0
0
0
0
0
0
0
0
0
0
0
0
0
0
0
0
0
0
0
0
0
0
0
0
0
0
0
0
0
0
0
0
0
0
0
0
0
0
0
0
0
0
0
0
0
0
0
0
0
0
0
0
0
0
0
0
0
0
0
0
0
0
0
0
0
0
0
0
0
0
0
0
0
0
0
0
0
0
0
0
0
0
0
0
0
0
0
0
0
0
0
0
0
0
0
0
0
0
0
0
0
0
0
0
0
0
0
0
0
0
0
0
0
0
0
0
0
0
0
0
0
0
0
0
0
0
0
0
0
0
0
0
0
0
0
0
0
0
0
0
0
0
0
0
0
0
0
0
0
0
0
0
0
0
0
0
0
0
0
0
0
0
0
0
0
0
0
0
0
0
0
0
0
0
0
0
0
0
0
0
0
0
0
0
0
0
0
0
0
0
0
0
0
0
0
0
0
0
0
0
0
0
0
0
0
0
0
0
0
0
0
0
0
0
0
0
0
0
0
0
0
0
0
0
0
0
0
0
0
0
0
0
0
0
0
0
0
0
0
0
0
0
0
0
0
0
0
0
0
0
0
0
0
0
0
0
0
0
0
0
0
0
0
0
0
0
0
0
0
0
0
0
0
0
0
0
0
0
0
0
0
0
0
0
0
0
0
0
0
0
0
0
0
0
0
0
0
0
0
0
0
0
0
0
0
0
0
0
0
0
0
0
0
0
0
0
0
0
0
0
0
0
0
0
0
0
0
0
0
0
0
0
0
0
0
0
0
0
0
0
0
0
0
0
0
0
0
0
0
0
0
0
0
0
0
0
0
0
0
0
0
0
0
0.870498
0.933381
0.921463
0.914055
0.91063
0.908403
0.906582
0.905083
0.903842
0.902785
0.901864
0.901047
0.900315
0.899652
0.899047
0.898489
0.897974
0.897494
0.897045
0.896624
0.896227
0.895853
0.895498
0.89516
0.894839
0.894533
0.894241
0.893961
0.893693
0.893436
0.893189
0.892952
0.892724
0.892504
0.892292
0.892088
0.891891
0.891701
0.891518
0.89134
0.891169
0.891003
0.890843
0.890687
0.890537
0.890391
0.890249
0.890112
0.889979
0.889849
0.889724
0.889601
0.889482
0.889366
0.889252
0.889142
0.889033
0.888928
0.888824
0.888722
0.888623
0.888525
0.888428
0.888333
0.88824
0.888148
0.888057
0.887967
0.887879
0.887791
0.887704
0.887619
0.887534
0.887451
0.887369
0.887288
0.887208
0.88713
0.887053
0.886978
0.886906
0.886835
0.886766
0.8867
0.886637
0.886577
0.886521
0.886468
0.886418
0.886372
0.886331
0.886294
0.886261
0.886233
0.886209
0.88619
0.886176
0.886166
0.886161
0.88616
0.886163
0.88617
0.886181
0.886195
0.886213
0.886233
0.886256
0.886281
0.886308
0.886336
0.886366
0.886397
0.886428
0.88646
0.886491
0.886523
0.886554
0.886584
0.886614
0.886643
0.886671
0.886697
0.886723
0.886747
0.88677
0.886791
0.886812
0.88683
0.886848
0.886863
0.886878
0.886891
0.886903
0.886914
0.886924
0.886932
0.88694
0.886946
0.886951
0.886955
0.886959
0.886961
0.886963
0.886964
0.886964
0.886963
0.886962
0.88696
0.886957
0.886954
0.88695
0.886946
0.886941
0.886936
0.886931
0.886925
0.886919
0.886912
0.886905
0.886898
0.88689
0.886882
0.886874
0.886866
0.886857
0.886848
0.886839
0.88683
0.88682
0.886811
0.886801
0.886791
0.886781
0.886771
0.886761
0.88675
0.886739
0.886729
0.886718
0.886707
0.886696
0.886685
0.886673
0.886662
0.886651
0.886639
0.886627
0.886615
0.886604
0.886592
0.886579
0.886567
0.886555
0.886542
0.88653
0.886517
0.886504
0.886491
0.886478
0.886465
0.886452
0.886439
0.886425
0.886411
0.886397
0.886383
0.886369
0.886355
0.886341
0.886326
0.886311
0.886296
0.886281
0.886266
0.886251
0.886235
0.88622
0.886204
0.886188
0.886172
0.886156
0.886139
0.886123
0.886106
0.886089
0.886072
0.886055
0.886038
0.886021
0.886003
0.885986
0.885968
0.885951
0.885933
0.885915
0.885897
0.885879
0.885861
0.885843
0.885825
0.885806
0.885788
0.88577
0.885752
0.885734
0.885716
0.885697
0.885679
0.885661
0.885644
0.885626
0.885608
0.885591
0.885573
0.885556
0.885539
0.885522
0.885505
0.885489
0.885472
0.885456
0.885441
0.885425
0.88541
0.885395
0.885381
0.885367
0.885353
0.885339
0.885326
0.885314
0.885301
0.88529
0.885278
0.885268
0.885257
0.885248
0.885238
0.88523
0.885221
0.885214
0.885207
0.885201
0.885195
0.88519
0.885186
0.885182
0.885179
0.885177
0.885176
0.885176
0.885176
0.885177
0.885179
0.885182
0.885186
0.885191
0.885197
0.885204
0.885211
0.885221
0.885231
0.885242
0.885255
0.885269
0.885284
0.8853
0.885318
0.885338
0.885359
0.885381
0.885405
0.885431
0.885459
0.885489
0.88552
0.885553
0.885589
0.885626
0.885666
0.885708
0.885752
0.885799
0.885848
0.8859
0.885955
0.886012
0.886072
0.886135
0.886201
0.88627
0.886342
0.886417
0.886495
0.886577
0.886661
0.886749
0.88684
0.886935
0.887032
0.887133
0.887237
0.887344
0.887454
0.887566
0.887682
0.8878
0.88792
0.888042
0.888167
0.888292
0.888419
0.888547
0.888676
0.888805
0.888933
0.889061
0.889187
0.889312
0.889434
0.889553
0.889668
0.88978
0.889886
0.889987
0.890081
0.890169
0.890249
0.89032
0.890383
0.890436
0.890478
0.89051
0.890529
0.890537
0.890533
0.890515
0.890483
0.890438
0.890378
0.890303
0.890213
0.890108
0.889986
0.889847
0.88969
0.889512
0.889311
0.889081
0.888816
0.888507
0.888136
0.887657
0.886953
0.885916
0.884794
0.884119
0.880418
0.849064
0.756682
0
0
0.934225
0.927259
0.919809
0.915572
0.911934
0.909221
0.907197
0.905594
0.904262
0.90313
0.902151
0.901291
0.900524
0.899834
0.899206
0.89863
0.8981
0.897607
0.897148
0.896718
0.896313
0.895932
0.895571
0.895229
0.894903
0.894593
0.894297
0.894014
0.893743
0.893484
0.893234
0.892995
0.892765
0.892543
0.892329
0.892124
0.891925
0.891734
0.891549
0.89137
0.891197
0.89103
0.890869
0.890712
0.890561
0.890414
0.890272
0.890134
0.89
0.889869
0.889743
0.88962
0.8895
0.889383
0.889269
0.889158
0.889049
0.888943
0.888839
0.888737
0.888637
0.888539
0.888442
0.888347
0.888254
0.888161
0.88807
0.887981
0.887892
0.887804
0.887718
0.887632
0.887548
0.887465
0.887383
0.887302
0.887222
0.887144
0.887068
0.886993
0.88692
0.886849
0.886781
0.886715
0.886651
0.886591
0.886534
0.886481
0.886431
0.886385
0.886342
0.886305
0.886271
0.886242
0.886218
0.886198
0.886182
0.886171
0.886165
0.886163
0.886165
0.886171
0.886181
0.886194
0.886211
0.88623
0.886252
0.886276
0.886303
0.88633
0.88636
0.88639
0.886421
0.886452
0.886483
0.886514
0.886545
0.886576
0.886606
0.886634
0.886662
0.886689
0.886715
0.886739
0.886762
0.886784
0.886804
0.886823
0.88684
0.886857
0.886871
0.886885
0.886897
0.886908
0.886918
0.886927
0.886934
0.886941
0.886946
0.886951
0.886954
0.886957
0.886959
0.886959
0.88696
0.886959
0.886958
0.886956
0.886954
0.886951
0.886947
0.886943
0.886939
0.886934
0.886928
0.886922
0.886916
0.886909
0.886903
0.886895
0.886888
0.88688
0.886872
0.886863
0.886855
0.886846
0.886837
0.886828
0.886819
0.886809
0.886799
0.886789
0.886779
0.886769
0.886759
0.886748
0.886738
0.886727
0.886716
0.886705
0.886694
0.886683
0.886672
0.886661
0.886649
0.886638
0.886626
0.886614
0.886602
0.88659
0.886578
0.886566
0.886554
0.886541
0.886529
0.886516
0.886503
0.88649
0.886477
0.886464
0.886451
0.886438
0.886424
0.88641
0.886397
0.886383
0.886368
0.886354
0.88634
0.886325
0.886311
0.886296
0.886281
0.886266
0.88625
0.886235
0.886219
0.886203
0.886188
0.886171
0.886155
0.886139
0.886122
0.886106
0.886089
0.886072
0.886055
0.886038
0.886021
0.886003
0.885986
0.885968
0.885951
0.885933
0.885915
0.885897
0.885879
0.885861
0.885843
0.885825
0.885807
0.885788
0.88577
0.885752
0.885734
0.885716
0.885698
0.88568
0.885662
0.885644
0.885626
0.885609
0.885591
0.885574
0.885557
0.885539
0.885523
0.885506
0.885489
0.885473
0.885457
0.885442
0.885426
0.885411
0.885396
0.885382
0.885368
0.885354
0.88534
0.885327
0.885315
0.885303
0.885291
0.88528
0.885269
0.885259
0.885249
0.88524
0.885231
0.885223
0.885215
0.885208
0.885202
0.885197
0.885192
0.885187
0.885184
0.885181
0.885179
0.885178
0.885177
0.885177
0.885179
0.885181
0.885184
0.885188
0.885192
0.885198
0.885205
0.885213
0.885222
0.885232
0.885243
0.885256
0.88527
0.885285
0.885301
0.885319
0.885338
0.885359
0.885382
0.885406
0.885431
0.885459
0.885488
0.885519
0.885552
0.885587
0.885624
0.885664
0.885705
0.885749
0.885795
0.885844
0.885895
0.885949
0.886006
0.886065
0.886127
0.886192
0.88626
0.886331
0.886405
0.886482
0.886562
0.886645
0.886732
0.886821
0.886914
0.88701
0.887109
0.887211
0.887316
0.887424
0.887535
0.887648
0.887763
0.887881
0.888001
0.888123
0.888246
0.888371
0.888496
0.888622
0.888748
0.888873
0.888998
0.889121
0.889242
0.889361
0.889477
0.889589
0.889697
0.8898
0.889897
0.889988
0.890072
0.890149
0.890217
0.890275
0.890324
0.890362
0.890389
0.890404
0.890407
0.890397
0.890372
0.890334
0.89028
0.890211
0.890125
0.890022
0.889901
0.88976
0.889597
0.889411
0.889196
0.888949
0.888662
0.888321
0.887906
0.887382
0.886705
0.885835
0.884641
0.882479
0.87766
0.869695
0.862182
0.85115
0
0
0.93072
0.922094
0.919008
0.915288
0.911922
0.909422
0.907453
0.905833
0.904476
0.90332
0.90232
0.90144
0.900656
0.899952
0.899312
0.898726
0.898187
0.897687
0.897221
0.896785
0.896376
0.89599
0.895626
0.89528
0.894952
0.894639
0.89434
0.894055
0.893782
0.89352
0.893269
0.893028
0.892796
0.892573
0.892358
0.892151
0.891952
0.891759
0.891573
0.891393
0.89122
0.891052
0.890889
0.890732
0.89058
0.890432
0.890289
0.890151
0.890016
0.889885
0.889758
0.889634
0.889514
0.889397
0.889283
0.889171
0.889062
0.888956
0.888851
0.888749
0.888649
0.888551
0.888454
0.888359
0.888265
0.888173
0.888082
0.887992
0.887904
0.887816
0.88773
0.887644
0.88756
0.887477
0.887395
0.887314
0.887234
0.887156
0.88708
0.887005
0.886932
0.886861
0.886792
0.886726
0.886662
0.886601
0.886544
0.88649
0.886439
0.886392
0.886349
0.886311
0.886276
0.886246
0.886221
0.8862
0.886183
0.886172
0.886164
0.886161
0.886162
0.886168
0.886177
0.886189
0.886205
0.886224
0.886245
0.886269
0.886295
0.886322
0.886351
0.886381
0.886412
0.886443
0.886475
0.886506
0.886537
0.886567
0.886597
0.886626
0.886654
0.886681
0.886707
0.886731
0.886755
0.886777
0.886797
0.886816
0.886834
0.88685
0.886865
0.886879
0.886892
0.886903
0.886913
0.886922
0.886929
0.886936
0.886942
0.886946
0.88695
0.886953
0.886955
0.886956
0.886956
0.886956
0.886955
0.886953
0.886951
0.886948
0.886944
0.88694
0.886936
0.886931
0.886926
0.88692
0.886914
0.886907
0.8869
0.886893
0.886886
0.886878
0.88687
0.886861
0.886853
0.886844
0.886835
0.886826
0.886817
0.886807
0.886798
0.886788
0.886778
0.886768
0.886757
0.886747
0.886736
0.886726
0.886715
0.886704
0.886693
0.886682
0.886671
0.886659
0.886648
0.886636
0.886625
0.886613
0.886601
0.886589
0.886577
0.886565
0.886553
0.88654
0.886528
0.886515
0.886502
0.88649
0.886477
0.886463
0.88645
0.886437
0.886423
0.88641
0.886396
0.886382
0.886368
0.886354
0.886339
0.886325
0.88631
0.886295
0.88628
0.886265
0.88625
0.886235
0.886219
0.886203
0.886187
0.886171
0.886155
0.886139
0.886123
0.886106
0.886089
0.886072
0.886055
0.886038
0.886021
0.886004
0.885986
0.885969
0.885951
0.885933
0.885916
0.885898
0.88588
0.885862
0.885844
0.885826
0.885808
0.885789
0.885771
0.885753
0.885735
0.885717
0.885699
0.885681
0.885663
0.885645
0.885628
0.88561
0.885593
0.885575
0.885558
0.885541
0.885524
0.885508
0.885491
0.885475
0.885459
0.885443
0.885428
0.885413
0.885398
0.885384
0.88537
0.885356
0.885342
0.885329
0.885317
0.885305
0.885293
0.885282
0.885271
0.885261
0.885251
0.885242
0.885233
0.885225
0.885218
0.885211
0.885205
0.885199
0.885194
0.88519
0.885186
0.885184
0.885181
0.88518
0.88518
0.88518
0.885181
0.885183
0.885186
0.88519
0.885195
0.8852
0.885207
0.885215
0.885224
0.885234
0.885245
0.885258
0.885271
0.885286
0.885303
0.88532
0.885339
0.88536
0.885382
0.885406
0.885431
0.885458
0.885487
0.885518
0.88555
0.885585
0.885622
0.885661
0.885702
0.885745
0.88579
0.885838
0.885889
0.885942
0.885998
0.886056
0.886117
0.886181
0.886248
0.886318
0.886391
0.886466
0.886545
0.886627
0.886712
0.8868
0.886892
0.886986
0.887083
0.887184
0.887287
0.887393
0.887501
0.887613
0.887726
0.887842
0.88796
0.888079
0.8882
0.888322
0.888445
0.888568
0.888691
0.888814
0.888936
0.889057
0.889176
0.889292
0.889405
0.889515
0.88962
0.88972
0.889815
0.889903
0.889984
0.890057
0.890122
0.890177
0.890222
0.890257
0.89028
0.890291
0.890289
0.890274
0.890243
0.890198
0.890137
0.890059
0.889963
0.889847
0.889711
0.889553
0.889369
0.889157
0.888912
0.888626
0.88829
0.887889
0.887402
0.886797
0.886008
0.884924
0.883428
0.881432
0.878294
0.872405
0.868974
0.87424
0
0
0.921161
0.91884
0.916839
0.913779
0.911321
0.909189
0.907355
0.905811
0.904499
0.903366
0.902374
0.901497
0.900714
0.900008
0.899365
0.898777
0.898235
0.897733
0.897265
0.896827
0.896416
0.896028
0.895662
0.895314
0.894984
0.89467
0.89437
0.894083
0.893809
0.893546
0.893294
0.893052
0.892819
0.892595
0.892379
0.892171
0.891971
0.891778
0.891591
0.89141
0.891236
0.891068
0.890905
0.890747
0.890594
0.890446
0.890302
0.890163
0.890028
0.889897
0.88977
0.889646
0.889525
0.889408
0.889293
0.889181
0.889072
0.888966
0.888861
0.888759
0.888659
0.88856
0.888464
0.888369
0.888275
0.888183
0.888092
0.888002
0.887914
0.887826
0.88774
0.887655
0.88757
0.887487
0.887405
0.887324
0.887245
0.887166
0.887089
0.887014
0.886941
0.88687
0.8868
0.886733
0.886669
0.886608
0.88655
0.886495
0.886443
0.886395
0.886352
0.886312
0.886277
0.886245
0.886219
0.886197
0.88618
0.886167
0.886159
0.886155
0.886156
0.88616
0.886169
0.886181
0.886196
0.886215
0.886236
0.886259
0.886285
0.886313
0.886342
0.886372
0.886403
0.886434
0.886465
0.886497
0.886528
0.886559
0.886589
0.886618
0.886647
0.886674
0.8867
0.886725
0.886748
0.88677
0.886791
0.88681
0.886828
0.886845
0.88686
0.886874
0.886887
0.886898
0.886908
0.886917
0.886925
0.886932
0.886938
0.886942
0.886946
0.886949
0.886951
0.886952
0.886953
0.886953
0.886952
0.88695
0.886948
0.886945
0.886941
0.886938
0.886933
0.886928
0.886923
0.886917
0.886911
0.886905
0.886898
0.886891
0.886883
0.886876
0.886868
0.886859
0.886851
0.886842
0.886833
0.886824
0.886815
0.886806
0.886796
0.886786
0.886776
0.886766
0.886756
0.886745
0.886735
0.886724
0.886714
0.886703
0.886692
0.886681
0.88667
0.886658
0.886647
0.886635
0.886624
0.886612
0.8866
0.886588
0.886576
0.886564
0.886552
0.88654
0.886527
0.886514
0.886502
0.886489
0.886476
0.886463
0.88645
0.886436
0.886423
0.886409
0.886396
0.886382
0.886368
0.886354
0.886339
0.886325
0.88631
0.886295
0.88628
0.886265
0.88625
0.886235
0.886219
0.886204
0.886188
0.886172
0.886156
0.88614
0.886123
0.886107
0.88609
0.886073
0.886056
0.886039
0.886022
0.886005
0.885987
0.88597
0.885952
0.885935
0.885917
0.885899
0.885881
0.885863
0.885845
0.885827
0.885809
0.885791
0.885773
0.885755
0.885737
0.885719
0.885701
0.885683
0.885665
0.885648
0.88563
0.885612
0.885595
0.885578
0.885561
0.885544
0.885527
0.88551
0.885494
0.885478
0.885462
0.885446
0.885431
0.885416
0.885401
0.885387
0.885373
0.885359
0.885346
0.885333
0.88532
0.885308
0.885296
0.885285
0.885274
0.885264
0.885255
0.885245
0.885237
0.885229
0.885221
0.885214
0.885208
0.885203
0.885198
0.885193
0.88519
0.885187
0.885185
0.885184
0.885183
0.885183
0.885184
0.885186
0.885189
0.885193
0.885198
0.885203
0.88521
0.885218
0.885227
0.885236
0.885248
0.88526
0.885273
0.885288
0.885304
0.885321
0.88534
0.885361
0.885382
0.885406
0.885431
0.885457
0.885486
0.885516
0.885548
0.885582
0.885619
0.885657
0.885697
0.88574
0.885785
0.885832
0.885882
0.885934
0.885989
0.886046
0.886106
0.886169
0.886235
0.886304
0.886375
0.88645
0.886527
0.886608
0.886691
0.886778
0.886868
0.88696
0.887056
0.887155
0.887256
0.88736
0.887467
0.887576
0.887688
0.887802
0.887917
0.888035
0.888154
0.888274
0.888394
0.888515
0.888637
0.888757
0.888877
0.888996
0.889112
0.889226
0.889337
0.889444
0.889547
0.889645
0.889737
0.889823
0.889902
0.889973
0.890035
0.890088
0.89013
0.890162
0.890182
0.890189
0.890183
0.890163
0.890127
0.890076
0.890008
0.889922
0.889817
0.889692
0.889544
0.889371
0.889171
0.888939
0.888671
0.88836
0.887994
0.887561
0.887037
0.886395
0.885599
0.884588
0.883212
0.881316
0.87928
0.877452
0.875901
0.878378
0
0
0.915447
0.915451
0.913943
0.912114
0.910318
0.908542
0.906961
0.905573
0.904351
0.903274
0.902318
0.901465
0.900698
0.900002
0.899367
0.898784
0.898245
0.897745
0.897279
0.896842
0.896431
0.896044
0.895678
0.895331
0.895
0.894686
0.894386
0.894099
0.893824
0.893561
0.893309
0.893066
0.892833
0.892608
0.892392
0.892184
0.891983
0.891789
0.891602
0.891421
0.891246
0.891077
0.890914
0.890756
0.890603
0.890454
0.890311
0.890171
0.890036
0.889905
0.889777
0.889653
0.889532
0.889415
0.8893
0.889188
0.889079
0.888973
0.888868
0.888766
0.888666
0.888568
0.888471
0.888376
0.888283
0.888191
0.8881
0.888011
0.887922
0.887835
0.887749
0.887663
0.887579
0.887496
0.887414
0.887333
0.887253
0.887174
0.887097
0.887021
0.886948
0.886876
0.886806
0.886738
0.886673
0.886611
0.886552
0.886496
0.886443
0.886394
0.886349
0.886309
0.886272
0.88624
0.886213
0.88619
0.886172
0.886158
0.886149
0.886145
0.886145
0.886149
0.886157
0.886169
0.886184
0.886202
0.886224
0.886248
0.886274
0.886301
0.886331
0.886361
0.886392
0.886424
0.886456
0.886488
0.88652
0.886551
0.886581
0.886611
0.88664
0.886667
0.886694
0.886719
0.886742
0.886765
0.886786
0.886805
0.886824
0.88684
0.886856
0.88687
0.886883
0.886894
0.886905
0.886914
0.886922
0.886928
0.886934
0.886939
0.886943
0.886946
0.886948
0.886949
0.88695
0.88695
0.886949
0.886947
0.886945
0.886942
0.886939
0.886935
0.886931
0.886926
0.886921
0.886915
0.886909
0.886902
0.886896
0.886889
0.886881
0.886874
0.886866
0.886857
0.886849
0.88684
0.886832
0.886823
0.886813
0.886804
0.886794
0.886784
0.886775
0.886765
0.886754
0.886744
0.886734
0.886723
0.886712
0.886702
0.886691
0.88668
0.886668
0.886657
0.886646
0.886634
0.886623
0.886611
0.886599
0.886588
0.886576
0.886563
0.886551
0.886539
0.886527
0.886514
0.886501
0.886489
0.886476
0.886463
0.88645
0.886436
0.886423
0.886409
0.886396
0.886382
0.886368
0.886354
0.886339
0.886325
0.88631
0.886296
0.886281
0.886266
0.886251
0.886235
0.88622
0.886204
0.886189
0.886173
0.886157
0.886141
0.886124
0.886108
0.886091
0.886074
0.886058
0.886041
0.886024
0.886006
0.885989
0.885972
0.885954
0.885936
0.885919
0.885901
0.885883
0.885865
0.885847
0.88583
0.885812
0.885794
0.885776
0.885758
0.88574
0.885722
0.885704
0.885686
0.885668
0.885651
0.885633
0.885615
0.885598
0.885581
0.885564
0.885547
0.88553
0.885514
0.885497
0.885481
0.885465
0.88545
0.885435
0.88542
0.885405
0.885391
0.885377
0.885363
0.88535
0.885337
0.885324
0.885312
0.885301
0.885289
0.885279
0.885269
0.885259
0.88525
0.885241
0.885233
0.885226
0.885219
0.885213
0.885207
0.885202
0.885198
0.885194
0.885191
0.885189
0.885188
0.885187
0.885187
0.885189
0.88519
0.885193
0.885197
0.885201
0.885207
0.885214
0.885221
0.88523
0.885239
0.88525
0.885262
0.885276
0.88529
0.885306
0.885323
0.885341
0.885361
0.885383
0.885406
0.88543
0.885457
0.885485
0.885514
0.885546
0.88558
0.885615
0.885653
0.885692
0.885734
0.885778
0.885825
0.885873
0.885925
0.885979
0.886035
0.886094
0.886156
0.886221
0.886288
0.886358
0.886432
0.886508
0.886587
0.886669
0.886754
0.886842
0.886934
0.887028
0.887125
0.887224
0.887327
0.887432
0.887539
0.887649
0.887761
0.887875
0.88799
0.888107
0.888225
0.888344
0.888463
0.888583
0.888702
0.88882
0.888936
0.889051
0.889163
0.889272
0.889378
0.889479
0.889575
0.889665
0.889749
0.889826
0.889895
0.889955
0.890005
0.890046
0.890075
0.890092
0.890096
0.890086
0.890062
0.890023
0.889967
0.889893
0.889801
0.889689
0.889556
0.889399
0.889216
0.889005
0.888762
0.888482
0.888158
0.887782
0.887343
0.886826
0.886208
0.88546
0.884558
0.8835
0.882245
0.880898
0.88019
0.879964
0.880614
0
0
0.912174
0.912296
0.911468
0.910396
0.909049
0.907675
0.906371
0.905159
0.904057
0.903063
0.902165
0.901352
0.900613
0.899938
0.899319
0.898747
0.898218
0.897724
0.897263
0.896831
0.896424
0.896039
0.895675
0.89533
0.895001
0.894687
0.894388
0.894102
0.893828
0.893565
0.893313
0.89307
0.892837
0.892612
0.892396
0.892188
0.891987
0.891793
0.891606
0.891425
0.89125
0.891081
0.890918
0.89076
0.890606
0.890458
0.890314
0.890175
0.89004
0.889908
0.889781
0.889657
0.889536
0.889419
0.889304
0.889192
0.889084
0.888977
0.888873
0.888771
0.888671
0.888573
0.888477
0.888382
0.888289
0.888197
0.888106
0.888017
0.887929
0.887842
0.887755
0.88767
0.887586
0.887503
0.88742
0.887339
0.887259
0.88718
0.887102
0.887026
0.886952
0.886879
0.886808
0.88674
0.886674
0.88661
0.88655
0.886493
0.886439
0.886389
0.886343
0.886301
0.886263
0.88623
0.886201
0.886177
0.886158
0.886144
0.886135
0.88613
0.886129
0.886133
0.886141
0.886153
0.886169
0.886187
0.886209
0.886233
0.88626
0.886288
0.886318
0.886349
0.886381
0.886413
0.886446
0.886479
0.886511
0.886543
0.886574
0.886604
0.886633
0.886661
0.886688
0.886713
0.886737
0.88676
0.886781
0.886801
0.88682
0.886836
0.886852
0.886866
0.886879
0.886891
0.886901
0.88691
0.886918
0.886925
0.886931
0.886936
0.88694
0.886943
0.886945
0.886946
0.886947
0.886947
0.886946
0.886944
0.886942
0.88694
0.886936
0.886932
0.886928
0.886923
0.886918
0.886913
0.886907
0.8869
0.886894
0.886887
0.886879
0.886872
0.886864
0.886856
0.886847
0.886839
0.88683
0.886821
0.886812
0.886802
0.886793
0.886783
0.886773
0.886763
0.886753
0.886743
0.886732
0.886722
0.886711
0.8867
0.88669
0.886679
0.886667
0.886656
0.886645
0.886634
0.886622
0.88661
0.886599
0.886587
0.886575
0.886563
0.886551
0.886539
0.886526
0.886514
0.886501
0.886488
0.886476
0.886463
0.88645
0.886436
0.886423
0.886409
0.886396
0.886382
0.886368
0.886354
0.88634
0.886326
0.886311
0.886296
0.886282
0.886267
0.886252
0.886236
0.886221
0.886206
0.88619
0.886174
0.886158
0.886142
0.886126
0.886109
0.886093
0.886076
0.886059
0.886043
0.886026
0.886008
0.885991
0.885974
0.885956
0.885939
0.885921
0.885904
0.885886
0.885868
0.88585
0.885832
0.885815
0.885797
0.885779
0.885761
0.885743
0.885725
0.885707
0.88569
0.885672
0.885654
0.885637
0.885619
0.885602
0.885585
0.885568
0.885551
0.885535
0.885518
0.885502
0.885486
0.88547
0.885455
0.885439
0.885424
0.88541
0.885395
0.885382
0.885368
0.885355
0.885342
0.885329
0.885317
0.885306
0.885295
0.885284
0.885274
0.885264
0.885255
0.885247
0.885239
0.885231
0.885224
0.885218
0.885212
0.885207
0.885203
0.8852
0.885197
0.885194
0.885193
0.885192
0.885192
0.885193
0.885195
0.885198
0.885201
0.885206
0.885211
0.885218
0.885225
0.885233
0.885243
0.885254
0.885265
0.885278
0.885292
0.885308
0.885325
0.885343
0.885362
0.885383
0.885406
0.88543
0.885456
0.885483
0.885512
0.885543
0.885576
0.885611
0.885648
0.885687
0.885728
0.885771
0.885817
0.885865
0.885915
0.885968
0.886023
0.886081
0.886142
0.886205
0.886271
0.88634
0.886412
0.886487
0.886565
0.886646
0.886729
0.886816
0.886906
0.886998
0.887093
0.887191
0.887292
0.887396
0.887501
0.88761
0.88772
0.887832
0.887946
0.888061
0.888177
0.888295
0.888412
0.88853
0.888647
0.888764
0.888879
0.888992
0.889103
0.88921
0.889314
0.889414
0.889509
0.889597
0.88968
0.889755
0.889822
0.889881
0.889929
0.889967
0.889994
0.890009
0.890011
0.889999
0.889971
0.889929
0.889869
0.889791
0.889695
0.889578
0.889439
0.889277
0.889089
0.888873
0.888626
0.888343
0.888021
0.887652
0.887229
0.886743
0.886185
0.885543
0.884807
0.883998
0.883205
0.882474
0.882034
0.882171
0.882659
0
0
0.909775
0.909808
0.909418
0.908705
0.907746
0.906709
0.905648
0.90462
0.903653
0.902755
0.901927
0.901166
0.900466
0.899821
0.899224
0.89867
0.898154
0.897672
0.89722
0.896795
0.896393
0.896014
0.895653
0.895311
0.894985
0.894674
0.894376
0.894092
0.893819
0.893557
0.893306
0.893064
0.892832
0.892608
0.892392
0.892184
0.891984
0.89179
0.891603
0.891422
0.891248
0.891079
0.890916
0.890758
0.890605
0.890457
0.890313
0.890174
0.890039
0.889907
0.88978
0.889656
0.889536
0.889419
0.889305
0.889193
0.889085
0.888978
0.888875
0.888773
0.888674
0.888576
0.88848
0.888385
0.888293
0.888201
0.888111
0.888022
0.887934
0.887847
0.887761
0.887675
0.887591
0.887508
0.887425
0.887344
0.887263
0.887184
0.887106
0.887029
0.886953
0.88688
0.886808
0.886738
0.886671
0.886606
0.886545
0.886486
0.886431
0.886379
0.886332
0.886288
0.886249
0.886215
0.886185
0.88616
0.886141
0.886126
0.886116
0.88611
0.88611
0.886114
0.886122
0.886134
0.88615
0.886169
0.886192
0.886217
0.886244
0.886273
0.886304
0.886336
0.886369
0.886402
0.886436
0.886469
0.886502
0.886535
0.886567
0.886597
0.886627
0.886656
0.886683
0.886709
0.886733
0.886756
0.886778
0.886798
0.886816
0.886833
0.886849
0.886863
0.886876
0.886888
0.886898
0.886908
0.886916
0.886923
0.886929
0.886933
0.886937
0.88694
0.886943
0.886944
0.886945
0.886944
0.886944
0.886942
0.88694
0.886937
0.886934
0.88693
0.886926
0.886921
0.886916
0.88691
0.886904
0.886898
0.886891
0.886884
0.886877
0.88687
0.886862
0.886854
0.886845
0.886837
0.886828
0.886819
0.88681
0.886801
0.886791
0.886781
0.886772
0.886762
0.886752
0.886741
0.886731
0.886721
0.88671
0.886699
0.886689
0.886678
0.886667
0.886655
0.886644
0.886633
0.886621
0.88661
0.886598
0.886586
0.886575
0.886563
0.886551
0.886538
0.886526
0.886514
0.886501
0.886488
0.886476
0.886463
0.88645
0.886437
0.886423
0.88641
0.886396
0.886383
0.886369
0.886355
0.886341
0.886327
0.886312
0.886298
0.886283
0.886268
0.886253
0.886238
0.886223
0.886207
0.886192
0.886176
0.88616
0.886144
0.886128
0.886112
0.886095
0.886079
0.886062
0.886045
0.886028
0.886011
0.885994
0.885977
0.885959
0.885942
0.885925
0.885907
0.885889
0.885872
0.885854
0.885836
0.885818
0.885801
0.885783
0.885765
0.885747
0.885729
0.885712
0.885694
0.885676
0.885659
0.885641
0.885624
0.885607
0.88559
0.885573
0.885556
0.88554
0.885523
0.885507
0.885491
0.885476
0.88546
0.885445
0.88543
0.885416
0.885401
0.885387
0.885374
0.885361
0.885348
0.885336
0.885324
0.885312
0.885301
0.88529
0.88528
0.885271
0.885262
0.885253
0.885245
0.885238
0.885231
0.885224
0.885219
0.885214
0.885209
0.885206
0.885203
0.885201
0.885199
0.885198
0.885198
0.885199
0.885201
0.885203
0.885207
0.885211
0.885216
0.885222
0.88523
0.885238
0.885247
0.885257
0.885269
0.885282
0.885295
0.88531
0.885327
0.885345
0.885364
0.885384
0.885406
0.88543
0.885455
0.885482
0.88551
0.885541
0.885573
0.885607
0.885643
0.885681
0.885721
0.885764
0.885808
0.885855
0.885904
0.885956
0.88601
0.886067
0.886127
0.886189
0.886254
0.886322
0.886392
0.886466
0.886542
0.886621
0.886704
0.886789
0.886877
0.886968
0.887061
0.887158
0.887257
0.887359
0.887463
0.88757
0.887678
0.887789
0.887901
0.888015
0.88813
0.888245
0.888362
0.888478
0.888594
0.888709
0.888822
0.888934
0.889044
0.88915
0.889253
0.889351
0.889445
0.889532
0.889614
0.889688
0.889753
0.88981
0.889858
0.889894
0.889919
0.889932
0.889932
0.889918
0.889888
0.889843
0.889781
0.889701
0.889601
0.889482
0.889341
0.889176
0.888988
0.888772
0.888527
0.888251
0.88794
0.887591
0.887199
0.886762
0.886275
0.885743
0.885176
0.884593
0.884058
0.883665
0.883451
0.88361
0.884134
0
0
0.907792
0.907858
0.907658
0.907171
0.9065
0.90571
0.904861
0.904005
0.90317
0.902374
0.901623
0.900921
0.900267
0.899657
0.899088
0.898556
0.898058
0.89759
0.89715
0.896734
0.896341
0.895968
0.895613
0.895276
0.894953
0.894646
0.894351
0.894069
0.893798
0.893539
0.893289
0.893049
0.892817
0.892594
0.89238
0.892172
0.891973
0.89178
0.891593
0.891413
0.891239
0.891071
0.890908
0.89075
0.890598
0.89045
0.890307
0.890168
0.890033
0.889902
0.889776
0.889652
0.889532
0.889415
0.889302
0.889191
0.889083
0.888977
0.888874
0.888772
0.888673
0.888576
0.888481
0.888387
0.888294
0.888203
0.888113
0.888024
0.887937
0.88785
0.887764
0.887679
0.887595
0.887511
0.887428
0.887346
0.887265
0.887185
0.887107
0.887029
0.886953
0.886878
0.886805
0.886734
0.886665
0.886599
0.886536
0.886475
0.886419
0.886366
0.886316
0.886272
0.886231
0.886195
0.886165
0.886139
0.886118
0.886102
0.886092
0.886086
0.886086
0.88609
0.886099
0.886111
0.886128
0.886148
0.886172
0.886198
0.886226
0.886257
0.886289
0.886322
0.886356
0.88639
0.886425
0.88646
0.886494
0.886527
0.88656
0.886591
0.886622
0.886651
0.886678
0.886705
0.88673
0.886753
0.886775
0.886795
0.886814
0.886831
0.886847
0.886861
0.886874
0.886886
0.886896
0.886905
0.886914
0.88692
0.886926
0.886931
0.886935
0.886938
0.88694
0.886942
0.886942
0.886942
0.886941
0.88694
0.886938
0.886935
0.886932
0.886928
0.886924
0.886919
0.886914
0.886908
0.886902
0.886896
0.886889
0.886882
0.886875
0.886868
0.88686
0.886852
0.886844
0.886835
0.886826
0.886817
0.886808
0.886799
0.88679
0.88678
0.88677
0.88676
0.88675
0.88674
0.88673
0.88672
0.886709
0.886698
0.886688
0.886677
0.886666
0.886655
0.886644
0.886632
0.886621
0.886609
0.886598
0.886586
0.886574
0.886562
0.886551
0.886538
0.886526
0.886514
0.886501
0.886489
0.886476
0.886463
0.88645
0.886437
0.886424
0.886411
0.886397
0.886384
0.88637
0.886356
0.886342
0.886328
0.886314
0.886299
0.886285
0.88627
0.886255
0.88624
0.886225
0.886209
0.886194
0.886178
0.886162
0.886146
0.88613
0.886114
0.886098
0.886081
0.886065
0.886048
0.886031
0.886014
0.885997
0.88598
0.885963
0.885946
0.885928
0.885911
0.885893
0.885876
0.885858
0.885841
0.885823
0.885805
0.885787
0.88577
0.885752
0.885734
0.885717
0.885699
0.885682
0.885664
0.885647
0.88563
0.885613
0.885596
0.885579
0.885562
0.885546
0.88553
0.885513
0.885498
0.885482
0.885467
0.885452
0.885437
0.885422
0.885408
0.885394
0.885381
0.885368
0.885355
0.885343
0.885331
0.885319
0.885308
0.885298
0.885288
0.885278
0.885269
0.88526
0.885252
0.885245
0.885238
0.885232
0.885226
0.885221
0.885217
0.885213
0.88521
0.885208
0.885206
0.885205
0.885205
0.885206
0.885207
0.88521
0.885213
0.885217
0.885222
0.885228
0.885235
0.885243
0.885252
0.885262
0.885273
0.885285
0.885299
0.885313
0.885329
0.885347
0.885365
0.885385
0.885407
0.88543
0.885454
0.885481
0.885508
0.885538
0.88557
0.885603
0.885638
0.885675
0.885715
0.885756
0.8858
0.885845
0.885894
0.885944
0.885997
0.886053
0.886111
0.886172
0.886236
0.886302
0.886372
0.886444
0.886519
0.886596
0.886677
0.886761
0.886847
0.886937
0.887029
0.887124
0.887222
0.887322
0.887425
0.88753
0.887637
0.887746
0.887857
0.887969
0.888082
0.888197
0.888311
0.888426
0.888541
0.888655
0.888767
0.888878
0.888986
0.889092
0.889193
0.889291
0.889383
0.88947
0.88955
0.889623
0.889687
0.889743
0.889789
0.889825
0.889849
0.88986
0.889859
0.889843
0.889812
0.889765
0.889701
0.88962
0.889519
0.889399
0.889258
0.889095
0.888909
0.888698
0.888462
0.888198
0.887905
0.887582
0.887229
0.886845
0.886434
0.886002
0.885568
0.885155
0.8848
0.884568
0.884506
0.884668
0.885119
0
0
0.906144
0.906254
0.906141
0.905816
0.905334
0.904731
0.904057
0.90335
0.902638
0.90194
0.901268
0.900628
0.900023
0.899452
0.898915
0.898408
0.897931
0.897481
0.897054
0.896651
0.896267
0.895903
0.895555
0.895224
0.894907
0.894603
0.894313
0.894034
0.893766
0.893509
0.893261
0.893023
0.892793
0.892572
0.892359
0.892153
0.891954
0.891762
0.891577
0.891397
0.891224
0.891056
0.890894
0.890737
0.890585
0.890438
0.890296
0.890157
0.890023
0.889893
0.889767
0.889644
0.889525
0.889408
0.889295
0.889185
0.889077
0.888972
0.88887