# vtk DataFile Version 2.0
LBE mesh
ASCII
DATASET STRUCTURED_POINTS
DIMENSIONS 402 102 1
ASPECT_RATIO 1 1 1
ORIGIN 0 0 0
POINT_DATA 41004
SCALARS rho double 1
LOOKUP_TABLE default
0
0
0
0
0
0
0
0
0
0
0
0
0
0
0
0
0
0
0
0
0
0
0
0
0
0
0
0
0
0
0
0
0
0
0
0
0
0
0
0
0
0
0
0
0
0
0
0
0
0
0
0
0
0
0
0
0
0
0
0
0
0
0
0
0
0
0
0
0
0
0
0
0
0
0
0
0
0
0
0
0
0
0
0
0
0
0
0
0
0
0
0
0
0
0
0
0
0
0
0
0
0
0
0
0
0
0
0
0
0
0
0
0
0
0
0
0
0
0
0
0
0
0
0
0
0
0
0
0
0
0
0
0
0
0
0
0
0
0
0
0
0
0
0
0
0
0
0
0
0
0
0
0
0
0
0
0
0
0
0
0
0
0
0
0
0
0
0
0
0
0
0
0
0
0
0
0
0
0
0
0
0
0
0
0
0
0
0
0
0
0
0
0
0
0
0
0
0
0
0
0
0
0
0
0
0
0
0
0
0
0
0
0
0
0
0
0
0
0
0
0
0
0
0
0
0
0
0
0
0
0
0
0
0
0
0
0
0
0
0
0
0
0
0
0
0
0
0
0
0
0
0
0
0
0
0
0
0
0
0
0
0
0
0
0
0
0
0
0
0
0
0
0
0
0
0
0
0
0
0
0
0
0
0
0
0
0
0
0
0
0
0
0
0
0
0
0
0
0
0
0
0
0
0
0
0
0
0
0
0
0
0
0
0
0
0
0
0
0
0
0
0
0
0
0
0
0
0
0
0
0
0
0
0
0
0
0
0
0
0
0
0
0
0
0
0
0
0
0
0
0
0
0
0
0
0
0
0
0
0
0
0
0
0
0
0
0
0
0
0
0
0
0
0
0
0
0
0
0
0
0
0
0
0
0
0
0
0
0
0
0
0
0
0
0
0
0
0
0
0
0
0
0
0.914979
0.981074
0.968542
0.960751
0.957145
0.954798
0.952875
0.951291
0.949975
0.948852
0.94787
0.946999
0.946215
0.945504
0.944854
0.944256
0.943702
0.943187
0.942707
0.942258
0.941837
0.941441
0.941069
0.940717
0.940386
0.940073
0.939777
0.939498
0.939233
0.938983
0.938746
0.938522
0.938309
0.938108
0.937918
0.937737
0.937566
0.937404
0.937251
0.937106
0.936968
0.936837
0.936712
0.936594
0.936482
0.936375
0.936273
0.936175
0.936082
0.935992
0.935906
0.935823
0.935743
0.935665
0.93559
0.935517
0.935445
0.935374
0.935304
0.935236
0.935168
0.9351
0.935032
0.934965
0.934897
0.934829
0.934761
0.934692
0.934622
0.934552
0.934481
0.934409
0.934336
0.934263
0.934189
0.934115
0.93404
0.933965
0.93389
0.933815
0.93374
0.933665
0.933592
0.933519
0.933448
0.933378
0.93331
0.933244
0.933181
0.93312
0.933063
0.933008
0.932957
0.932909
0.932865
0.932825
0.932788
0.932756
0.932727
0.932702
0.932681
0.932663
0.932649
0.932638
0.93263
0.932624
0.932621
0.932621
0.932622
0.932625
0.93263
0.932635
0.932642
0.932649
0.932656
0.932664
0.932672
0.932679
0.932686
0.932693
0.932699
0.932704
0.932709
0.932713
0.932715
0.932717
0.932718
0.932718
0.932717
0.932715
0.932712
0.932709
0.932704
0.932698
0.932691
0.932684
0.932676
0.932667
0.932657
0.932646
0.932635
0.932623
0.93261
0.932597
0.932583
0.932569
0.932554
0.932538
0.932522
0.932506
0.932489
0.932472
0.932454
0.932437
0.932418
0.9324
0.932381
0.932362
0.932343
0.932324
0.932304
0.932284
0.932265
0.932245
0.932225
0.932205
0.932185
0.932164
0.932144
0.932124
0.932104
0.932084
0.932064
0.932043
0.932023
0.932003
0.931983
0.931963
0.931943
0.931922
0.931902
0.931882
0.931862
0.931842
0.931821
0.931801
0.93178
0.931759
0.931739
0.931718
0.931696
0.931675
0.931653
0.931631
0.931609
0.931587
0.931564
0.93154
0.931517
0.931493
0.931468
0.931443
0.931418
0.931391
0.931365
0.931337
0.93131
0.931281
0.931252
0.931222
0.931191
0.93116
0.931128
0.931095
0.931061
0.931027
0.930992
0.930956
0.930919
0.930882
0.930844
0.930805
0.930765
0.930724
0.930683
0.930641
0.930598
0.930555
0.930511
0.930466
0.930421
0.930375
0.930329
0.930282
0.930235
0.930187
0.930139
0.930091
0.930043
0.929994
0.929945
0.929897
0.929848
0.929799
0.929751
0.929702
0.929654
0.929606
0.929559
0.929512
0.929465
0.929419
0.929373
0.929328
0.929284
0.929241
0.929198
0.929156
0.929115
0.929075
0.929036
0.928998
0.928961
0.928925
0.92889
0.928856
0.928823
0.928792
0.928761
0.928732
0.928703
0.928676
0.92865
0.928624
0.9286
0.928577
0.928555
0.928534
0.928514
0.928494
0.928476
0.928458
0.928442
0.928425
0.92841
0.928395
0.928381
0.928368
0.928354
0.928342
0.92833
0.928318
0.928307
0.928295
0.928285
0.928274
0.928264
0.928253
0.928243
0.928233
0.928224
0.928214
0.928204
0.928195
0.928185
0.928176
0.928166
0.928157
0.928148
0.928139
0.92813
0.928121
0.928112
0.928104
0.928096
0.928088
0.928081
0.928073
0.928067
0.928061
0.928055
0.92805
0.928045
0.928042
0.928039
0.928037
0.928036
0.928035
0.928036
0.928038
0.928041
0.928046
0.928052
0.928059
0.928067
0.928077
0.928089
0.928102
0.928117
0.928133
0.928151
0.928171
0.928192
0.928215
0.92824
0.928267
0.928295
0.928324
0.928355
0.928387
0.928421
0.928456
0.928491
0.928528
0.928565
0.928602
0.92864
0.928678
0.928715
0.928751
0.928787
0.928821
0.928854
0.928885
0.928913
0.928939
0.928961
0.92898
0.928995
0.929005
0.929011
0.929011
0.929006
0.928994
0.928976
0.92895
0.928918
0.928877
0.928828
0.928769
0.928702
0.928624
0.928535
0.928434
0.928319
0.928189
0.92804
0.927869
0.92767
0.927434
0.92715
0.9268
0.926332
0.925625
0.924563
0.923404
0.922704
0.918837
0.886108
0.789694
0
0
0.981963
0.974639
0.966805
0.962347
0.958518
0.955659
0.953524
0.95183
0.95042
0.949219
0.948177
0.94726
0.94644
0.945701
0.945027
0.94441
0.94384
0.943313
0.942821
0.942363
0.941933
0.94153
0.941151
0.940794
0.940457
0.940139
0.939839
0.939556
0.939287
0.939034
0.938794
0.938566
0.938351
0.938148
0.937955
0.937772
0.937599
0.937435
0.93728
0.937132
0.936993
0.93686
0.936734
0.936615
0.936501
0.936393
0.93629
0.936191
0.936097
0.936006
0.935919
0.935836
0.935755
0.935676
0.9356
0.935526
0.935454
0.935383
0.935313
0.935244
0.935176
0.935108
0.93504
0.934973
0.934905
0.934837
0.934769
0.9347
0.93463
0.93456
0.934489
0.934418
0.934346
0.934273
0.934199
0.934125
0.934051
0.933976
0.933901
0.933826
0.933752
0.933678
0.933604
0.933532
0.93346
0.933391
0.933322
0.933257
0.933193
0.933132
0.933074
0.933019
0.932967
0.932918
0.932874
0.932833
0.932795
0.932762
0.932732
0.932706
0.932684
0.932665
0.93265
0.932638
0.932629
0.932623
0.932619
0.932618
0.932619
0.932621
0.932625
0.93263
0.932636
0.932643
0.93265
0.932658
0.932665
0.932672
0.932679
0.932686
0.932692
0.932698
0.932702
0.932706
0.932709
0.932711
0.932712
0.932712
0.932712
0.93271
0.932707
0.932704
0.932699
0.932693
0.932687
0.93268
0.932672
0.932663
0.932653
0.932643
0.932632
0.93262
0.932607
0.932594
0.932581
0.932566
0.932552
0.932536
0.93252
0.932504
0.932488
0.932471
0.932453
0.932435
0.932417
0.932399
0.93238
0.932362
0.932343
0.932323
0.932304
0.932284
0.932265
0.932245
0.932225
0.932205
0.932185
0.932165
0.932145
0.932125
0.932104
0.932084
0.932064
0.932044
0.932024
0.932004
0.931984
0.931964
0.931943
0.931923
0.931903
0.931883
0.931863
0.931842
0.931822
0.931802
0.931781
0.93176
0.931739
0.931718
0.931697
0.931676
0.931654
0.931632
0.93161
0.931587
0.931564
0.931541
0.931517
0.931493
0.931469
0.931444
0.931418
0.931392
0.931365
0.931338
0.93131
0.931281
0.931252
0.931222
0.931192
0.93116
0.931128
0.931095
0.931062
0.931028
0.930992
0.930957
0.93092
0.930882
0.930844
0.930805
0.930765
0.930725
0.930684
0.930642
0.930599
0.930556
0.930512
0.930467
0.930422
0.930376
0.93033
0.930283
0.930236
0.930188
0.930141
0.930092
0.930044
0.929996
0.929947
0.929898
0.92985
0.929801
0.929752
0.929704
0.929656
0.929608
0.92956
0.929513
0.929467
0.929421
0.929375
0.92933
0.929286
0.929243
0.9292
0.929158
0.929117
0.929077
0.929038
0.929
0.928962
0.928926
0.928891
0.928857
0.928824
0.928793
0.928762
0.928732
0.928704
0.928676
0.92865
0.928624
0.9286
0.928577
0.928555
0.928533
0.928513
0.928493
0.928475
0.928457
0.92844
0.928424
0.928408
0.928393
0.928379
0.928365
0.928352
0.928339
0.928327
0.928315
0.928303
0.928292
0.928281
0.92827
0.928259
0.928249
0.928239
0.928229
0.928219
0.928209
0.928199
0.928189
0.928179
0.92817
0.92816
0.92815
0.928141
0.928132
0.928123
0.928114
0.928105
0.928096
0.928088
0.928079
0.928072
0.928064
0.928057
0.928051
0.928045
0.928039
0.928034
0.92803
0.928027
0.928024
0.928023
0.928022
0.928022
0.928024
0.928026
0.92803
0.928035
0.928041
0.928049
0.928058
0.928069
0.928081
0.928095
0.92811
0.928127
0.928146
0.928166
0.928188
0.928211
0.928236
0.928263
0.928291
0.92832
0.928351
0.928383
0.928416
0.928449
0.928484
0.928519
0.928554
0.92859
0.928625
0.92866
0.928694
0.928727
0.928759
0.928789
0.928816
0.928842
0.928864
0.928883
0.928898
0.928909
0.928916
0.928917
0.928912
0.928902
0.928885
0.92886
0.928828
0.928788
0.928738
0.928679
0.928609
0.928529
0.928435
0.928328
0.928204
0.928063
0.927901
0.927712
0.927491
0.927229
0.926912
0.926517
0.926005
0.92533
0.924449
0.923223
0.920979
0.915955
0.90764
0.899793
0.888277
0
0
0.978279
0.969211
0.965965
0.96205
0.958509
0.955875
0.953798
0.952086
0.950649
0.949424
0.94836
0.947422
0.946585
0.94583
0.945144
0.944516
0.943937
0.943401
0.942903
0.942438
0.942003
0.941595
0.941211
0.94085
0.94051
0.940189
0.939885
0.939599
0.939328
0.939072
0.938829
0.9386
0.938383
0.938177
0.937982
0.937798
0.937623
0.937458
0.937301
0.937153
0.937012
0.936878
0.936751
0.93663
0.936516
0.936407
0.936302
0.936203
0.936108
0.936017
0.935929
0.935845
0.935764
0.935685
0.935609
0.935535
0.935462
0.935391
0.935321
0.935252
0.935183
0.935115
0.935048
0.93498
0.934913
0.934845
0.934777
0.934708
0.934639
0.934569
0.934498
0.934427
0.934355
0.934283
0.934209
0.934136
0.934061
0.933987
0.933912
0.933837
0.933763
0.933689
0.933615
0.933543
0.933471
0.933401
0.933333
0.933266
0.933202
0.933141
0.933082
0.933026
0.932973
0.932924
0.932879
0.932837
0.932798
0.932764
0.932734
0.932707
0.932684
0.932664
0.932648
0.932636
0.932626
0.932619
0.932615
0.932613
0.932614
0.932616
0.932619
0.932624
0.93263
0.932637
0.932644
0.932651
0.932658
0.932666
0.932673
0.93268
0.932686
0.932691
0.932696
0.9327
0.932703
0.932706
0.932707
0.932707
0.932707
0.932705
0.932703
0.932699
0.932695
0.93269
0.932683
0.932676
0.932668
0.93266
0.93265
0.93264
0.932629
0.932617
0.932605
0.932592
0.932579
0.932565
0.93255
0.932535
0.932519
0.932503
0.932487
0.93247
0.932453
0.932435
0.932417
0.932399
0.932381
0.932362
0.932343
0.932324
0.932305
0.932285
0.932266
0.932246
0.932226
0.932206
0.932187
0.932167
0.932147
0.932127
0.932107
0.932087
0.932066
0.932046
0.932026
0.932006
0.931986
0.931966
0.931946
0.931926
0.931906
0.931886
0.931866
0.931845
0.931825
0.931805
0.931784
0.931763
0.931743
0.931722
0.9317
0.931679
0.931657
0.931635
0.931613
0.931591
0.931568
0.931544
0.931521
0.931497
0.931472
0.931447
0.931421
0.931395
0.931369
0.931341
0.931313
0.931285
0.931256
0.931226
0.931195
0.931164
0.931132
0.931099
0.931065
0.931031
0.930996
0.93096
0.930924
0.930886
0.930848
0.930809
0.930769
0.930729
0.930688
0.930646
0.930603
0.93056
0.930516
0.930471
0.930426
0.93038
0.930334
0.930287
0.93024
0.930193
0.930145
0.930097
0.930049
0.93
0.929952
0.929903
0.929854
0.929806
0.929757
0.929709
0.92966
0.929613
0.929565
0.929518
0.929471
0.929425
0.92938
0.929335
0.92929
0.929247
0.929204
0.929162
0.929121
0.929081
0.929042
0.929003
0.928966
0.92893
0.928895
0.928861
0.928827
0.928795
0.928765
0.928735
0.928706
0.928678
0.928652
0.928626
0.928602
0.928578
0.928556
0.928534
0.928514
0.928494
0.928475
0.928457
0.92844
0.928423
0.928408
0.928393
0.928378
0.928364
0.928351
0.928337
0.928325
0.928313
0.928301
0.928289
0.928278
0.928267
0.928256
0.928246
0.928235
0.928225
0.928214
0.928204
0.928194
0.928184
0.928174
0.928164
0.928154
0.928144
0.928135
0.928125
0.928116
0.928106
0.928097
0.928088
0.92808
0.928071
0.928063
0.928055
0.928048
0.928041
0.928034
0.928028
0.928023
0.928018
0.928015
0.928012
0.928009
0.928008
0.928008
0.928009
0.928011
0.928014
0.928018
0.928024
0.928031
0.928039
0.928049
0.92806
0.928073
0.928087
0.928103
0.928121
0.92814
0.92816
0.928183
0.928206
0.928232
0.928258
0.928286
0.928315
0.928345
0.928377
0.928409
0.928441
0.928475
0.928508
0.928541
0.928575
0.928607
0.928639
0.92867
0.928699
0.928727
0.928752
0.928775
0.928794
0.92881
0.928822
0.92883
0.928833
0.92883
0.928821
0.928806
0.928783
0.928753
0.928715
0.928667
0.92861
0.928542
0.928461
0.928368
0.92826
0.928136
0.927993
0.927829
0.927638
0.927415
0.927153
0.926839
0.926458
0.925986
0.925389
0.924597
0.923492
0.92195
0.91988
0.916608
0.910459
0.906872
0.912362
0
0
0.968233
0.965791
0.963685
0.960466
0.957879
0.955633
0.953699
0.952068
0.950679
0.949477
0.948422
0.947488
0.94665
0.945894
0.945206
0.944574
0.943992
0.943453
0.942952
0.942484
0.942046
0.941636
0.94125
0.940887
0.940544
0.940221
0.939916
0.939627
0.939355
0.939097
0.938853
0.938622
0.938403
0.938196
0.938
0.937815
0.937639
0.937473
0.937315
0.937166
0.937024
0.93689
0.936762
0.936641
0.936525
0.936416
0.936311
0.936211
0.936116
0.936025
0.935937
0.935852
0.935771
0.935692
0.935616
0.935541
0.935469
0.935397
0.935327
0.935258
0.93519
0.935123
0.935055
0.934988
0.93492
0.934853
0.934785
0.934717
0.934648
0.934578
0.934508
0.934437
0.934365
0.934293
0.93422
0.934146
0.934072
0.933997
0.933923
0.933848
0.933773
0.933699
0.933625
0.933552
0.93348
0.933409
0.93334
0.933274
0.933209
0.933146
0.933087
0.93303
0.932977
0.932927
0.93288
0.932837
0.932798
0.932763
0.932731
0.932704
0.93268
0.93266
0.932644
0.93263
0.93262
0.932613
0.932609
0.932607
0.932607
0.932609
0.932612
0.932617
0.932623
0.93263
0.932637
0.932644
0.932652
0.93266
0.932667
0.932674
0.93268
0.932686
0.932691
0.932695
0.932698
0.932701
0.932702
0.932703
0.932702
0.932701
0.932699
0.932696
0.932691
0.932686
0.93268
0.932673
0.932665
0.932657
0.932648
0.932638
0.932627
0.932615
0.932603
0.932591
0.932577
0.932563
0.932549
0.932534
0.932519
0.932503
0.932486
0.93247
0.932453
0.932435
0.932418
0.9324
0.932381
0.932363
0.932344
0.932325
0.932306
0.932287
0.932268
0.932248
0.932229
0.932209
0.932189
0.93217
0.93215
0.93213
0.93211
0.93209
0.93207
0.93205
0.93203
0.932011
0.931991
0.931971
0.931951
0.931931
0.931911
0.931891
0.931871
0.93185
0.93183
0.93181
0.931789
0.931769
0.931748
0.931727
0.931706
0.931685
0.931663
0.931641
0.931619
0.931597
0.931574
0.93155
0.931527
0.931503
0.931478
0.931453
0.931428
0.931402
0.931375
0.931348
0.93132
0.931291
0.931262
0.931232
0.931202
0.93117
0.931138
0.931106
0.931072
0.931038
0.931003
0.930967
0.93093
0.930893
0.930855
0.930816
0.930776
0.930736
0.930695
0.930653
0.93061
0.930567
0.930523
0.930479
0.930433
0.930388
0.930342
0.930295
0.930248
0.930201
0.930153
0.930105
0.930056
0.930008
0.929959
0.929911
0.929862
0.929813
0.929765
0.929716
0.929668
0.92962
0.929573
0.929525
0.929479
0.929433
0.929387
0.929342
0.929297
0.929254
0.929211
0.929169
0.929128
0.929087
0.929048
0.92901
0.928972
0.928936
0.9289
0.928866
0.928833
0.928801
0.92877
0.928739
0.928711
0.928683
0.928656
0.92863
0.928605
0.928582
0.928559
0.928537
0.928516
0.928496
0.928477
0.928459
0.928442
0.928425
0.928409
0.928393
0.928378
0.928364
0.92835
0.928337
0.928324
0.928312
0.9283
0.928288
0.928276
0.928265
0.928254
0.928243
0.928232
0.928222
0.928211
0.928201
0.92819
0.92818
0.92817
0.928159
0.928149
0.928139
0.928129
0.928119
0.928109
0.9281
0.92809
0.928081
0.928072
0.928063
0.928054
0.928046
0.928038
0.928031
0.928024
0.928018
0.928012
0.928007
0.928003
0.927999
0.927996
0.927994
0.927994
0.927994
0.927995
0.927997
0.928001
0.928006
0.928012
0.92802
0.928029
0.928039
0.928051
0.928064
0.928079
0.928096
0.928114
0.928133
0.928154
0.928177
0.928201
0.928226
0.928252
0.92828
0.928309
0.928339
0.928369
0.9284
0.928432
0.928464
0.928496
0.928527
0.928558
0.928588
0.928617
0.928644
0.928669
0.928692
0.928713
0.92873
0.928743
0.928752
0.928757
0.928757
0.92875
0.928738
0.928719
0.928692
0.928656
0.928612
0.928558
0.928494
0.928417
0.928328
0.928224
0.928105
0.927967
0.927808
0.927625
0.927412
0.927165
0.926875
0.92653
0.926114
0.925603
0.924967
0.924166
0.923136
0.921719
0.919751
0.917628
0.915718
0.914091
0.916669
0
0
0.962229
0.96223
0.960643
0.958717
0.956826
0.954955
0.953287
0.95182
0.950527
0.949384
0.948368
0.947458
0.946637
0.945892
0.94521
0.944584
0.944005
0.943468
0.942968
0.942501
0.942063
0.941653
0.941266
0.940903
0.94056
0.940236
0.93993
0.939641
0.939368
0.939109
0.938864
0.938633
0.938413
0.938206
0.938009
0.937823
0.937647
0.93748
0.937322
0.937172
0.93703
0.936895
0.936768
0.936646
0.936531
0.936421
0.936316
0.936216
0.936121
0.936029
0.935941
0.935857
0.935776
0.935697
0.935621
0.935546
0.935474
0.935403
0.935333
0.935265
0.935196
0.935129
0.935062
0.934995
0.934928
0.934861
0.934793
0.934725
0.934656
0.934587
0.934517
0.934447
0.934375
0.934303
0.93423
0.934156
0.934082
0.934007
0.933933
0.933857
0.933782
0.933708
0.933633
0.93356
0.933487
0.933416
0.933346
0.933278
0.933213
0.933149
0.933089
0.933031
0.932976
0.932925
0.932878
0.932834
0.932794
0.932758
0.932726
0.932698
0.932673
0.932653
0.932636
0.932622
0.932612
0.932605
0.9326
0.932598
0.932598
0.9326
0.932604
0.932609
0.932615
0.932622
0.93263
0.932638
0.932645
0.932653
0.932661
0.932668
0.932675
0.932681
0.932686
0.932691
0.932694
0.932697
0.932698
0.932699
0.932699
0.932698
0.932696
0.932692
0.932688
0.932683
0.932677
0.932671
0.932663
0.932655
0.932646
0.932636
0.932625
0.932614
0.932602
0.932589
0.932576
0.932563
0.932548
0.932534
0.932518
0.932503
0.932487
0.93247
0.932453
0.932436
0.932419
0.932401
0.932383
0.932365
0.932346
0.932328
0.932309
0.93229
0.932271
0.932252
0.932232
0.932213
0.932193
0.932174
0.932154
0.932135
0.932115
0.932095
0.932076
0.932056
0.932036
0.932016
0.931997
0.931977
0.931957
0.931937
0.931918
0.931898
0.931878
0.931858
0.931838
0.931817
0.931797
0.931777
0.931756
0.931735
0.931714
0.931693
0.931671
0.93165
0.931628
0.931605
0.931582
0.931559
0.931536
0.931512
0.931487
0.931462
0.931437
0.931411
0.931384
0.931357
0.931329
0.931301
0.931272
0.931242
0.931211
0.93118
0.931148
0.931115
0.931082
0.931048
0.931013
0.930977
0.93094
0.930903
0.930865
0.930826
0.930787
0.930746
0.930705
0.930663
0.930621
0.930577
0.930534
0.930489
0.930444
0.930398
0.930352
0.930306
0.930259
0.930211
0.930163
0.930115
0.930067
0.930019
0.92997
0.929921
0.929873
0.929824
0.929775
0.929727
0.929679
0.929631
0.929583
0.929536
0.929489
0.929443
0.929397
0.929352
0.929307
0.929263
0.92922
0.929178
0.929137
0.929096
0.929057
0.929018
0.928981
0.928944
0.928908
0.928874
0.92884
0.928808
0.928777
0.928746
0.928717
0.928689
0.928662
0.928636
0.928611
0.928587
0.928564
0.928542
0.928521
0.9285
0.928481
0.928462
0.928445
0.928428
0.928411
0.928395
0.92838
0.928366
0.928352
0.928338
0.928325
0.928312
0.9283
0.928288
0.928276
0.928264
0.928253
0.928241
0.92823
0.928219
0.928208
0.928198
0.928187
0.928176
0.928166
0.928155
0.928145
0.928134
0.928124
0.928114
0.928104
0.928093
0.928084
0.928074
0.928064
0.928055
0.928046
0.928038
0.928029
0.928022
0.928014
0.928007
0.928001
0.927996
0.927991
0.927987
0.927983
0.927981
0.927979
0.927979
0.92798
0.927981
0.927984
0.927988
0.927994
0.928
0.928009
0.928018
0.928029
0.928041
0.928055
0.928071
0.928088
0.928106
0.928126
0.928148
0.928171
0.928195
0.92822
0.928246
0.928274
0.928302
0.928332
0.928361
0.928392
0.928422
0.928452
0.928482
0.928511
0.92854
0.928567
0.928592
0.928616
0.928637
0.928655
0.92867
0.928682
0.928688
0.928691
0.928687
0.928678
0.928663
0.92864
0.928609
0.928569
0.92852
0.928461
0.928391
0.928308
0.928211
0.928099
0.92797
0.927822
0.927652
0.927457
0.927232
0.926971
0.926667
0.92631
0.925888
0.925383
0.924771
0.92402
0.923102
0.922015
0.920715
0.919312
0.91857
0.918329
0.918998
0
0
0.958789
0.958914
0.95804
0.956911
0.955493
0.954045
0.952668
0.951387
0.95022
0.949164
0.948208
0.947341
0.94655
0.945827
0.945161
0.944547
0.943977
0.943447
0.942952
0.942489
0.942054
0.941646
0.941261
0.940899
0.940557
0.940234
0.939929
0.93964
0.939367
0.939109
0.938864
0.938632
0.938413
0.938206
0.938009
0.937823
0.937647
0.93748
0.937322
0.937172
0.93703
0.936896
0.936768
0.936647
0.936531
0.936422
0.936317
0.936217
0.936122
0.936031
0.935943
0.935859
0.935778
0.9357
0.935624
0.93555
0.935478
0.935407
0.935338
0.93527
0.935202
0.935135
0.935068
0.935002
0.934935
0.934869
0.934801
0.934734
0.934665
0.934597
0.934527
0.934456
0.934385
0.934313
0.93424
0.934166
0.934092
0.934017
0.933942
0.933866
0.933791
0.933716
0.933641
0.933566
0.933493
0.933421
0.93335
0.933281
0.933214
0.933149
0.933087
0.933029
0.932973
0.932921
0.932872
0.932827
0.932786
0.93275
0.932717
0.932688
0.932663
0.932642
0.932625
0.932611
0.932601
0.932594
0.932589
0.932588
0.932588
0.932591
0.932595
0.9326
0.932607
0.932614
0.932622
0.932631
0.932639
0.932647
0.932655
0.932663
0.93267
0.932676
0.932682
0.932686
0.93269
0.932693
0.932695
0.932696
0.932696
0.932695
0.932693
0.93269
0.932686
0.932681
0.932675
0.932669
0.932661
0.932653
0.932644
0.932634
0.932624
0.932613
0.932601
0.932589
0.932576
0.932562
0.932548
0.932534
0.932519
0.932503
0.932487
0.932471
0.932455
0.932438
0.932421
0.932403
0.932385
0.932368
0.932349
0.932331
0.932312
0.932294
0.932275
0.932256
0.932237
0.932218
0.932199
0.932179
0.93216
0.932141
0.932121
0.932102
0.932082
0.932063
0.932043
0.932024
0.932005
0.931985
0.931965
0.931946
0.931926
0.931907
0.931887
0.931867
0.931847
0.931827
0.931807
0.931787
0.931766
0.931746
0.931725
0.931704
0.931682
0.931661
0.931639
0.931616
0.931594
0.931571
0.931547
0.931523
0.931499
0.931474
0.931449
0.931423
0.931396
0.931369
0.931341
0.931313
0.931284
0.931254
0.931224
0.931193
0.931161
0.931128
0.931095
0.931061
0.931026
0.93099
0.930954
0.930916
0.930878
0.930839
0.9308
0.93076
0.930718
0.930677
0.930634
0.930591
0.930547
0.930503
0.930458
0.930412
0.930366
0.930319
0.930272
0.930225
0.930177
0.930129
0.930081
0.930032
0.929984
0.929935
0.929886
0.929837
0.929789
0.92974
0.929692
0.929644
0.929596
0.929549
0.929502
0.929455
0.92941
0.929364
0.92932
0.929276
0.929233
0.92919
0.929149
0.929108
0.929068
0.929029
0.928991
0.928955
0.928919
0.928884
0.92885
0.928817
0.928786
0.928755
0.928726
0.928697
0.92867
0.928644
0.928618
0.928594
0.928571
0.928548
0.928527
0.928506
0.928486
0.928467
0.928449
0.928432
0.928415
0.928399
0.928384
0.928369
0.928354
0.92834
0.928327
0.928314
0.928301
0.928288
0.928276
0.928264
0.928252
0.928241
0.928229
0.928218
0.928207
0.928196
0.928185
0.928174
0.928163
0.928152
0.928141
0.92813
0.928119
0.928109
0.928098
0.928088
0.928078
0.928068
0.928058
0.928048
0.928039
0.92803
0.928021
0.928013
0.928005
0.927997
0.927991
0.927985
0.927979
0.927974
0.927971
0.927968
0.927965
0.927964
0.927964
0.927965
0.927967
0.927971
0.927976
0.927981
0.927989
0.927997
0.928008
0.928019
0.928032
0.928047
0.928063
0.92808
0.928099
0.92812
0.928141
0.928164
0.928189
0.928214
0.92824
0.928268
0.928296
0.928324
0.928353
0.928382
0.928411
0.92844
0.928468
0.928495
0.928521
0.928545
0.928567
0.928586
0.928603
0.928616
0.928626
0.928631
0.928631
0.928625
0.928613
0.928595
0.928569
0.928535
0.928492
0.92844
0.928376
0.928301
0.928213
0.928111
0.927994
0.927859
0.927705
0.927529
0.927327
0.927097
0.926834
0.926531
0.926181
0.925775
0.925301
0.92475
0.924109
0.923363
0.922535
0.921717
0.920957
0.920496
0.920634
0.921134
0
0
0.956268
0.956298
0.955885
0.955133
0.954122
0.953029
0.951908
0.950821
0.949795
0.948841
0.947959
0.947146
0.946396
0.945703
0.945061
0.944465
0.943909
0.94339
0.942904
0.942448
0.942019
0.941615
0.941235
0.940875
0.940536
0.940215
0.939912
0.939624
0.939353
0.939095
0.938852
0.938621
0.938403
0.938196
0.938
0.937815
0.937639
0.937473
0.937315
0.937166
0.937024
0.93689
0.936763
0.936642
0.936527
0.936418
0.936314
0.936215
0.93612
0.93603
0.935943
0.935859
0.935779
0.935701
0.935625
0.935552
0.935481
0.935411
0.935342
0.935274
0.935207
0.935141
0.935075
0.935009
0.934943
0.934876
0.93481
0.934742
0.934674
0.934606
0.934536
0.934466
0.934395
0.934323
0.93425
0.934176
0.934102
0.934027
0.933951
0.933875
0.933799
0.933722
0.933646
0.933571
0.933497
0.933423
0.933351
0.933281
0.933213
0.933147
0.933083
0.933023
0.932966
0.932913
0.932863
0.932817
0.932775
0.932738
0.932704
0.932675
0.932649
0.932628
0.932611
0.932597
0.932587
0.93258
0.932576
0.932575
0.932576
0.932579
0.932584
0.93259
0.932598
0.932606
0.932615
0.932624
0.932632
0.932641
0.93265
0.932658
0.932665
0.932672
0.932678
0.932683
0.932687
0.93269
0.932692
0.932693
0.932693
0.932693
0.932691
0.932688
0.932684
0.932679
0.932674
0.932667
0.93266
0.932652
0.932643
0.932633
0.932623
0.932612
0.9326
0.932588
0.932575
0.932562
0.932548
0.932534
0.932519
0.932504
0.932489
0.932473
0.932457
0.93244
0.932423
0.932406
0.932389
0.932371
0.932353
0.932335
0.932317
0.932298
0.93228
0.932261
0.932243
0.932224
0.932205
0.932186
0.932167
0.932148
0.932129
0.93211
0.932091
0.932072
0.932052
0.932033
0.932014
0.931995
0.931975
0.931956
0.931937
0.931917
0.931898
0.931878
0.931859
0.931839
0.931819
0.931799
0.931779
0.931758
0.931737
0.931717
0.931695
0.931674
0.931652
0.93163
0.931607
0.931585
0.931561
0.931538
0.931513
0.931489
0.931463
0.931437
0.931411
0.931384
0.931356
0.931328
0.931299
0.93127
0.931239
0.931208
0.931177
0.931144
0.931111
0.931077
0.931042
0.931006
0.93097
0.930933
0.930895
0.930856
0.930816
0.930776
0.930735
0.930693
0.930651
0.930608
0.930564
0.930519
0.930474
0.930429
0.930383
0.930336
0.930289
0.930242
0.930194
0.930146
0.930098
0.930049
0.93
0.929952
0.929903
0.929854
0.929805
0.929757
0.929708
0.92966
0.929612
0.929565
0.929518
0.929471
0.929425
0.929379
0.929335
0.929291
0.929247
0.929205
0.929163
0.929122
0.929082
0.929043
0.929005
0.928967
0.928931
0.928896
0.928862
0.928829
0.928797
0.928766
0.928736
0.928708
0.92868
0.928653
0.928628
0.928603
0.928579
0.928556
0.928535
0.928514
0.928493
0.928474
0.928456
0.928438
0.928421
0.928404
0.928388
0.928373
0.928358
0.928344
0.92833
0.928316
0.928303
0.92829
0.928278
0.928265
0.928253
0.928241
0.928229
0.928218
0.928206
0.928195
0.928183
0.928172
0.92816
0.928149
0.928138
0.928127
0.928116
0.928105
0.928094
0.928083
0.928072
0.928062
0.928051
0.928041
0.928031
0.928022
0.928013
0.928004
0.927996
0.927988
0.927981
0.927974
0.927968
0.927963
0.927958
0.927955
0.927952
0.92795
0.927949
0.92795
0.927951
0.927954
0.927958
0.927963
0.92797
0.927977
0.927987
0.927998
0.92801
0.928023
0.928039
0.928055
0.928073
0.928093
0.928113
0.928135
0.928159
0.928183
0.928209
0.928235
0.928262
0.928289
0.928317
0.928345
0.928373
0.928401
0.928428
0.928454
0.928478
0.928501
0.928522
0.92854
0.928555
0.928567
0.928575
0.928578
0.928577
0.928569
0.928556
0.928535
0.928507
0.928471
0.928425
0.92837
0.928303
0.928225
0.928134
0.928029
0.927908
0.927771
0.927614
0.927437
0.927236
0.927008
0.92675
0.926459
0.926128
0.925754
0.92533
0.924853
0.924325
0.923755
0.923162
0.922615
0.922208
0.921984
0.922146
0.922685
0
0
0.954184
0.954248
0.954034
0.953519
0.952811
0.951977
0.951079
0.950173
0.949286
0.948438
0.947638
0.946887
0.946184
0.945529
0.944916
0.944342
0.943805
0.9433
0.942826
0.94238
0.941959
0.941562
0.941187
0.940833
0.940497
0.94018
0.939879
0.939595
0.939325
0.93907
0.938828
0.938599
0.938382
0.938177
0.937982
0.937798
0.937624
0.937458
0.937302
0.937154
0.937013
0.93688
0.936753
0.936633
0.936519
0.936411
0.936308
0.936209
0.936116
0.936026
0.93594
0.935857
0.935777
0.9357
0.935625
0.935553
0.935482
0.935413
0.935345
0.935278
0.935212
0.935146
0.93508
0.935015
0.93495
0.934884
0.934818
0.934751
0.934683
0.934615
0.934546
0.934476
0.934405
0.934333
0.93426
0.934186
0.934111
0.934035
0.933959
0.933882
0.933805
0.933728
0.933651
0.933575
0.933499
0.933424
0.93335
0.933279
0.933209
0.933141
0.933077
0.933015
0.932956
0.932901
0.93285
0.932803
0.932761
0.932722
0.932688
0.932658
0.932633
0.932611
0.932594
0.932581
0.932571
0.932565
0.932562
0.932561
0.932563
0.932567
0.932573
0.93258
0.932588
0.932597
0.932606
0.932616
0.932626
0.932636
0.932645
0.932653
0.932661
0.932668
0.932675
0.93268
0.932684
0.932688
0.93269
0.932691
0.932692
0.932691
0.932689
0.932686
0.932683
0.932678
0.932672
0.932666
0.932659
0.932651
0.932642
0.932633
0.932622
0.932612
0.9326
0.932588
0.932576
0.932563
0.932549
0.932535
0.932521
0.932506
0.93249
0.932475
0.932459
0.932443
0.932426
0.932409
0.932392
0.932375
0.932357
0.93234
0.932322
0.932304
0.932286
0.932268
0.932249
0.932231
0.932212
0.932194
0.932175
0.932156
0.932138
0.932119
0.9321
0.932081
0.932063
0.932044
0.932025
0.932006
0.931987
0.931968
0.931949
0.93193
0.931911
0.931892
0.931872
0.931853
0.931833
0.931813
0.931793
0.931773
0.931753
0.931732
0.931711
0.93169
0.931668
0.931646
0.931624
0.931601
0.931578
0.931554
0.93153
0.931506
0.931481
0.931455
0.931429
0.931402
0.931374
0.931346
0.931317
0.931288
0.931258
0.931227
0.931195
0.931163
0.93113
0.931096
0.931061
0.931025
0.930989
0.930952
0.930914
0.930875
0.930836
0.930795
0.930755
0.930713
0.93067
0.930627
0.930584
0.930539
0.930494
0.930449
0.930403
0.930356
0.930309
0.930262
0.930214
0.930166
0.930117
0.930069
0.93002
0.929971
0.929922
0.929873
0.929824
0.929776
0.929727
0.929679
0.929631
0.929583
0.929536
0.929489
0.929443
0.929397
0.929352
0.929308
0.929264
0.929221
0.929179
0.929138
0.929098
0.929058
0.92902
0.928983
0.928946
0.928911
0.928876
0.928843
0.928811
0.928779
0.928749
0.92872
0.928692
0.928665
0.928639
0.928614
0.92859
0.928566
0.928544
0.928523
0.928502
0.928482
0.928463
0.928445
0.928428
0.928411
0.928394
0.928379
0.928364
0.928349
0.928334
0.92832
0.928307
0.928294
0.928281
0.928268
0.928255
0.928243
0.928231
0.928219
0.928207
0.928195
0.928183
0.928171
0.928159
0.928147
0.928136
0.928124
0.928113
0.928101
0.92809
0.928079
0.928068
0.928057
0.928046
0.928035
0.928025
0.928015
0.928005
0.927996
0.927987
0.927979
0.927971
0.927964
0.927957
0.927952
0.927947
0.927942
0.927939
0.927937
0.927935
0.927935
0.927936
0.927938
0.927941
0.927945
0.927951
0.927958
0.927967
0.927977
0.927988
0.928001
0.928015
0.928031
0.928048
0.928067
0.928087
0.928108
0.928131
0.928154
0.928179
0.928204
0.92823
0.928257
0.928284
0.928311
0.928338
0.928365
0.928391
0.928416
0.928439
0.928461
0.928481
0.928498
0.928512
0.928523
0.92853
0.928532
0.928529
0.92852
0.928505
0.928483
0.928453
0.928415
0.928367
0.92831
0.928242
0.928162
0.928069
0.927963
0.927842
0.927704
0.927548
0.927373
0.927177
0.926958
0.926713
0.92644
0.926136
0.925801
0.925433
0.925034
0.924609
0.924177
0.923763
0.923402
0.923166
0.923102
0.923268
0.923731
0
0
0.95245
0.952562
0.952439
0.952094
0.951584
0.950945
0.950232
0.949481
0.948723
0.947979
0.947261
0.946575
0.945924
0.94531
0.94473
0.944183
0.943667
0.943181
0.942721
0.942287
0.941877
0.941488
0.94112
0.940772
0.940442
0.940129
0.939833
0.939552
0.939286
0.939033
0.938794
0.938568
0.938353
0.938149
0.937956
0.937774
0.937601
0.937437
0.937282
0.937135
0.936996
0.936864
0.936739
0.93662
0.936507
0.9364
0.936298
0.936201
0.936108
0.936019
0.935934
0.935852
0.935773
0.935697
0.935624
0.935552
0.935482
0.935414
0.935347
0.935281