# vtk DataFile Version 2.0
LBE mesh
ASCII
DATASET STRUCTURED_POINTS
DIMENSIONS 402 102 1
ASPECT_RATIO 1 1 1
ORIGIN 0 0 0
POINT_DATA 41004
SCALARS rho double 1
LOOKUP_TABLE default
0
0
0
0
0
0
0
0
0
0
0
0
0
0
0
0
0
0
0
0
0
0
0
0
0
0
0
0
0
0
0
0
0
0
0
0
0
0
0
0
0
0
0
0
0
0
0
0
0
0
0
0
0
0
0
0
0
0
0
0
0
0
0
0
0
0
0
0
0
0
0
0
0
0
0
0
0
0
0
0
0
0
0
0
0
0
0
0
0
0
0
0
0
0
0
0
0
0
0
0
0
0
0
0
0
0
0
0
0
0
0
0
0
0
0
0
0
0
0
0
0
0
0
0
0
0
0
0
0
0
0
0
0
0
0
0
0
0
0
0
0
0
0
0
0
0
0
0
0
0
0
0
0
0
0
0
0
0
0
0
0
0
0
0
0
0
0
0
0
0
0
0
0
0
0
0
0
0
0
0
0
0
0
0
0
0
0
0
0
0
0
0
0
0
0
0
0
0
0
0
0
0
0
0
0
0
0
0
0
0
0
0
0
0
0
0
0
0
0
0
0
0
0
0
0
0
0
0
0
0
0
0
0
0
0
0
0
0
0
0
0
0
0
0
0
0
0
0
0
0
0
0
0
0
0
0
0
0
0
0
0
0
0
0
0
0
0
0
0
0
0
0
0
0
0
0
0
0
0
0
0
0
0
0
0
0
0
0
0
0
0
0
0
0
0
0
0
0
0
0
0
0
0
0
0
0
0
0
0
0
0
0
0
0
0
0
0
0
0
0
0
0
0
0
0
0
0
0
0
0
0
0
0
0
0
0
0
0
0
0
0
0
0
0
0
0
0
0
0
0
0
0
0
0
0
0
0
0
0
0
0
0
0
0
0
0
0
0
0
0
0
0
0
0
0
0
0
0
0
0
0
0
0
0
0
0
0
0
0
0
0
0
0
0
0
0
0
0
0
0
0
0
0
0.850731
0.912188
0.90054
0.893301
0.889953
0.887776
0.885994
0.884528
0.883313
0.882277
0.881373
0.880571
0.879852
0.879199
0.878602
0.878052
0.877542
0.877066
0.876621
0.876201
0.875805
0.87543
0.875073
0.874733
0.874408
0.874097
0.873799
0.873513
0.873237
0.872971
0.872715
0.872467
0.872227
0.871995
0.871771
0.871553
0.871342
0.871137
0.870937
0.870744
0.870556
0.870372
0.870194
0.870021
0.869852
0.869687
0.869527
0.869371
0.869218
0.869069
0.868924
0.868782
0.868644
0.868508
0.868376
0.868246
0.868119
0.867995
0.867873
0.867754
0.867637
0.867521
0.867409
0.867298
0.867188
0.867081
0.866976
0.866872
0.86677
0.86667
0.866572
0.866475
0.86638
0.866287
0.866196
0.866107
0.866021
0.865936
0.865855
0.865776
0.8657
0.865628
0.865559
0.865493
0.865432
0.865375
0.865323
0.865275
0.865232
0.865195
0.865163
0.865137
0.865116
0.865102
0.865093
0.86509
0.865093
0.865102
0.865116
0.865136
0.865162
0.865192
0.865227
0.865267
0.865311
0.865358
0.865409
0.865463
0.865519
0.865578
0.865638
0.8657
0.865763
0.865827
0.865891
0.865955
0.866019
0.866082
0.866145
0.866208
0.866269
0.866329
0.866388
0.866446
0.866503
0.866558
0.866612
0.866665
0.866716
0.866765
0.866814
0.86686
0.866906
0.86695
0.866993
0.867035
0.867076
0.867115
0.867154
0.867191
0.867228
0.867263
0.867298
0.867331
0.867364
0.867396
0.867427
0.867458
0.867488
0.867517
0.867546
0.867573
0.867601
0.867627
0.867654
0.867679
0.867704
0.867729
0.867753
0.867777
0.8678
0.867822
0.867845
0.867866
0.867888
0.867909
0.867929
0.867949
0.867969
0.867988
0.868007
0.868026
0.868044
0.868061
0.868079
0.868096
0.868112
0.868128
0.868144
0.86816
0.868175
0.86819
0.868204
0.868219
0.868233
0.868246
0.868259
0.868272
0.868285
0.868297
0.86831
0.868321
0.868333
0.868344
0.868356
0.868366
0.868377
0.868388
0.868398
0.868408
0.868418
0.868428
0.868437
0.868446
0.868456
0.868465
0.868474
0.868483
0.868491
0.8685
0.868508
0.868517
0.868525
0.868533
0.868541
0.86855
0.868558
0.868566
0.868573
0.868581
0.868589
0.868597
0.868605
0.868612
0.86862
0.868628
0.868635
0.868643
0.86865
0.868658
0.868665
0.868673
0.86868
0.868688
0.868695
0.868703
0.86871
0.868717
0.868725
0.868732
0.868739
0.868746
0.868754
0.868761
0.868768
0.868775
0.868782
0.868789
0.868796
0.868803
0.86881
0.868817
0.868824
0.868831
0.868838
0.868845
0.868852
0.868858
0.868865
0.868872
0.868879
0.868886
0.868893
0.868899
0.868906
0.868913
0.86892
0.868927
0.868934
0.868942
0.868949
0.868956
0.868964
0.868971
0.868979
0.868987
0.868995
0.869004
0.869012
0.869021
0.86903
0.86904
0.86905
0.86906
0.86907
0.869081
0.869092
0.869104
0.869116
0.869129
0.869142
0.869156
0.869171
0.869186
0.869202
0.869219
0.869236
0.869254
0.869273
0.869294
0.869315
0.869337
0.86936
0.869384
0.86941
0.869436
0.869464
0.869494
0.869525
0.869557
0.869591
0.869626
0.869663
0.869702
0.869743
0.869786
0.86983
0.869877
0.869926
0.869977
0.87003
0.870086
0.870144
0.870204
0.870267
0.870333
0.870402
0.870473
0.870547
0.870624
0.870704
0.870786
0.870872
0.870961
0.871053
0.871148
0.871246
0.871347
0.871452
0.871559
0.871669
0.871782
0.871898
0.872017
0.872138
0.872261
0.872387
0.872515
0.872644
0.872775
0.872907
0.87304
0.873174
0.873307
0.873441
0.873573
0.873704
0.873834
0.873961
0.874085
0.874206
0.874323
0.874435
0.874542
0.874642
0.874736
0.874822
0.8749
0.874969
0.875028
0.875078
0.875116
0.875143
0.875158
0.875161
0.87515
0.875126
0.875088
0.875035
0.874968
0.874885
0.874788
0.874674
0.874544
0.874397
0.874231
0.874045
0.873836
0.8736
0.873329
0.873015
0.872642
0.872162
0.871463
0.870438
0.869331
0.868664
0.865026
0.83422
0.743453
0
0
0.913011
0.906204
0.898923
0.894782
0.891226
0.888574
0.886594
0.885025
0.883722
0.882613
0.881653
0.880808
0.880054
0.879375
0.878756
0.878188
0.877663
0.877175
0.876719
0.876291
0.875888
0.875506
0.875144
0.874799
0.87447
0.874155
0.873854
0.873564
0.873286
0.873017
0.872759
0.872509
0.872268
0.872034
0.871808
0.871588
0.871376
0.871169
0.870969
0.870774
0.870585
0.870401
0.870222
0.870048
0.869878
0.869713
0.869552
0.869395
0.869241
0.869092
0.868946
0.868804
0.868665
0.868529
0.868396
0.868266
0.868139
0.868014
0.867892
0.867772
0.867655
0.86754
0.867427
0.867315
0.867206
0.867099
0.866994
0.86689
0.866788
0.866688
0.86659
0.866493
0.866399
0.866306
0.866215
0.866126
0.86604
0.865956
0.865874
0.865796
0.86572
0.865647
0.865578
0.865513
0.865451
0.865394
0.865341
0.865293
0.86525
0.865212
0.865179
0.865152
0.865131
0.865115
0.865105
0.865101
0.865103
0.86511
0.865124
0.865143
0.865167
0.865196
0.86523
0.865268
0.865311
0.865357
0.865407
0.86546
0.865516
0.865574
0.865633
0.865694
0.865757
0.86582
0.865884
0.865947
0.866011
0.866075
0.866138
0.8662
0.866261
0.866321
0.866381
0.866439
0.866496
0.866551
0.866605
0.866658
0.866709
0.866759
0.866807
0.866854
0.8669
0.866945
0.866988
0.86703
0.867071
0.867111
0.867149
0.867187
0.867223
0.867259
0.867294
0.867327
0.86736
0.867393
0.867424
0.867455
0.867485
0.867514
0.867543
0.867571
0.867598
0.867625
0.867651
0.867677
0.867702
0.867727
0.867751
0.867774
0.867798
0.86782
0.867843
0.867864
0.867886
0.867907
0.867927
0.867947
0.867967
0.867986
0.868005
0.868024
0.868042
0.86806
0.868077
0.868094
0.868111
0.868127
0.868143
0.868158
0.868173
0.868188
0.868203
0.868217
0.868231
0.868245
0.868258
0.868271
0.868284
0.868296
0.868308
0.86832
0.868332
0.868343
0.868354
0.868365
0.868376
0.868386
0.868397
0.868407
0.868417
0.868426
0.868436
0.868445
0.868455
0.868464
0.868473
0.868481
0.86849
0.868499
0.868507
0.868516
0.868524
0.868532
0.86854
0.868548
0.868556
0.868564
0.868572
0.86858
0.868588
0.868596
0.868604
0.868611
0.868619
0.868627
0.868634
0.868642
0.868649
0.868657
0.868664
0.868672
0.868679
0.868687
0.868694
0.868701
0.868709
0.868716
0.868723
0.868731
0.868738
0.868745
0.868753
0.86876
0.868767
0.868774
0.868781
0.868788
0.868795
0.868802
0.868809
0.868816
0.868823
0.86883
0.868837
0.868844
0.868851
0.868858
0.868864
0.868871
0.868878
0.868885
0.868892
0.868899
0.868906
0.868913
0.86892
0.868927
0.868934
0.868941
0.868949
0.868956
0.868964
0.868971
0.868979
0.868987
0.868995
0.869004
0.869012
0.869021
0.86903
0.86904
0.86905
0.86906
0.86907
0.869081
0.869092
0.869104
0.869116
0.869129
0.869143
0.869156
0.869171
0.869186
0.869202
0.869219
0.869236
0.869254
0.869273
0.869293
0.869314
0.869336
0.869359
0.869384
0.869409
0.869436
0.869463
0.869493
0.869523
0.869555
0.869589
0.869624
0.869661
0.8697
0.86974
0.869782
0.869827
0.869873
0.869921
0.869972
0.870024
0.870079
0.870137
0.870197
0.870259
0.870324
0.870392
0.870462
0.870535
0.870611
0.87069
0.870772
0.870856
0.870944
0.871035
0.871128
0.871225
0.871325
0.871427
0.871533
0.871641
0.871753
0.871866
0.871983
0.872102
0.872223
0.872347
0.872472
0.872599
0.872728
0.872857
0.872987
0.873118
0.873249
0.873379
0.873509
0.873637
0.873764
0.873888
0.874009
0.874127
0.87424
0.874349
0.874452
0.87455
0.87464
0.874723
0.874797
0.874863
0.874918
0.874964
0.874998
0.875021
0.875032
0.875029
0.875013
0.874983
0.874938
0.874877
0.874801
0.874708
0.874598
0.874469
0.87432
0.87415
0.873956
0.873735
0.873482
0.873188
0.872843
0.872426
0.871902
0.871228
0.870366
0.869187
0.867057
0.862319
0.854493
0.847111
0.836273
0
0
0.909586
0.901156
0.898141
0.894504
0.891215
0.88877
0.886844
0.885258
0.883929
0.882797
0.881816
0.880952
0.880182
0.879489
0.878858
0.87828
0.877747
0.877252
0.87679
0.876356
0.875948
0.875562
0.875196
0.874848
0.874516
0.874199
0.873895
0.873604
0.873323
0.873053
0.872793
0.872542
0.872299
0.872064
0.871837
0.871617
0.871403
0.871196
0.870995
0.870799
0.870609
0.870424
0.870245
0.87007
0.869899
0.869733
0.869572
0.869414
0.869261
0.869111
0.868965
0.868822
0.868683
0.868546
0.868413
0.868283
0.868155
0.868031
0.867908
0.867788
0.867671
0.867556
0.867443
0.867332
0.867222
0.867115
0.86701
0.866906
0.866805
0.866705
0.866606
0.86651
0.866415
0.866323
0.866232
0.866143
0.866057
0.865973
0.865891
0.865812
0.865736
0.865664
0.865594
0.865528
0.865466
0.865409
0.865355
0.865306
0.865262
0.865223
0.86519
0.865162
0.865139
0.865122
0.865111
0.865106
0.865107
0.865114
0.865126
0.865144
0.865167
0.865195
0.865228
0.865266
0.865308
0.865353
0.865403
0.865455
0.86551
0.865567
0.865627
0.865688
0.86575
0.865813
0.865876
0.86594
0.866004
0.866067
0.866131
0.866193
0.866254
0.866315
0.866374
0.866433
0.86649
0.866545
0.866599
0.866652
0.866704
0.866754
0.866803
0.86685
0.866896
0.866941
0.866984
0.867026
0.867067
0.867107
0.867146
0.867183
0.86722
0.867256
0.867291
0.867325
0.867358
0.86739
0.867421
0.867452
0.867482
0.867512
0.86754
0.867568
0.867596
0.867623
0.867649
0.867675
0.8677
0.867725
0.867749
0.867772
0.867796
0.867818
0.867841
0.867863
0.867884
0.867905
0.867926
0.867946
0.867965
0.867985
0.868004
0.868022
0.86804
0.868058
0.868075
0.868092
0.868109
0.868125
0.868141
0.868157
0.868172
0.868187
0.868202
0.868216
0.86823
0.868243
0.868257
0.86827
0.868282
0.868295
0.868307
0.868319
0.868331
0.868342
0.868353
0.868364
0.868375
0.868385
0.868396
0.868406
0.868416
0.868425
0.868435
0.868444
0.868453
0.868463
0.868472
0.86848
0.868489
0.868498
0.868506
0.868515
0.868523
0.868531
0.868539
0.868547
0.868555
0.868563
0.868571
0.868579
0.868587
0.868595
0.868603
0.86861
0.868618
0.868626
0.868633
0.868641
0.868648
0.868656
0.868663
0.868671
0.868678
0.868686
0.868693
0.868701
0.868708
0.868715
0.868723
0.86873
0.868737
0.868744
0.868752
0.868759
0.868766
0.868773
0.86878
0.868787
0.868794
0.868801
0.868809
0.868816
0.868822
0.868829
0.868836
0.868843
0.86885
0.868857
0.868864
0.868871
0.868878
0.868885
0.868891
0.868898
0.868905
0.868912
0.868919
0.868926
0.868934
0.868941
0.868948
0.868956
0.868963
0.868971
0.868979
0.868987
0.868995
0.869004
0.869012
0.869021
0.86903
0.86904
0.86905
0.86906
0.86907
0.869081
0.869092
0.869104
0.869116
0.869129
0.869142
0.869156
0.869171
0.869186
0.869202
0.869218
0.869236
0.869254
0.869273
0.869293
0.869314
0.869335
0.869358
0.869382
0.869407
0.869434
0.869461
0.86949
0.869521
0.869553
0.869586
0.869621
0.869657
0.869696
0.869736
0.869777
0.869821
0.869867
0.869915
0.869965
0.870017
0.870071
0.870128
0.870187
0.870249
0.870313
0.870379
0.870449
0.870521
0.870596
0.870674
0.870754
0.870838
0.870924
0.871013
0.871106
0.871201
0.871299
0.8714
0.871504
0.871611
0.87172
0.871832
0.871947
0.872064
0.872183
0.872305
0.872428
0.872553
0.872679
0.872806
0.872934
0.873062
0.873191
0.873319
0.873446
0.873572
0.873696
0.873817
0.873936
0.874051
0.874162
0.874268
0.874368
0.874463
0.87455
0.87463
0.874702
0.874764
0.874817
0.87486
0.874891
0.87491
0.874916
0.874909
0.874888
0.874853
0.874801
0.874734
0.874649
0.874546
0.874423
0.87428
0.874115
0.873924
0.873706
0.873454
0.873163
0.872822
0.872418
0.87193
0.871327
0.870543
0.869471
0.867995
0.86603
0.862943
0.857157
0.853787
0.858963
0
0
0.900245
0.897977
0.896021
0.893029
0.890627
0.888541
0.886748
0.885236
0.883952
0.882841
0.881868
0.881007
0.880237
0.879542
0.878909
0.878329
0.877793
0.877296
0.876831
0.876396
0.875986
0.875598
0.875231
0.874881
0.874548
0.874229
0.873924
0.873632
0.87335
0.873079
0.872818
0.872566
0.872323
0.872087
0.871859
0.871638
0.871424
0.871216
0.871014
0.870818
0.870627
0.870442
0.870262
0.870087
0.869916
0.86975
0.869588
0.86943
0.869276
0.869126
0.868979
0.868836
0.868697
0.86856
0.868427
0.868297
0.868169
0.868044
0.867922
0.867802
0.867685
0.86757
0.867457
0.867346
0.867237
0.867129
0.867024
0.866921
0.866819
0.866719
0.866621
0.866525
0.86643
0.866337
0.866247
0.866158
0.866071
0.865987
0.865905
0.865826
0.86575
0.865677
0.865607
0.86554
0.865477
0.865419
0.865365
0.865315
0.86527
0.86523
0.865195
0.865166
0.865142
0.865124
0.865112
0.865106
0.865106
0.865112
0.865123
0.86514
0.865162
0.86519
0.865222
0.865259
0.865301
0.865346
0.865395
0.865447
0.865502
0.865559
0.865619
0.86568
0.865742
0.865805
0.865869
0.865933
0.865997
0.866061
0.866124
0.866187
0.866249
0.86631
0.866369
0.866428
0.866485
0.866541
0.866595
0.866649
0.8667
0.86675
0.866799
0.866847
0.866893
0.866938
0.866981
0.867024
0.867065
0.867105
0.867144
0.867181
0.867218
0.867254
0.867289
0.867323
0.867356
0.867388
0.86742
0.867451
0.867481
0.86751
0.867539
0.867567
0.867594
0.867621
0.867647
0.867673
0.867698
0.867723
0.867747
0.867771
0.867794
0.867817
0.867839
0.867861
0.867883
0.867904
0.867924
0.867944
0.867964
0.867983
0.868002
0.868021
0.868039
0.868057
0.868074
0.868091
0.868108
0.868124
0.86814
0.868156
0.868171
0.868186
0.8682
0.868215
0.868228
0.868242
0.868255
0.868268
0.868281
0.868294
0.868306
0.868318
0.868329
0.868341
0.868352
0.868363
0.868374
0.868384
0.868394
0.868405
0.868414
0.868424
0.868434
0.868443
0.868452
0.868462
0.868471
0.868479
0.868488
0.868497
0.868505
0.868514
0.868522
0.86853
0.868538
0.868547
0.868555
0.868563
0.86857
0.868578
0.868586
0.868594
0.868602
0.868609
0.868617
0.868625
0.868632
0.86864
0.868647
0.868655
0.868662
0.86867
0.868677
0.868685
0.868692
0.8687
0.868707
0.868714
0.868722
0.868729
0.868736
0.868744
0.868751
0.868758
0.868765
0.868772
0.86878
0.868787
0.868794
0.868801
0.868808
0.868815
0.868822
0.868829
0.868836
0.868843
0.86885
0.868856
0.868863
0.86887
0.868877
0.868884
0.868891
0.868898
0.868905
0.868912
0.868919
0.868926
0.868933
0.868941
0.868948
0.868956
0.868963
0.868971
0.868979
0.868987
0.868995
0.869004
0.869012
0.869021
0.86903
0.86904
0.86905
0.86906
0.86907
0.869081
0.869092
0.869104
0.869116
0.869129
0.869142
0.869156
0.86917
0.869185
0.869201
0.869217
0.869235
0.869253
0.869272
0.869291
0.869312
0.869334
0.869356
0.86938
0.869405
0.869431
0.869459
0.869487
0.869517
0.869549
0.869582
0.869616
0.869652
0.86969
0.86973
0.869771
0.869814
0.869859
0.869906
0.869956
0.870007
0.870061
0.870117
0.870175
0.870236
0.870299
0.870365
0.870433
0.870504
0.870578
0.870655
0.870734
0.870816
0.870901
0.870989
0.87108
0.871174
0.871271
0.87137
0.871473
0.871578
0.871685
0.871796
0.871909
0.872024
0.872141
0.872261
0.872382
0.872505
0.872629
0.872754
0.87288
0.873006
0.873133
0.873258
0.873384
0.873507
0.873629
0.873748
0.873865
0.873978
0.874087
0.874191
0.874289
0.874381
0.874467
0.874544
0.874614
0.874674
0.874724
0.874764
0.874792
0.874808
0.874811
0.8748
0.874775
0.874734
0.874677
0.874603
0.874511
0.874399
0.874267
0.874112
0.873933
0.873727
0.873489
0.873216
0.872899
0.87253
0.872094
0.87157
0.87093
0.87014
0.86914
0.867783
0.865915
0.863912
0.862116
0.860593
0.863028
0
0
0.894662
0.894666
0.893192
0.891403
0.889646
0.887909
0.886362
0.885003
0.883806
0.88275
0.881813
0.880975
0.880221
0.879536
0.87891
0.878334
0.877802
0.877307
0.876844
0.87641
0.876001
0.875613
0.875246
0.874897
0.874564
0.874245
0.87394
0.873647
0.873366
0.873095
0.872833
0.872581
0.872337
0.872101
0.871873
0.871652
0.871437
0.871229
0.871027
0.870831
0.87064
0.870455
0.870274
0.870099
0.869928
0.869761
0.869599
0.869441
0.869287
0.869137
0.86899
0.868847
0.868708
0.868571
0.868438
0.868308
0.86818
0.868055
0.867933
0.867814
0.867696
0.867581
0.867468
0.867357
0.867249
0.867142
0.867037
0.866933
0.866832
0.866732
0.866634
0.866537
0.866443
0.86635
0.866259
0.86617
0.866084
0.865999
0.865917
0.865837
0.86576
0.865686
0.865615
0.865548
0.865485
0.865425
0.865369
0.865318
0.865272
0.865231
0.865195
0.865165
0.86514
0.865121
0.865108
0.865101
0.865099
0.865104
0.865115
0.865131
0.865153
0.86518
0.865212
0.865249
0.86529
0.865335
0.865385
0.865437
0.865492
0.86555
0.86561
0.865671
0.865734
0.865798
0.865862
0.865926
0.865991
0.866055
0.866119
0.866182
0.866244
0.866306
0.866366
0.866425
0.866482
0.866538
0.866593
0.866646
0.866698
0.866749
0.866798
0.866845
0.866891
0.866936
0.86698
0.867022
0.867064
0.867104
0.867143
0.86718
0.867217
0.867253
0.867288
0.867322
0.867355
0.867387
0.867419
0.86745
0.86748
0.867509
0.867538
0.867566
0.867593
0.86762
0.867646
0.867672
0.867697
0.867722
0.867746
0.86777
0.867793
0.867816
0.867838
0.86786
0.867882
0.867903
0.867923
0.867943
0.867963
0.867982
0.868001
0.86802
0.868038
0.868056
0.868073
0.86809
0.868107
0.868123
0.868139
0.868154
0.86817
0.868185
0.868199
0.868213
0.868227
0.868241
0.868254
0.868267
0.86828
0.868293
0.868305
0.868317
0.868328
0.86834
0.868351
0.868362
0.868373
0.868383
0.868393
0.868404
0.868413
0.868423
0.868433
0.868442
0.868452
0.868461
0.86847
0.868478
0.868487
0.868496
0.868504
0.868513
0.868521
0.868529
0.868538
0.868546
0.868554
0.868562
0.86857
0.868577
0.868585
0.868593
0.868601
0.868608
0.868616
0.868624
0.868631
0.868639
0.868647
0.868654
0.868662
0.868669
0.868677
0.868684
0.868691
0.868699
0.868706
0.868714
0.868721
0.868728
0.868736
0.868743
0.86875
0.868757
0.868765
0.868772
0.868779
0.868786
0.868793
0.8688
0.868807
0.868814
0.868821
0.868828
0.868835
0.868842
0.868849
0.868856
0.868863
0.86887
0.868877
0.868884
0.868891
0.868898
0.868905
0.868912
0.868919
0.868926
0.868933
0.868941
0.868948
0.868955
0.868963
0.868971
0.868979
0.868987
0.868995
0.869003
0.869012
0.869021
0.86903
0.86904
0.869049
0.869059
0.86907
0.869081
0.869092
0.869104
0.869116
0.869128
0.869141
0.869155
0.869169
0.869184
0.8692
0.869216
0.869233
0.869251
0.86927
0.869289
0.86931
0.869331
0.869354
0.869377
0.869402
0.869428
0.869455
0.869483
0.869513
0.869544
0.869576
0.86961
0.869646
0.869683
0.869722
0.869763
0.869806
0.86985
0.869897
0.869945
0.869996
0.870049
0.870104
0.870161
0.870221
0.870283
0.870348
0.870416
0.870486
0.870558
0.870634
0.870712
0.870793
0.870877
0.870963
0.871053
0.871145
0.87124
0.871338
0.871439
0.871542
0.871649
0.871757
0.871868
0.871982
0.872098
0.872215
0.872335
0.872456
0.872578
0.872701
0.872825
0.87295
0.873074
0.873198
0.873322
0.873444
0.873564
0.873681
0.873796
0.873907
0.874014
0.874117
0.874213
0.874304
0.874387
0.874463
0.874531
0.874589
0.874637
0.874675
0.8747
0.874714
0.874714
0.8747
0.874671
0.874626
0.874565
0.874486
0.874387
0.874269
0.874129
0.873966
0.873777
0.87356
0.873311
0.873026
0.872698
0.872318
0.871877
0.87136
0.870744
0.870001
0.869109
0.868063
0.866826
0.8655
0.864804
0.864583
0.865223
0
0
0.891464
0.891583
0.890773
0.889724
0.888406
0.887062
0.885785
0.884598
0.883519
0.882543
0.881662
0.880863
0.880137
0.879473
0.878862
0.878298
0.877775
0.877286
0.876829
0.876399
0.875993
0.875609
0.875244
0.874896
0.874565
0.874247
0.873943
0.873651
0.87337
0.8731
0.872839
0.872587
0.872343
0.872108
0.871879
0.871658
0.871444
0.871236
0.871034
0.870837
0.870647
0.870461
0.870281
0.870105
0.869934
0.869768
0.869606
0.869448
0.869294
0.869144
0.868997
0.868855
0.868715
0.868579
0.868446
0.868315
0.868188
0.868064
0.867942
0.867822
0.867705
0.86759
0.867478
0.867367
0.867258
0.867152
0.867047
0.866944
0.866842
0.866743
0.866645
0.866548
0.866454
0.866361
0.86627
0.86618
0.866093
0.866008
0.865925
0.865845
0.865767
0.865692
0.865621
0.865552
0.865488
0.865427
0.86537
0.865318
0.86527
0.865228
0.86519
0.865158
0.865132
0.865112
0.865098
0.865089
0.865087
0.865091
0.865101
0.865117
0.865138
0.865165
0.865197
0.865234
0.865276
0.865322
0.865371
0.865424
0.86548
0.865539
0.865599
0.865662
0.865725
0.86579
0.865855
0.86592
0.865985
0.86605
0.866115
0.866178
0.866241
0.866303
0.866363
0.866423
0.866481
0.866537
0.866592
0.866646
0.866698
0.866748
0.866797
0.866845
0.866891
0.866936
0.86698
0.867022
0.867064
0.867104
0.867143
0.86718
0.867217
0.867253
0.867288
0.867322
0.867355
0.867387
0.867419
0.867449
0.867479
0.867509
0.867537
0.867565
0.867593
0.86762
0.867646
0.867672
0.867697
0.867722
0.867746
0.867769
0.867793
0.867815
0.867838
0.867859
0.867881
0.867902
0.867922
0.867942
0.867962
0.867981
0.868
0.868019
0.868037
0.868055
0.868072
0.868089
0.868106
0.868122
0.868138
0.868154
0.868169
0.868184
0.868198
0.868212
0.868226
0.86824
0.868253
0.868266
0.868279
0.868292
0.868304
0.868316
0.868327
0.868339
0.86835
0.868361
0.868372
0.868382
0.868393
0.868403
0.868413
0.868422
0.868432
0.868441
0.868451
0.86846
0.868469
0.868478
0.868486
0.868495
0.868504
0.868512
0.86852
0.868529
0.868537
0.868545
0.868553
0.868561
0.868569
0.868577
0.868584
0.868592
0.8686
0.868608
0.868615
0.868623
0.868631
0.868638
0.868646
0.868653
0.868661
0.868668
0.868676
0.868683
0.868691
0.868698
0.868706
0.868713
0.86872
0.868728
0.868735
0.868742
0.86875
0.868757
0.868764
0.868771
0.868778
0.868785
0.868793
0.8688
0.868807
0.868814
0.868821
0.868828
0.868835
0.868842
0.868849
0.868856
0.868863
0.86887
0.868877
0.868884
0.868891
0.868898
0.868905
0.868912
0.868919
0.868926
0.868933
0.86894
0.868948
0.868955
0.868963
0.868971
0.868979
0.868987
0.868995
0.869003
0.869012
0.869021
0.86903
0.869039
0.869049
0.869059
0.86907
0.86908
0.869091
0.869103
0.869115
0.869128
0.869141
0.869154
0.869168
0.869183
0.869199
0.869215
0.869232
0.869249
0.869268
0.869287
0.869307
0.869328
0.869351
0.869374
0.869398
0.869423
0.86945
0.869478
0.869507
0.869538
0.86957
0.869603
0.869639
0.869675
0.869714
0.869754
0.869796
0.869839
0.869885
0.869933
0.869983
0.870035
0.870089
0.870146
0.870204
0.870266
0.87033
0.870396
0.870465
0.870536
0.87061
0.870687
0.870767
0.870849
0.870935
0.871023
0.871114
0.871207
0.871304
0.871403
0.871505
0.87161
0.871717
0.871826
0.871938
0.872052
0.872168
0.872286
0.872405
0.872526
0.872648
0.87277
0.872893
0.873016
0.873138
0.87326
0.87338
0.873499
0.873615
0.873729
0.873838
0.873944
0.874045
0.87414
0.874229
0.874311
0.874386
0.874452
0.874508
0.874555
0.874591
0.874614
0.874626
0.874623
0.874607
0.874575
0.874527
0.874462
0.874379
0.874277
0.874154
0.874009
0.873841
0.873647
0.873425
0.873172
0.872885
0.872558
0.872186
0.871761
0.871274
0.870717
0.870079
0.869349
0.868548
0.867765
0.867045
0.866612
0.866747
0.867228
0
0
0.88912
0.889152
0.888769
0.888072
0.887133
0.886118
0.885079
0.884071
0.883123
0.882242
0.88143
0.880682
0.879993
0.879358
0.878769
0.878222
0.877712
0.877235
0.876786
0.876363
0.875963
0.875584
0.875223
0.874879
0.87455
0.874235
0.873933
0.873643
0.873363
0.873094
0.872834
0.872583
0.87234
0.872105
0.871878
0.871657
0.871443
0.871235
0.871034
0.870838
0.870647
0.870462
0.870282
0.870107
0.869936
0.86977
0.869608
0.86945
0.869297
0.869147
0.869001
0.868858
0.868719
0.868583
0.86845
0.86832
0.868193
0.868069
0.867947
0.867828
0.867711
0.867597
0.867484
0.867374
0.867266
0.867159
0.867055
0.866952
0.866851
0.866751
0.866653
0.866557
0.866462
0.866369
0.866278
0.866188
0.8661
0.866015
0.865931
0.86585
0.865771
0.865695
0.865622
0.865553
0.865487
0.865424
0.865366
0.865312
0.865263
0.865219
0.86518
0.865147
0.865119
0.865098
0.865082
0.865073
0.86507
0.865073
0.865082
0.865098
0.865119
0.865146
0.865179
0.865216
0.865258
0.865305
0.865355
0.865409
0.865466
0.865526
0.865588
0.865651
0.865716
0.865781
0.865847
0.865914
0.86598
0.866046
0.866111
0.866176
0.866239
0.866301
0.866362
0.866422
0.86648
0.866537
0.866593
0.866646
0.866699
0.866749
0.866799
0.866846
0.866893
0.866938
0.866981
0.867024
0.867065
0.867105
0.867144
0.867182
0.867218
0.867254
0.867289
0.867323
0.867356
0.867388
0.867419
0.86745
0.86748
0.867509
0.867538
0.867566
0.867593
0.86762
0.867646
0.867672
0.867697
0.867722
0.867746
0.867769
0.867792
0.867815
0.867837
0.867859
0.86788
0.867901
0.867922
0.867942
0.867962
0.867981
0.868
0.868018
0.868036
0.868054
0.868071
0.868088
0.868105
0.868121
0.868137
0.868153
0.868168
0.868183
0.868197
0.868212
0.868226
0.868239
0.868253
0.868266
0.868278
0.868291
0.868303
0.868315
0.868327
0.868338
0.868349
0.86836
0.868371
0.868381
0.868392
0.868402
0.868412
0.868422
0.868431
0.868441
0.86845
0.868459
0.868468
0.868477
0.868486
0.868494
0.868503
0.868511
0.86852
0.868528
0.868536
0.868544
0.868552
0.86856
0.868568
0.868576
0.868584
0.868592
0.868599
0.868607
0.868615
0.868622
0.86863
0.868638
0.868645
0.868653
0.86866
0.868668
0.868675
0.868683
0.86869
0.868698
0.868705
0.868712
0.86872
0.868727
0.868734
0.868742
0.868749
0.868756
0.868763
0.868771
0.868778
0.868785
0.868792
0.868799
0.868806
0.868813
0.868821
0.868828
0.868835
0.868842
0.868849
0.868855
0.868862
0.868869
0.868876
0.868883
0.86889
0.868897
0.868904
0.868911
0.868919
0.868926
0.868933
0.86894
0.868948
0.868955
0.868963
0.868971
0.868979
0.868987
0.868995
0.869003
0.869012
0.869021
0.86903
0.869039
0.869049
0.869059
0.869069
0.86908
0.869091
0.869102
0.869114
0.869127
0.869139
0.869153
0.869167
0.869182
0.869197
0.869213
0.869229
0.869247
0.869265
0.869284
0.869304
0.869325
0.869347
0.86937
0.869393
0.869419
0.869445
0.869472
0.869501
0.869531
0.869563
0.869596
0.86963
0.869666
0.869704
0.869743
0.869784
0.869828
0.869872
0.869919
0.869968
0.87002
0.870073
0.870128
0.870186
0.870246
0.870309
0.870374
0.870442
0.870512
0.870585
0.870661
0.870739
0.87082
0.870904
0.870991
0.87108
0.871172
0.871267
0.871365
0.871466
0.871569
0.871674
0.871782
0.871892
0.872005
0.872119
0.872235
0.872353
0.872472
0.872593
0.872714
0.872835
0.872956
0.873078
0.873198
0.873317
0.873434
0.873549
0.873661
0.87377
0.873875
0.873974
0.874068
0.874156
0.874237
0.874311
0.874375
0.874431
0.874476
0.87451
0.874532
0.874542
0.874538
0.874519
0.874486
0.874435
0.874368
0.874282
0.874177
0.874052
0.873905
0.873735
0.87354
0.873319
0.873069
0.872787
0.872472
0.872119
0.871725
0.871286
0.870799
0.870269
0.869705
0.869127
0.868598
0.868209
0.867997
0.868154
0.86867
0
0
0.887183
0.887246
0.88705
0.886572
0.885915
0.885141
0.884309
0.88347
0.882651
0.881869
0.881132
0.880442
0.879798
0.879197
0.878636
0.87811
0.877618
0.877154
0.876718
0.876304
0.875912
0.875539
0.875184
0.874845
0.87452
0.874209
0.87391
0.873622
0.873345
0.873077
0.872819
0.87257
0.872328
0.872095
0.871868
0.871648
0.871435
0.871228
0.871027
0.870832
0.870642
0.870457
0.870278
0.870103
0.869933
0.869767
0.869605
0.869448
0.869295
0.869145
0.868999
0.868857
0.868718
0.868583
0.86845
0.868321
0.868195
0.868071
0.86795
0.867831
0.867715
0.867601
0.867489
0.867379
0.867271
0.867165
0.86706
0.866958
0.866857
0.866757
0.86666
0.866563
0.866468
0.866375
0.866283
0.866193
0.866105
0.866019
0.865934
0.865852
0.865772
0.865695
0.865621
0.865549
0.865482
0.865418
0.865358
0.865302
0.865251
0.865205
0.865165
0.86513
0.865101
0.865078
0.865061
0.865051
0.865047
0.865049
0.865058
0.865074
0.865095
0.865123
0.865156
0.865194
0.865237
0.865285
0.865337
0.865392
0.86545
0.865511
0.865575
0.865639
0.865706
0.865773
0.86584
0.865908
0.865975
0.866042
0.866109
0.866174
0.866238
0.866301
0.866363
0.866423
0.866482
0.866539
0.866595
0.866648
0.866701
0.866752
0.866801
0.866849
0.866895
0.86694
0.866984
0.867026
0.867067
0.867107
0.867146
0.867184
0.86722
0.867256
0.867291
0.867324
0.867357
0.867389
0.867421
0.867451
0.867481
0.86751
0.867539
0.867567
0.867594
0.867621
0.867647
0.867672
0.867697
0.867722
0.867746
0.867769
0.867793
0.867815
0.867837
0.867859
0.86788
0.867901
0.867922
0.867942
0.867961
0.867981
0.867999
0.868018
0.868036
0.868054
0.868071
0.868088
0.868104
0.868121
0.868137
0.868152
0.868167
0.868182
0.868197
0.868211
0.868225
0.868239
0.868252
0.868265
0.868278
0.86829
0.868302
0.868314
0.868326
0.868337
0.868348
0.868359
0.86837
0.868381
0.868391
0.868401
0.868411
0.868421
0.86843
0.86844
0.868449
0.868458
0.868467
0.868476
0.868485
0.868493
0.868502
0.86851
0.868519
0.868527
0.868535
0.868543
0.868551
0.868559
0.868567
0.868575
0.868583
0.868591
0.868599
0.868606
0.868614
0.868622
0.868629
0.868637
0.868645
0.868652
0.86866
0.868667
0.868675
0.868682
0.86869
0.868697
0.868704
0.868712
0.868719
0.868727
0.868734
0.868741
0.868749
0.868756
0.868763
0.86877
0.868778
0.868785
0.868792
0.868799
0.868806
0.868813
0.86882
0.868827
0.868834
0.868841
0.868848
0.868855
0.868862
0.868869
0.868876
0.868883
0.86889
0.868897
0.868904
0.868911
0.868919
0.868926
0.868933
0.86894
0.868948
0.868955
0.868963
0.868971
0.868978
0.868986
0.868995
0.869003
0.869012
0.86902
0.869029
0.869039
0.869048
0.869058
0.869068
0.869079
0.86909
0.869101
0.869113
0.869125
0.869138
0.869151
0.869165
0.86918
0.869195
0.86921
0.869227
0.869244
0.869262
0.869281
0.8693
0.869321
0.869342
0.869365
0.869388
0.869413
0.869439
0.869466
0.869494
0.869523
0.869554
0.869587
0.869621
0.869656
0.869693
0.869732
0.869772
0.869814
0.869859
0.869905
0.869953
0.870003
0.870055
0.87011
0.870166
0.870226
0.870287
0.870351
0.870418
0.870487
0.870558
0.870633
0.87071
0.870789
0.870872
0.870957
0.871045
0.871136
0.871229
0.871326
0.871424
0.871526
0.87163
0.871736
0.871845
0.871956
0.872069
0.872184
0.8723
0.872418
0.872537
0.872656
0.872776
0.872896
0.873016
0.873135
0.873253
0.873369
0.873483
0.873594
0.873702
0.873805
0.873904
0.873997
0.874084
0.874164
0.874237
0.8743
0.874355
0.874399
0.874432
0.874453
0.874461
0.874456
0.874436
0.874401
0.874349
0.87428
0.874193
0.874087
0.873961
0.873815
0.873646
0.873454
0.873237
0.872995
0.872726
0.872428
0.872102
0.871745
0.871359
0.870947
0.870516
0.870082
0.869672
0.869318
0.869088
0.869026
0.869185
0.869629
0
0
0.885572
0.885679
0.885567
0.885248
0.884775
0.884184
0.883523
0.882829
0.88213
0.881445
0.880784
0.880155
0.879559
0.878996
0.878466
0.877966
0.877494
0.877048
0.876625
0.876223
0.875841
0.875476
0.875128
0.874795
0.874476
0.874169
0.873874
0.873589
0.873315
0.87305
0.872795
0.872547
0.872308
0.872075
0.87185
0.871632
0.87142
0.871214
0.871014
0.870819
0.87063
0.870446
0.870268
0.870093
0.869924
0.869759
0.869598
0.869441
0.869288
0.869139
0.868994
0.868853
0.868714
0.868579
0.868447
0.868319
0.868193
0.868069
0.867949
0.867831