# vtk DataFile Version 2.0
LBE mesh
ASCII
DATASET STRUCTURED_POINTS
DIMENSIONS 402 102 1
ASPECT_RATIO 1 1 1
ORIGIN 0 0 0
POINT_DATA 41004
SCALARS rho double 1
LOOKUP_TABLE default
0
0
0
0
0
0
0
0
0
0
0
0
0
0
0
0
0
0
0
0
0
0
0
0
0
0
0
0
0
0
0
0
0
0
0
0
0
0
0
0
0
0
0
0
0
0
0
0
0
0
0
0
0
0
0
0
0
0
0
0
0
0
0
0
0
0
0
0
0
0
0
0
0
0
0
0
0
0
0
0
0
0
0
0
0
0
0
0
0
0
0
0
0
0
0
0
0
0
0
0
0
0
0
0
0
0
0
0
0
0
0
0
0
0
0
0
0
0
0
0
0
0
0
0
0
0
0
0
0
0
0
0
0
0
0
0
0
0
0
0
0
0
0
0
0
0
0
0
0
0
0
0
0
0
0
0
0
0
0
0
0
0
0
0
0
0
0
0
0
0
0
0
0
0
0
0
0
0
0
0
0
0
0
0
0
0
0
0
0
0
0
0
0
0
0
0
0
0
0
0
0
0
0
0
0
0
0
0
0
0
0
0
0
0
0
0
0
0
0
0
0
0
0
0
0
0
0
0
0
0
0
0
0
0
0
0
0
0
0
0
0
0
0
0
0
0
0
0
0
0
0
0
0
0
0
0
0
0
0
0
0
0
0
0
0
0
0
0
0
0
0
0
0
0
0
0
0
0
0
0
0
0
0
0
0
0
0
0
0
0
0
0
0
0
0
0
0
0
0
0
0
0
0
0
0
0
0
0
0
0
0
0
0
0
0
0
0
0
0
0
0
0
0
0
0
0
0
0
0
0
0
0
0
0
0
0
0
0
0
0
0
0
0
0
0
0
0
0
0
0
0
0
0
0
0
0
0
0
0
0
0
0
0
0
0
0
0
0
0
0
0
0
0
0
0
0
0
0
0
0
0
0
0
0
0
0
0
0
0
0
0
0
0
0
0
0
0
0
0
0
0
0
0
0.860715
0.922893
0.911111
0.903789
0.900405
0.898207
0.89641
0.894933
0.893711
0.892671
0.891766
0.890966
0.890249
0.889601
0.889011
0.888469
0.887968
0.887503
0.887069
0.886663
0.886281
0.885921
0.885581
0.885259
0.884953
0.884662
0.884385
0.884121
0.883868
0.883626
0.883395
0.883173
0.882961
0.882757
0.882561
0.882373
0.882192
0.882019
0.881852
0.881691
0.881537
0.881388
0.881245
0.881107
0.880974
0.880847
0.880724
0.880605
0.880491
0.880381
0.880274
0.880172
0.880073
0.879977
0.879885
0.879795
0.879709
0.879625
0.879544
0.879465
0.879388
0.879313
0.879241
0.87917
0.8791
0.879033
0.878967
0.878902
0.878839
0.878777
0.878716
0.878656
0.878598
0.878541
0.878485
0.878431
0.878378
0.878327
0.878277
0.87823
0.878184
0.878141
0.878099
0.878061
0.878025
0.877993
0.877964
0.877938
0.877916
0.877898
0.877884
0.877874
0.877869
0.877868
0.877871
0.87788
0.877893
0.87791
0.877932
0.877957
0.877988
0.878022
0.878059
0.8781
0.878144
0.878191
0.878241
0.878292
0.878346
0.878401
0.878457
0.878513
0.878571
0.878628
0.878686
0.878743
0.8788
0.878857
0.878912
0.878967
0.879021
0.879073
0.879124
0.879174
0.879222
0.87927
0.879315
0.87936
0.879403
0.879445
0.879485
0.879525
0.879563
0.879599
0.879635
0.87967
0.879704
0.879736
0.879768
0.879799
0.879829
0.879858
0.879887
0.879915
0.879942
0.879969
0.879995
0.88002
0.880045
0.88007
0.880094
0.880118
0.880141
0.880164
0.880187
0.880209
0.880231
0.880253
0.880275
0.880296
0.880317
0.880338
0.880358
0.880379
0.880399
0.880419
0.880439
0.880459
0.880478
0.880498
0.880517
0.880536
0.880555
0.880574
0.880592
0.880611
0.880629
0.880648
0.880666
0.880684
0.880702
0.88072
0.880738
0.880755
0.880773
0.880791
0.880808
0.880825
0.880843
0.88086
0.880877
0.880894
0.880911
0.880929
0.880946
0.880962
0.880979
0.880996
0.881013
0.88103
0.881047
0.881064
0.881081
0.881097
0.881114
0.881131
0.881148
0.881165
0.881182
0.881199
0.881216
0.881232
0.881249
0.881266
0.881283
0.8813
0.881318
0.881335
0.881352
0.881369
0.881386
0.881403
0.881421
0.881438
0.881455
0.881473
0.88149
0.881508
0.881525
0.881542
0.88156
0.881577
0.881595
0.881612
0.881629
0.881647
0.881664
0.881681
0.881699
0.881716
0.881733
0.88175
0.881767
0.881785
0.881801
0.881818
0.881835
0.881852
0.881869
0.881885
0.881901
0.881918
0.881934
0.88195
0.881966
0.881982
0.881998
0.882013
0.882029
0.882044
0.882059
0.882074
0.882089
0.882104
0.882118
0.882133
0.882147
0.882161
0.882175
0.882189
0.882203
0.882217
0.88223
0.882244
0.882257
0.882271
0.882284
0.882297
0.88231
0.882323
0.882336
0.882349
0.882362
0.882376
0.882389
0.882402
0.882415
0.882429
0.882442
0.882456
0.88247
0.882484
0.882498
0.882513
0.882528
0.882543
0.882559
0.882575
0.882592
0.882609
0.882627
0.882645
0.882664
0.882684
0.882704
0.882725
0.882748
0.882771
0.882795
0.88282
0.882847
0.882874
0.882903
0.882934
0.882966
0.882999
0.883034
0.88307
0.883109
0.883149
0.883191
0.883236
0.883282
0.883331
0.883382
0.883435
0.883491
0.883549
0.88361
0.883674
0.883741
0.88381
0.883882
0.883957
0.884036
0.884117
0.884201
0.884288
0.884379
0.884472
0.884569
0.884668
0.88477
0.884876
0.884983
0.885094
0.885206
0.885321
0.885438
0.885557
0.885677
0.885798
0.88592
0.886043
0.886165
0.886287
0.886408
0.886528
0.886646
0.886762
0.886874
0.886983
0.887087
0.887186
0.88728
0.887367
0.887448
0.88752
0.887585
0.88764
0.887685
0.88772
0.887744
0.887757
0.887757
0.887745
0.887719
0.88768
0.887628
0.88756
0.887478
0.887381
0.887269
0.88714
0.886994
0.88683
0.886646
0.886439
0.886203
0.885933
0.88562
0.885246
0.884765
0.884062
0.883028
0.881911
0.881241
0.877557
0.846311
0.754231
0
0
0.923727
0.916841
0.909476
0.905289
0.901695
0.899016
0.897018
0.895438
0.894127
0.893013
0.892051
0.891207
0.890456
0.889781
0.889168
0.888608
0.888092
0.887615
0.887171
0.886756
0.886366
0.886
0.885654
0.885327
0.885017
0.884722
0.884441
0.884173
0.883918
0.883674
0.88344
0.883216
0.883002
0.882796
0.882599
0.882409
0.882227
0.882052
0.881883
0.881721
0.881566
0.881416
0.881272
0.881133
0.880999
0.880871
0.880747
0.880628
0.880513
0.880402
0.880295
0.880192
0.880092
0.879996
0.879903
0.879813
0.879726
0.879642
0.87956
0.879481
0.879404
0.879329
0.879256
0.879185
0.879115
0.879048
0.878981
0.878917
0.878853
0.878791
0.878731
0.878671
0.878613
0.878556
0.8785
0.878446
0.878394
0.878342
0.878293
0.878245
0.8782
0.878156
0.878115
0.878076
0.878041
0.878008
0.877978
0.877952
0.87793
0.877911
0.877897
0.877886
0.87788
0.877878
0.877881
0.877888
0.8779
0.877916
0.877937
0.877962
0.877991
0.878024
0.87806
0.8781
0.878144
0.87819
0.878238
0.878289
0.878342
0.878396
0.878451
0.878507
0.878564
0.878622
0.878679
0.878736
0.878793
0.878849
0.878905
0.878959
0.879013
0.879065
0.879117
0.879167
0.879215
0.879263
0.879309
0.879353
0.879397
0.879439
0.87948
0.879519
0.879557
0.879594
0.87963
0.879665
0.879699
0.879732
0.879764
0.879795
0.879825
0.879855
0.879883
0.879911
0.879939
0.879966
0.879992
0.880017
0.880043
0.880067
0.880092
0.880115
0.880139
0.880162
0.880185
0.880207
0.880229
0.880251
0.880273
0.880294
0.880315
0.880336
0.880357
0.880377
0.880397
0.880418
0.880437
0.880457
0.880477
0.880496
0.880515
0.880535
0.880554
0.880572
0.880591
0.88061
0.880628
0.880646
0.880665
0.880683
0.880701
0.880719
0.880737
0.880754
0.880772
0.88079
0.880807
0.880824
0.880842
0.880859
0.880876
0.880893
0.880911
0.880928
0.880945
0.880962
0.880979
0.880995
0.881012
0.881029
0.881046
0.881063
0.88108
0.881097
0.881113
0.88113
0.881147
0.881164
0.881181
0.881198
0.881215
0.881232
0.881248
0.881265
0.881282
0.8813
0.881317
0.881334
0.881351
0.881368
0.881385
0.881402
0.88142
0.881437
0.881454
0.881472
0.881489
0.881506
0.881524
0.881541
0.881558
0.881576
0.881593
0.881611
0.881628
0.881645
0.881663
0.88168
0.881697
0.881715
0.881732
0.881749
0.881766
0.881783
0.8818
0.881817
0.881834
0.88185
0.881867
0.881883
0.8819
0.881916
0.881932
0.881948
0.881964
0.88198
0.881996
0.882011
0.882027
0.882042
0.882057
0.882072
0.882087
0.882102
0.882117
0.882131
0.882145
0.88216
0.882174
0.882188
0.882202
0.882215
0.882229
0.882242
0.882256
0.882269
0.882282
0.882296
0.882309
0.882322
0.882335
0.882348
0.882361
0.882374
0.882387
0.882401
0.882414
0.882427
0.882441
0.882455
0.882469
0.882483
0.882497
0.882512
0.882527
0.882542
0.882558
0.882574
0.88259
0.882608
0.882625
0.882643
0.882662
0.882682
0.882702
0.882724
0.882746
0.882769
0.882793
0.882818
0.882844
0.882872
0.8829
0.88293
0.882962
0.882995
0.88303
0.883066
0.883104
0.883144
0.883185
0.883229
0.883275
0.883323
0.883373
0.883426
0.883481
0.883539
0.883599
0.883662
0.883727
0.883795
0.883867
0.883941
0.884018
0.884097
0.88418
0.884266
0.884355
0.884447
0.884542
0.884639
0.88474
0.884843
0.884948
0.885057
0.885167
0.88528
0.885394
0.88551
0.885628
0.885746
0.885866
0.885985
0.886105
0.886224
0.886342
0.886459
0.886574
0.886686
0.886795
0.886901
0.887002
0.887098
0.887188
0.887272
0.887349
0.887418
0.887478
0.88753
0.887571
0.887602
0.887622
0.88763
0.887625
0.887607
0.887576
0.88753
0.887469
0.887392
0.8873
0.887189
0.887061
0.886914
0.886745
0.886552
0.886332
0.886079
0.885786
0.885441
0.885023
0.884496
0.883818
0.882949
0.881758
0.879604
0.874804
0.86687
0.859387
0.848394
0
0
0.920262
0.911734
0.908685
0.905009
0.901684
0.899216
0.897273
0.895675
0.894338
0.893201
0.892218
0.891355
0.890587
0.889898
0.889273
0.888703
0.888178
0.887694
0.887243
0.886822
0.886428
0.886058
0.885708
0.885378
0.885065
0.884767
0.884484
0.884214
0.883957
0.883711
0.883475
0.88325
0.883034
0.882827
0.882628
0.882437
0.882254
0.882078
0.881908
0.881746
0.881589
0.881438
0.881293
0.881154
0.88102
0.88089
0.880766
0.880646
0.88053
0.880419
0.880311
0.880208
0.880108
0.880011
0.879918
0.879828
0.87974
0.879656
0.879574
0.879494
0.879417
0.879342
0.879269
0.879198
0.879128
0.87906
0.878994
0.87893
0.878866
0.878804
0.878744
0.878684
0.878626
0.878569
0.878514
0.878459
0.878407
0.878356
0.878306
0.878258
0.878213
0.878169
0.878127
0.878089
0.878052
0.878019
0.877989
0.877962
0.877939
0.87792
0.877904
0.877893
0.877886
0.877883
0.877885
0.877892
0.877903
0.877918
0.877938
0.877961
0.87799
0.878022
0.878058
0.878097
0.878139
0.878185
0.878233
0.878283
0.878335
0.878389
0.878444
0.8785
0.878557
0.878614
0.878672
0.878729
0.878786
0.878842
0.878898
0.878953
0.879006
0.879059
0.87911
0.879161
0.87921
0.879257
0.879303
0.879348
0.879392
0.879434
0.879475
0.879515
0.879553
0.87959
0.879626
0.879661
0.879695
0.879728
0.879761
0.879792
0.879822
0.879852
0.879881
0.879909
0.879936
0.879963
0.879989
0.880015
0.88004
0.880065
0.880089
0.880113
0.880137
0.88016
0.880183
0.880205
0.880228
0.880249
0.880271
0.880293
0.880314
0.880335
0.880355
0.880376
0.880396
0.880416
0.880436
0.880456
0.880476
0.880495
0.880514
0.880533
0.880552
0.880571
0.88059
0.880609
0.880627
0.880645
0.880664
0.880682
0.8807
0.880718
0.880736
0.880753
0.880771
0.880789
0.880806
0.880824
0.880841
0.880858
0.880875
0.880893
0.88091
0.880927
0.880944
0.880961
0.880978
0.880995
0.881012
0.881028
0.881045
0.881062
0.881079
0.881096
0.881113
0.881129
0.881146
0.881163
0.88118
0.881197
0.881214
0.881231
0.881248
0.881265
0.881282
0.881299
0.881316
0.881333
0.88135
0.881367
0.881384
0.881401
0.881419
0.881436
0.881453
0.88147
0.881488
0.881505
0.881522
0.88154
0.881557
0.881575
0.881592
0.881609
0.881627
0.881644
0.881661
0.881679
0.881696
0.881713
0.88173
0.881747
0.881764
0.881781
0.881798
0.881815
0.881832
0.881849
0.881865
0.881882
0.881898
0.881914
0.881931
0.881947
0.881963
0.881978
0.881994
0.88201
0.882025
0.88204
0.882056
0.882071
0.882086
0.8821
0.882115
0.882129
0.882144
0.882158
0.882172
0.882186
0.8822
0.882214
0.882227
0.882241
0.882254
0.882267
0.882281
0.882294
0.882307
0.88232
0.882333
0.882346
0.882359
0.882373
0.882386
0.882399
0.882412
0.882426
0.882439
0.882453
0.882467
0.882481
0.882495
0.88251
0.882525
0.88254
0.882556
0.882572
0.882588
0.882605
0.882623
0.882641
0.88266
0.882679
0.8827
0.882721
0.882742
0.882765
0.882789
0.882814
0.88284
0.882867
0.882896
0.882925
0.882956
0.882989
0.883023
0.883059
0.883097
0.883136
0.883177
0.88322
0.883265
0.883313
0.883362
0.883414
0.883468
0.883525
0.883584
0.883646
0.883711
0.883778
0.883848
0.88392
0.883996
0.884075
0.884156
0.88424
0.884328
0.884418
0.884511
0.884607
0.884705
0.884807
0.88491
0.885016
0.885125
0.885235
0.885348
0.885461
0.885577
0.885693
0.88581
0.885927
0.886044
0.886161
0.886276
0.886391
0.886503
0.886612
0.886719
0.886822
0.88692
0.887013
0.887101
0.887182
0.887256
0.887322
0.88738
0.887428
0.887466
0.887494
0.887509
0.887513
0.887504
0.887481
0.887444
0.887391
0.887323
0.887238
0.887135
0.887013
0.88687
0.886705
0.886515
0.886297
0.886046
0.885755
0.885415
0.88501
0.88452
0.883913
0.883123
0.882041
0.88055
0.878562
0.875438
0.869573
0.866159
0.871412
0
0
0.910811
0.908518
0.906541
0.903518
0.901091
0.898986
0.897177
0.895654
0.894362
0.893247
0.892272
0.891412
0.890644
0.889954
0.889327
0.888754
0.888227
0.88774
0.887287
0.886864
0.886468
0.886095
0.885744
0.885412
0.885097
0.884799
0.884514
0.884243
0.883984
0.883737
0.883501
0.883275
0.883058
0.88285
0.88265
0.882458
0.882274
0.882097
0.881927
0.881764
0.881607
0.881455
0.88131
0.88117
0.881035
0.880905
0.88078
0.88066
0.880544
0.880432
0.880324
0.88022
0.88012
0.880023
0.87993
0.879839
0.879752
0.879667
0.879585
0.879505
0.879428
0.879353
0.87928
0.879208
0.879139
0.879071
0.879005
0.878941
0.878877
0.878815
0.878755
0.878695
0.878637
0.87858
0.878525
0.878471
0.878418
0.878366
0.878317
0.878269
0.878223
0.878178
0.878137
0.878097
0.878061
0.878027
0.877996
0.877968
0.877944
0.877924
0.877908
0.877895
0.877887
0.877884
0.877885
0.87789
0.8779
0.877914
0.877933
0.877957
0.877984
0.878015
0.878051
0.87809
0.878132
0.878177
0.878225
0.878275
0.878327
0.878381
0.878436
0.878492
0.878549
0.878607
0.878664
0.878722
0.878779
0.878835
0.878891
0.878946
0.879
0.879053
0.879105
0.879156
0.879205
0.879252
0.879299
0.879344
0.879388
0.87943
0.879471
0.879511
0.87955
0.879587
0.879623
0.879659
0.879693
0.879726
0.879758
0.879789
0.87982
0.879849
0.879878
0.879907
0.879934
0.879961
0.879987
0.880013
0.880039
0.880063
0.880088
0.880112
0.880135
0.880159
0.880181
0.880204
0.880226
0.880248
0.88027
0.880291
0.880312
0.880333
0.880354
0.880375
0.880395
0.880415
0.880435
0.880455
0.880474
0.880494
0.880513
0.880532
0.880551
0.88057
0.880589
0.880608
0.880626
0.880644
0.880663
0.880681
0.880699
0.880717
0.880735
0.880753
0.88077
0.880788
0.880805
0.880823
0.88084
0.880857
0.880875
0.880892
0.880909
0.880926
0.880943
0.88096
0.880977
0.880994
0.881011
0.881028
0.881044
0.881061
0.881078
0.881095
0.881112
0.881129
0.881145
0.881162
0.881179
0.881196
0.881213
0.88123
0.881247
0.881264
0.881281
0.881298
0.881315
0.881332
0.881349
0.881366
0.881383
0.8814
0.881418
0.881435
0.881452
0.881469
0.881487
0.881504
0.881521
0.881539
0.881556
0.881573
0.881591
0.881608
0.881625
0.881643
0.88166
0.881677
0.881694
0.881712
0.881729
0.881746
0.881763
0.88178
0.881797
0.881814
0.88183
0.881847
0.881864
0.88188
0.881896
0.881913
0.881929
0.881945
0.881961
0.881977
0.881992
0.882008
0.882023
0.882039
0.882054
0.882069
0.882084
0.882098
0.882113
0.882127
0.882142
0.882156
0.88217
0.882184
0.882198
0.882212
0.882225
0.882239
0.882252
0.882266
0.882279
0.882292
0.882305
0.882318
0.882331
0.882344
0.882357
0.882371
0.882384
0.882397
0.88241
0.882424
0.882437
0.882451
0.882464
0.882479
0.882493
0.882507
0.882522
0.882537
0.882553
0.882569
0.882585
0.882602
0.882619
0.882637
0.882656
0.882675
0.882695
0.882716
0.882738
0.88276
0.882784
0.882808
0.882834
0.882861
0.882889
0.882918
0.882949
0.882981
0.883015
0.88305
0.883087
0.883126
0.883166
0.883209
0.883253
0.8833
0.883348
0.883399
0.883453
0.883509
0.883567
0.883627
0.883691
0.883757
0.883826
0.883897
0.883971
0.884049
0.884129
0.884211
0.884297
0.884386
0.884477
0.884571
0.884668
0.884768
0.884869
0.884974
0.88508
0.885189
0.885299
0.885411
0.885524
0.885638
0.885753
0.885868
0.885983
0.886097
0.886211
0.886323
0.886433
0.88654
0.886645
0.886745
0.886842
0.886933
0.887018
0.887097
0.887169
0.887232
0.887287
0.887333
0.887369
0.887393
0.887406
0.887406
0.887393
0.887365
0.887323
0.887265
0.88719
0.887097
0.886986
0.886853
0.886699
0.88652
0.886314
0.886077
0.885804
0.885487
0.885118
0.884681
0.884155
0.883511
0.882715
0.881706
0.880335
0.878447
0.876422
0.874606
0.873065
0.875538
0
0
0.905163
0.905169
0.90368
0.901873
0.9001
0.898348
0.896788
0.895419
0.894216
0.893156
0.892218
0.891381
0.890629
0.889949
0.889329
0.888761
0.888237
0.887753
0.887301
0.88688
0.886484
0.886112
0.885761
0.885429
0.885115
0.884816
0.884531
0.88426
0.884001
0.883753
0.883517
0.88329
0.883072
0.882864
0.882664
0.882472
0.882288
0.88211
0.88194
0.881776
0.881618
0.881467
0.881321
0.88118
0.881045
0.880915
0.88079
0.880669
0.880553
0.880441
0.880333
0.880229
0.880129
0.880032
0.879938
0.879848
0.87976
0.879675
0.879593
0.879514
0.879436
0.879361
0.879288
0.879217
0.879148
0.87908
0.879014
0.87895
0.878887
0.878825
0.878764
0.878705
0.878647
0.87859
0.878534
0.87848
0.878427
0.878375
0.878325
0.878276
0.87823
0.878185
0.878143
0.878103
0.878065
0.87803
0.877998
0.87797
0.877945
0.877924
0.877906
0.877893
0.877884
0.877879
0.877879
0.877883
0.877893
0.877906
0.877924
0.877947
0.877974
0.878005
0.87804
0.878079
0.878121
0.878166
0.878214
0.878264
0.878317
0.878371
0.878427
0.878483
0.878541
0.878598
0.878656
0.878714
0.878772
0.878829
0.878885
0.878941
0.878995
0.879049
0.879101
0.879151
0.879201
0.879249
0.879296
0.879341
0.879385
0.879427
0.879469
0.879509
0.879547
0.879585
0.879621
0.879657
0.879691
0.879724
0.879756
0.879788
0.879818
0.879848
0.879877
0.879905
0.879933
0.87996
0.879986
0.880012
0.880037
0.880062
0.880087
0.880111
0.880134
0.880157
0.88018
0.880203
0.880225
0.880247
0.880269
0.88029
0.880311
0.880332
0.880353
0.880374
0.880394
0.880414
0.880434
0.880454
0.880473
0.880493
0.880512
0.880531
0.88055
0.880569
0.880588
0.880607
0.880625
0.880644
0.880662
0.88068
0.880698
0.880716
0.880734
0.880752
0.880769
0.880787
0.880805
0.880822
0.880839
0.880857
0.880874
0.880891
0.880908
0.880925
0.880942
0.880959
0.880976
0.880993
0.88101
0.881027
0.881044
0.881061
0.881077
0.881094
0.881111
0.881128
0.881145
0.881161
0.881178
0.881195
0.881212
0.881229
0.881246
0.881263
0.88128
0.881297
0.881314
0.881331
0.881348
0.881365
0.881382
0.881399
0.881416
0.881434
0.881451
0.881468
0.881485
0.881503
0.88152
0.881537
0.881555
0.881572
0.881589
0.881607
0.881624
0.881641
0.881658
0.881676
0.881693
0.88171
0.881727
0.881744
0.881761
0.881778
0.881795
0.881812
0.881829
0.881845
0.881862
0.881878
0.881895
0.881911
0.881927
0.881943
0.881959
0.881975
0.88199
0.882006
0.882021
0.882037
0.882052
0.882067
0.882082
0.882096
0.882111
0.882125
0.88214
0.882154
0.882168
0.882182
0.882196
0.882209
0.882223
0.882237
0.88225
0.882263
0.882277
0.88229
0.882303
0.882316
0.882329
0.882342
0.882355
0.882368
0.882381
0.882394
0.882408
0.882421
0.882434
0.882448
0.882462
0.882475
0.88249
0.882504
0.882519
0.882534
0.882549
0.882565
0.882581
0.882598
0.882615
0.882633
0.882651
0.88267
0.88269
0.882711
0.882732
0.882754
0.882777
0.882802
0.882827
0.882853
0.882881
0.88291
0.88294
0.882971
0.883004
0.883039
0.883075
0.883113
0.883153
0.883195
0.883239
0.883284
0.883332
0.883382
0.883435
0.883489
0.883546
0.883606
0.883668
0.883733
0.8838
0.883871
0.883944
0.884019
0.884098
0.884179
0.884264
0.884351
0.88444
0.884533
0.884628
0.884726
0.884826
0.884928
0.885033
0.88514
0.885248
0.885358
0.885469
0.885582
0.885695
0.885808
0.885921
0.886034
0.886146
0.886256
0.886364
0.88647
0.886572
0.886671
0.886766
0.886855
0.886939
0.887016
0.887085
0.887147
0.8872
0.887244
0.887277
0.887299
0.887309
0.887306
0.88729
0.887259
0.887212
0.88715
0.88707
0.886971
0.886852
0.886712
0.886549
0.886361
0.886144
0.885895
0.88561
0.885282
0.884903
0.884461
0.883941
0.883323
0.882575
0.881675
0.880622
0.879373
0.878035
0.877335
0.877115
0.877767
0
0
0.901929
0.902052
0.901235
0.900177
0.898848
0.897492
0.896206
0.895012
0.893927
0.892949
0.892067
0.89127
0.890546
0.889887
0.889282
0.888726
0.888211
0.887733
0.887287
0.88687
0.886478
0.886109
0.88576
0.88543
0.885116
0.884818
0.884535
0.884264
0.884006
0.883759
0.883522
0.883296
0.883078
0.88287
0.88267
0.882478
0.882294
0.882116
0.881946
0.881782
0.881624
0.881472
0.881326
0.881186
0.881051
0.880921
0.880795
0.880675
0.880558
0.880446
0.880338
0.880234
0.880134
0.880037
0.879943
0.879853
0.879765
0.879681
0.879599
0.879519
0.879442
0.879367
0.879295
0.879224
0.879155
0.879087
0.879021
0.878957
0.878894
0.878832
0.878771
0.878712
0.878654
0.878597
0.878541
0.878487
0.878433
0.878381
0.878331
0.878282
0.878234
0.878189
0.878146
0.878104
0.878066
0.87803
0.877997
0.877967
0.877941
0.877919
0.8779
0.877885
0.877875
0.87787
0.877868
0.877872
0.87788
0.877893
0.877911
0.877933
0.87796
0.877991
0.878026
0.878064
0.878107
0.878152
0.878201
0.878251
0.878304
0.878359
0.878416
0.878473
0.878531
0.87859
0.878648
0.878707
0.878765
0.878823
0.87888
0.878936
0.878991
0.879045
0.879097
0.879148
0.879198
0.879246
0.879293
0.879339
0.879383
0.879426
0.879467
0.879507
0.879546
0.879584
0.87962
0.879655
0.87969
0.879723
0.879755
0.879787
0.879817
0.879847
0.879876
0.879904
0.879932
0.879959
0.879985
0.880011
0.880036
0.880061
0.880086
0.88011
0.880133
0.880156
0.880179
0.880202
0.880224
0.880246
0.880268
0.880289
0.88031
0.880331
0.880352
0.880373
0.880393
0.880413
0.880433
0.880453
0.880473
0.880492
0.880511
0.880531
0.88055
0.880569
0.880587
0.880606
0.880624
0.880643
0.880661
0.880679
0.880697
0.880715
0.880733
0.880751
0.880769
0.880786
0.880804
0.880821
0.880839
0.880856
0.880873
0.88089
0.880908
0.880925
0.880942
0.880959
0.880976
0.880992
0.881009
0.881026
0.881043
0.88106
0.881077
0.881094
0.88111
0.881127
0.881144
0.881161
0.881178
0.881194
0.881211
0.881228
0.881245
0.881262
0.881279
0.881296
0.881313
0.88133
0.881347
0.881364
0.881381
0.881398
0.881415
0.881433
0.88145
0.881467
0.881484
0.881502
0.881519
0.881536
0.881553
0.881571
0.881588
0.881605
0.881622
0.88164
0.881657
0.881674
0.881691
0.881708
0.881726
0.881743
0.88176
0.881776
0.881793
0.88181
0.881827
0.881843
0.88186
0.881876
0.881893
0.881909
0.881925
0.881941
0.881957
0.881973
0.881988
0.882004
0.882019
0.882034
0.88205
0.882065
0.882079
0.882094
0.882109
0.882123
0.882137
0.882152
0.882166
0.88218
0.882193
0.882207
0.882221
0.882234
0.882248
0.882261
0.882274
0.882287
0.8823
0.882313
0.882326
0.882339
0.882352
0.882365
0.882378
0.882391
0.882404
0.882418
0.882431
0.882444
0.882458
0.882472
0.882486
0.8825
0.882515
0.88253
0.882545
0.88256
0.882576
0.882593
0.88261
0.882627
0.882645
0.882664
0.882684
0.882704
0.882725
0.882747
0.882769
0.882793
0.882818
0.882844
0.882871
0.882899
0.882929
0.88296
0.882992
0.883026
0.883062
0.883099
0.883138
0.883179
0.883222
0.883266
0.883313
0.883362
0.883414
0.883467
0.883523
0.883582
0.883643
0.883706
0.883773
0.883841
0.883913
0.883987
0.884065
0.884144
0.884227
0.884313
0.884401
0.884492
0.884585
0.884681
0.88478
0.884881
0.884984
0.885089
0.885195
0.885304
0.885413
0.885524
0.885635
0.885747
0.885859
0.88597
0.88608
0.886189
0.886295
0.8864
0.886501
0.886598
0.886691
0.886779
0.886861
0.886937
0.887005
0.887066
0.887117
0.887159
0.88719
0.88721
0.887218
0.887213
0.887194
0.88716
0.88711
0.887044
0.88696
0.886857
0.886734
0.886589
0.886421
0.886227
0.886006
0.885753
0.885466
0.88514
0.884768
0.884342
0.883854
0.883295
0.882654
0.881921
0.881116
0.880328
0.879604
0.87917
0.879312
0.879803
0
0
0.89956
0.899595
0.899211
0.898509
0.897563
0.89654
0.895495
0.894482
0.89353
0.892647
0.891835
0.891089
0.890403
0.889773
0.88919
0.888651
0.88815
0.887683
0.887246
0.886836
0.88645
0.886085
0.88574
0.885413
0.885103
0.884807
0.884525
0.884256
0.883999
0.883753
0.883518
0.883292
0.883076
0.882868
0.882668
0.882477
0.882292
0.882115
0.881945
0.881781
0.881624
0.881472
0.881327
0.881186
0.881051
0.880921
0.880796
0.880675
0.880559
0.880447
0.880339
0.880235
0.880135
0.880038
0.879945
0.879855
0.879768
0.879683
0.879602
0.879522
0.879446
0.879371
0.879298
0.879228
0.879159
0.879092
0.879026
0.878962
0.878899
0.878837
0.878777
0.878718
0.878659
0.878602
0.878546
0.878491
0.878438
0.878385
0.878334
0.878284
0.878236
0.87819
0.878145
0.878103
0.878063
0.878026
0.877992
0.877961
0.877933
0.877909
0.877889
0.877873
0.877862
0.877855
0.877853
0.877855
0.877863
0.877875
0.877892
0.877914
0.877941
0.877972
0.878007
0.878046
0.878089
0.878135
0.878185
0.878236
0.87829
0.878346
0.878403
0.878462
0.878521
0.87858
0.87864
0.8787
0.878759
0.878817
0.878875
0.878932
0.878987
0.879041
0.879094
0.879146
0.879196
0.879245
0.879292
0.879338
0.879382
0.879425
0.879467
0.879507
0.879546
0.879583
0.87962
0.879655
0.879689
0.879723
0.879755
0.879786
0.879817
0.879847
0.879876
0.879904
0.879931
0.879958
0.879985
0.880011
0.880036
0.880061
0.880085
0.880109
0.880133
0.880156
0.880179
0.880201
0.880224
0.880245
0.880267
0.880289
0.88031
0.880331
0.880352
0.880372
0.880392
0.880412
0.880433
0.880452
0.880472
0.880491
0.880511
0.88053
0.880549
0.880568
0.880587
0.880605
0.880624
0.880642
0.880661
0.880679
0.880697
0.880715
0.880733
0.88075
0.880768
0.880786
0.880803
0.880821
0.880838
0.880855
0.880873
0.88089
0.880907
0.880924
0.880941
0.880958
0.880975
0.880992
0.881009
0.881026
0.881042
0.881059
0.881076
0.881093
0.88111
0.881126
0.881143
0.88116
0.881177
0.881194
0.881211
0.881227
0.881244
0.881261
0.881278
0.881295
0.881312
0.881329
0.881346
0.881363
0.88138
0.881397
0.881414
0.881432
0.881449
0.881466
0.881483
0.8815
0.881518
0.881535
0.881552
0.881569
0.881587
0.881604
0.881621
0.881638
0.881655
0.881673
0.88169
0.881707
0.881724
0.881741
0.881758
0.881775
0.881792
0.881808
0.881825
0.881841
0.881858
0.881874
0.881891
0.881907
0.881923
0.881939
0.881955
0.881971
0.881986
0.882002
0.882017
0.882032
0.882047
0.882062
0.882077
0.882092
0.882106
0.882121
0.882135
0.882149
0.882163
0.882177
0.882191
0.882204
0.882218
0.882231
0.882245
0.882258
0.882271
0.882284
0.882297
0.88231
0.882323
0.882336
0.882349
0.882362
0.882375
0.882388
0.882401
0.882414
0.882427
0.882441
0.882454
0.882468
0.882482
0.882496
0.88251
0.882525
0.88254
0.882555
0.882571
0.882587
0.882604
0.882621
0.882639
0.882657
0.882676
0.882696
0.882717
0.882738
0.88276
0.882784
0.882808
0.882833
0.88286
0.882887
0.882916
0.882947
0.882978
0.883011
0.883046
0.883083
0.883121
0.883161
0.883203
0.883247
0.883292
0.883341
0.883391
0.883443
0.883498
0.883555
0.883615
0.883677
0.883742
0.88381
0.88388
0.883953
0.884029
0.884107
0.884188
0.884272
0.884359
0.884448
0.88454
0.884635
0.884732
0.884831
0.884932
0.885036
0.885141
0.885248
0.885356
0.885465
0.885575
0.885685
0.885795
0.885905
0.886014
0.886121
0.886227
0.88633
0.88643
0.886526
0.886618
0.886705
0.886786
0.88686
0.886927
0.886986
0.887036
0.887077
0.887107
0.887125
0.887131
0.887124
0.887103
0.887067
0.887015
0.886947
0.88686
0.886754
0.886629
0.886482
0.886312
0.886117
0.885897
0.885647
0.885367
0.885052
0.8847
0.884306
0.883867
0.88338
0.882848
0.882284
0.881704
0.881175
0.880786
0.880577
0.880741
0.881268
0
0
0.897603
0.897671
0.897475
0.896996
0.896334
0.895556
0.89472
0.893877
0.893056
0.892273
0.891537
0.890849
0.890208
0.889613
0.889058
0.888541
0.888057
0.887604
0.887179
0.886778
0.8864
0.886042
0.885703
0.885381
0.885074
0.884782
0.884503
0.884236
0.883982
0.883737
0.883503
0.883279
0.883064
0.882857
0.882658
0.882468
0.882284
0.882108
0.881938
0.881775
0.881618
0.881466
0.881321
0.881181
0.881046
0.880917
0.880792
0.880671
0.880556
0.880444
0.880337
0.880233
0.880133
0.880037
0.879944
0.879854
0.879767
0.879683
0.879602
0.879523
0.879446
0.879372
0.8793
0.87923
0.879161
0.879094
0.879029
0.878965
0.878902
0.878841
0.87878
0.878721
0.878663
0.878605
0.878549
0.878494
0.87844
0.878386
0.878335
0.878284
0.878235
0.878188
0.878142
0.878099
0.878057
0.878019
0.877983
0.87795
0.877921
0.877896
0.877874
0.877857
0.877844
0.877836
0.877832
0.877834
0.877841
0.877853
0.877869
0.877891
0.877918
0.877949
0.877985
0.878025
0.878069
0.878116
0.878166
0.878219
0.878274
0.878331
0.87839
0.878449
0.87851
0.878571
0.878632
0.878692
0.878752
0.878812
0.87887
0.878928
0.878984
0.879039
0.879093
0.879145
0.879195
0.879244
0.879292
0.879338
0.879382
0.879425
0.879467
0.879507
0.879546
0.879584
0.87962
0.879656
0.87969
0.879723
0.879755
0.879787
0.879817
0.879847
0.879876
0.879904
0.879931
0.879958
0.879985
0.88001
0.880036
0.880061
0.880085
0.880109
0.880132
0.880156
0.880178
0.880201
0.880223
0.880245
0.880267
0.880288
0.880309
0.88033
0.880351
0.880371
0.880392
0.880412
0.880432
0.880452
0.880471
0.880491
0.88051
0.880529
0.880548
0.880567
0.880586
0.880605
0.880623
0.880642
0.88066
0.880678
0.880696
0.880714
0.880732
0.88075
0.880768
0.880785
0.880803
0.88082
0.880837
0.880855
0.880872
0.880889
0.880906
0.880923
0.88094
0.880957
0.880974
0.880991
0.881008
0.881025
0.881042
0.881059
0.881075
0.881092
0.881109
0.881126
0.881143
0.881159
0.881176
0.881193
0.88121
0.881227
0.881244
0.88126
0.881277
0.881294
0.881311
0.881328
0.881345
0.881362
0.881379
0.881396
0.881413
0.88143
0.881448
0.881465
0.881482
0.881499
0.881516
0.881534
0.881551
0.881568
0.881585
0.881602
0.88162
0.881637
0.881654
0.881671
0.881688
0.881705
0.881722
0.881739
0.881756
0.881773
0.88179
0.881806
0.881823
0.88184
0.881856
0.881872
0.881889
0.881905
0.881921
0.881937
0.881953
0.881968
0.881984
0.881999
0.882015
0.88203
0.882045
0.88206
0.882075
0.882089
0.882104
0.882118
0.882132
0.882147
0.882161
0.882174
0.882188
0.882202
0.882215
0.882229
0.882242
0.882255
0.882268
0.882281
0.882294
0.882307
0.88232
0.882333
0.882345
0.882358
0.882371
0.882384
0.882397
0.88241
0.882423
0.882436
0.882449
0.882463
0.882477
0.88249
0.882505
0.882519
0.882534
0.882549
0.882564
0.88258
0.882597
0.882614
0.882631
0.882649
0.882668
0.882687
0.882707
0.882728
0.88275
0.882773
0.882796
0.882821
0.882847
0.882874
0.882902
0.882932
0.882963
0.882995
0.883029
0.883065
0.883102
0.883141
0.883182
0.883225
0.88327
0.883317
0.883366
0.883417
0.883471
0.883527
0.883585
0.883646
0.88371
0.883776
0.883845
0.883916
0.88399
0.884067
0.884147
0.884229
0.884315
0.884402
0.884493
0.884586
0.884681
0.884779
0.884879
0.884981
0.885084
0.88519
0.885297
0.885404
0.885513
0.885622
0.885731
0.885839
0.885947
0.886053
0.886157
0.886259
0.886358
0.886453
0.886544
0.88663
0.88671
0.886784
0.88685
0.886908
0.886957
0.886996
0.887025
0.887042
0.887047
0.887039
0.887017
0.886979
0.886926
0.886856
0.886768
0.886661
0.886535
0.886389
0.88622
0.886029
0.885813
0.885572
0.885304
0.885008
0.884682
0.884326
0.883941
0.88353
0.8831
0.882667
0.882258
0.881906
0.881679
0.881621
0.881787
0.882241
0
0
0.895977
0.896089
0.89598
0.895661
0.895186
0.894593
0.893929
0.893234
0.892533
0.891848
0.891189
0.890562
0.889971
0.889414
0.88889
0.888398
0.887935
0.887499
0.887088
0.886699
0.88633
0.885981
0.885649
0.885332
0.885031
0.884743
0.884468
0.884205
0.883953
0.883711
0.883479
0.883257
0.883043
0.882838
0.882641
0.882451
0.882269
0.882093
0.881924
0.881762
0.881605
0.881455
0.88131
0.881171
0.881036
0.880907
0.880783
0.880663
0.880548
0.880437
0.88033
0.880226
0.880127
0.880031
0.879939
0.879849
0.879763
0.879679
0.879598
0.87952
0.879444