# vtk DataFile Version 2.0
LBE mesh
ASCII
DATASET STRUCTURED_POINTS
DIMENSIONS 402 102 1
ASPECT_RATIO 1 1 1
ORIGIN 0 0 0
POINT_DATA 41004
SCALARS rho double 1
LOOKUP_TABLE default
0
0
0
0
0
0
0
0
0
0
0
0
0
0
0
0
0
0
0
0
0
0
0
0
0
0
0
0
0
0
0
0
0
0
0
0
0
0
0
0
0
0
0
0
0
0
0
0
0
0
0
0
0
0
0
0
0
0
0
0
0
0
0
0
0
0
0
0
0
0
0
0
0
0
0
0
0
0
0
0
0
0
0
0
0
0
0
0
0
0
0
0
0
0
0
0
0
0
0
0
0
0
0
0
0
0
0
0
0
0
0
0
0
0
0
0
0
0
0
0
0
0
0
0
0
0
0
0
0
0
0
0
0
0
0
0
0
0
0
0
0
0
0
0
0
0
0
0
0
0
0
0
0
0
0
0
0
0
0
0
0
0
0
0
0
0
0
0
0
0
0
0
0
0
0
0
0
0
0
0
0
0
0
0
0
0
0
0
0
0
0
0
0
0
0
0
0
0
0
0
0
0
0
0
0
0
0
0
0
0
0
0
0
0
0
0
0
0
0
0
0
0
0
0
0
0
0
0
0
0
0
0
0
0
0
0
0
0
0
0
0
0
0
0
0
0
0
0
0
0
0
0
0
0
0
0
0
0
0
0
0
0
0
0
0
0
0
0
0
0
0
0
0
0
0
0
0
0
0
0
0
0
0
0
0
0
0
0
0
0
0
0
0
0
0
0
0
0
0
0
0
0
0
0
0
0
0
0
0
0
0
0
0
0
0
0
0
0
0
0
0
0
0
0
0
0
0
0
0
0
0
0
0
0
0
0
0
0
0
0
0
0
0
0
0
0
0
0
0
0
0
0
0
0
0
0
0
0
0
0
0
0
0
0
0
0
0
0
0
0
0
0
0
0
0
0
0
0
0
0
0
0
0
0
0
0
0
0
0
0
0
0
0
0
0
0
0
0
0
0
0
0
0
0.948213
1.0167
1.0037
0.99562
0.991879
0.989445
0.987453
0.985815
0.98446
0.98331
0.982311
0.981432
0.980652
0.979954
0.979326
0.978758
0.978244
0.977776
0.977351
0.976964
0.97661
0.976288
0.975994
0.975725
0.975479
0.975254
0.975049
0.97486
0.974687
0.974528
0.974381
0.974245
0.974119
0.974001
0.97389
0.973785
0.973686
0.973591
0.9735
0.973411
0.973324
0.973238
0.973154
0.97307
0.972985
0.9729
0.972815
0.972728
0.972639
0.972549
0.972457
0.972364
0.972268
0.97217
0.97207
0.971968
0.971865
0.971759
0.971651
0.971541
0.97143
0.971318
0.971204
0.971089
0.970973
0.970856
0.970739
0.970621
0.970503
0.970386
0.970269
0.970152
0.970036
0.969922
0.969808
0.969697
0.969587
0.969479
0.969374
0.969272
0.969172
0.969075
0.968982
0.968893
0.968807
0.968725
0.968647
0.968574
0.968505
0.968441
0.968381
0.968325
0.968275
0.968229
0.968187
0.96815
0.968118
0.968089
0.968065
0.968044
0.968028
0.968014
0.968003
0.967996
0.96799
0.967987
0.967986
0.967986
0.967987
0.96799
0.967993
0.967996
0.968
0.968003
0.968006
0.968008
0.96801
0.96801
0.96801
0.968008
0.968004
0.968
0.967993
0.967985
0.967974
0.967962
0.967948
0.967931
0.967912
0.967891
0.967867
0.967842
0.967813
0.967782
0.967748
0.967712
0.967672
0.967631
0.967586
0.967539
0.967489
0.967437
0.967383
0.967326
0.967266
0.967205
0.967141
0.967075
0.967008
0.966939
0.966869
0.966798
0.966725
0.966652
0.966578
0.966504
0.96643
0.966356
0.966281
0.966207
0.966134
0.966061
0.965989
0.965919
0.965848
0.96578
0.965712
0.965645
0.96558
0.965516
0.965452
0.965391
0.96533
0.96527
0.965211
0.965153
0.965096
0.965039
0.964983
0.964928
0.964873
0.964819
0.964764
0.96471
0.964656
0.964603
0.96455
0.964497
0.964444
0.964391
0.964339
0.964287
0.964236
0.964185
0.964135
0.964086
0.964038
0.963991
0.963946
0.963902
0.963859
0.963818
0.963779
0.963742
0.963707
0.963675
0.963644
0.963616
0.96359
0.963567
0.963547
0.963529
0.963513
0.9635
0.96349
0.963482
0.963477
0.963474
0.963474
0.963476
0.96348
0.963487
0.963495
0.963507
0.963519
0.963535
0.963551
0.96357
0.963591
0.963613
0.963637
0.963662
0.963689
0.963718
0.963747
0.963778
0.963809
0.963842
0.963876
0.96391
0.963945
0.963981
0.964017
0.964053
0.964089
0.964125
0.964161
0.964197
0.964232
0.964267
0.9643
0.964333
0.964365
0.964395
0.964424
0.964452
0.964479
0.964503
0.964526
0.964548
0.964567
0.964585
0.964601
0.964615
0.964627
0.964638
0.964646
0.964653
0.964659
0.964662
0.964665
0.964666
0.964665
0.964664
0.964661
0.964658
0.964653
0.964648
0.964643
0.964636
0.964629
0.964622
0.964614
0.964606
0.964597
0.964589
0.96458
0.96457
0.96456
0.96455
0.96454
0.964529
0.964517
0.964505
0.964492
0.964478
0.964464
0.964448
0.964431
0.964413
0.964394
0.964374
0.964352
0.964328
0.964303
0.964276
0.964248
0.964218
0.964186
0.964153
0.964117
0.964081
0.964042
0.964002
0.96396
0.963917
0.963873
0.963827
0.963781
0.963733
0.963684
0.963634
0.963584
0.963533
0.963482
0.963431
0.963379
0.963327
0.963275
0.963223
0.963172
0.963121
0.96307
0.96302
0.96297
0.962921
0.962873
0.962825
0.962778
0.962731
0.962685
0.96264
0.962596
0.962552
0.962508
0.962466
0.962423
0.962381
0.962339
0.962297
0.962255
0.962213
0.962171
0.962129
0.962086
0.962043
0.961998
0.961953
0.961907
0.96186
0.961812
0.961762
0.961711
0.961658
0.961603
0.961547
0.961488
0.961427
0.961364
0.961299
0.961231
0.961161
0.961087
0.961011
0.960931
0.960848
0.960761
0.96067
0.960574
0.960473
0.960366
0.960253
0.960132
0.960001
0.95986
0.959705
0.959532
0.959337
0.959113
0.95885
0.958536
0.95815
0.957638
0.956874
0.955737
0.954495
0.953723
0.94968
0.915812
0.816136
0
0
1.01762
1.01002
1.0019
0.99727
0.993299
0.990336
0.988126
0.986375
0.984923
0.983691
0.98263
0.981703
0.980885
0.980155
0.979502
0.978913
0.978381
0.977898
0.977459
0.97706
0.976696
0.976365
0.976062
0.975786
0.975534
0.975303
0.975092
0.974898
0.974721
0.974558
0.974407
0.974268
0.974138
0.974017
0.973904
0.973798
0.973696
0.9736
0.973507
0.973416
0.973329
0.973242
0.973157
0.973072
0.972987
0.972901
0.972815
0.972728
0.972639
0.972549
0.972457
0.972364
0.972268
0.97217
0.972071
0.971969
0.971866
0.97176
0.971653
0.971544
0.971433
0.971321
0.971207
0.971093
0.970977
0.970861
0.970744
0.970627
0.97051
0.970393
0.970276
0.97016
0.970044
0.96993
0.969817
0.969706
0.969597
0.969489
0.969384
0.969282
0.969183
0.969086
0.968993
0.968903
0.968817
0.968735
0.968657
0.968584
0.968514
0.968449
0.968388
0.968332
0.968281
0.968234
0.968192
0.968154
0.96812
0.968091
0.968066
0.968044
0.968026
0.968012
0.968
0.967992
0.967985
0.967982
0.96798
0.967979
0.96798
0.967982
0.967984
0.967988
0.967991
0.967994
0.967996
0.967999
0.968
0.968001
0.968
0.967998
0.967995
0.96799
0.967984
0.967975
0.967965
0.967953
0.967939
0.967922
0.967903
0.967883
0.967859
0.967833
0.967804
0.967774
0.96774
0.967703
0.967664
0.967623
0.967578
0.967531
0.967482
0.96743
0.967375
0.967318
0.967258
0.967197
0.967133
0.967068
0.967001
0.966933
0.966862
0.966791
0.966719
0.966646
0.966572
0.966498
0.966424
0.96635
0.966275
0.966202
0.966128
0.966056
0.965984
0.965914
0.965843
0.965775
0.965707
0.965641
0.965575
0.965511
0.965448
0.965387
0.965325
0.965266
0.965207
0.96515
0.965092
0.965036
0.96498
0.964926
0.96487
0.964817
0.964762
0.964709
0.964655
0.964602
0.964549
0.964496
0.964443
0.964392
0.964339
0.964288
0.964237
0.964187
0.964137
0.964089
0.964041
0.963995
0.963949
0.963906
0.963863
0.963823
0.963784
0.963748
0.963713
0.963681
0.96365
0.963622
0.963596
0.963574
0.963553
0.963535
0.963519
0.963507
0.963496
0.963489
0.963483
0.96348
0.963479
0.963482
0.963485
0.963492
0.9635
0.963511
0.963524
0.963539
0.963555
0.963574
0.963593
0.963616
0.963639
0.963664
0.96369
0.963718
0.963747
0.963778
0.963809
0.963841
0.963874
0.963908
0.963942
0.963978
0.964013
0.964049
0.964084
0.96412
0.964156
0.964191
0.964225
0.96426
0.964293
0.964326
0.964357
0.964387
0.964416
0.964444
0.96447
0.964495
0.964517
0.964539
0.964558
0.964576
0.964592
0.964606
0.964618
0.964629
0.964637
0.964645
0.96465
0.964654
0.964656
0.964658
0.964657
0.964656
0.964654
0.96465
0.964646
0.964641
0.964635
0.964629
0.964622
0.964615
0.964607
0.964599
0.96459
0.964581
0.964572
0.964563
0.964552
0.964542
0.964531
0.96452
0.964508
0.964496
0.964483
0.964469
0.964454
0.964438
0.964421
0.964403
0.964383
0.964363
0.96434
0.964317
0.964291
0.964264
0.964236
0.964206
0.964174
0.96414
0.964105
0.964068
0.964029
0.963989
0.963947
0.963904
0.96386
0.963814
0.963767
0.963719
0.96367
0.963621
0.96357
0.963519
0.963468
0.963416
0.963364
0.963312
0.96326
0.963208
0.963156
0.963105
0.963053
0.963003
0.962952
0.962903
0.962854
0.962805
0.962757
0.96271
0.962663
0.962617
0.962572
0.962527
0.962483
0.962439
0.962395
0.962352
0.962308
0.962265
0.962222
0.962179
0.962135
0.962091
0.962046
0.962001
0.961955
0.961908
0.96186
0.961811
0.96176
0.961708
0.961654
0.961599
0.961541
0.961481
0.961419
0.961355
0.961288
0.961219
0.961146
0.961071
0.960992
0.960909
0.960823
0.960732
0.960636
0.960535
0.960428
0.960315
0.960193
0.960063
0.959921
0.959767
0.959597
0.959407
0.959192
0.958945
0.958655
0.958308
0.957879
0.957326
0.9566
0.955658
0.954354
0.951995
0.946758
0.93812
0.929972
0.918047
0
0
1.01378
1.00438
1.00102
0.996956
0.993283
0.990553
0.988403
0.986634
0.985154
0.983897
0.982812
0.981864
0.981026
0.98028
0.979612
0.979011
0.978467
0.977975
0.977528
0.977121
0.97675
0.976412
0.976105
0.975823
0.975566
0.975331
0.975117
0.97492
0.974739
0.974573
0.97442
0.974278
0.974147
0.974024
0.973909
0.973801
0.973699
0.973601
0.973507
0.973416
0.973327
0.97324
0.973154
0.973069
0.972983
0.972898
0.972812
0.972724
0.972636
0.972545
0.972454
0.97236
0.972265
0.972167
0.972068
0.971967
0.971864
0.971758
0.971652
0.971543
0.971433
0.971321
0.971208
0.971094
0.970979
0.970863
0.970747
0.97063
0.970513
0.970396
0.97028
0.970164
0.970049
0.969935
0.969823
0.969712
0.969602
0.969495
0.96939
0.969288
0.969188
0.969091
0.968998
0.968908
0.968822
0.968739
0.968661
0.968586
0.968516
0.96845
0.968389
0.968332
0.968279
0.968232
0.968188
0.96815
0.968115
0.968085
0.968058
0.968036
0.968017
0.968002
0.96799
0.967981
0.967974
0.967969
0.967967
0.967966
0.967967
0.967968
0.967971
0.967974
0.967977
0.96798
0.967982
0.967985
0.967986
0.967987
0.967986
0.967985
0.967982
0.967977
0.967971
0.967963
0.967953
0.967941
0.967926
0.96791
0.967892
0.967871
0.967847
0.967822
0.967793
0.967763
0.967729
0.967693
0.967654
0.967613
0.967568
0.967522
0.967472
0.96742
0.967365
0.967309
0.96725
0.967189
0.967125
0.96706
0.966993
0.966925
0.966854
0.966784
0.966711
0.966639
0.966565
0.966491
0.966417
0.966343
0.966269
0.966196
0.966122
0.96605
0.965978
0.965908
0.965838
0.965769
0.965701
0.965636
0.96557
0.965506
0.965443
0.965382
0.965321
0.965262
0.965203
0.965146
0.965088
0.965033
0.964977
0.964922
0.964868
0.964814
0.96476
0.964707
0.964654
0.964601
0.964548
0.964496
0.964444
0.964392
0.96434
0.96429
0.964239
0.96419
0.96414
0.964092
0.964045
0.963999
0.963954
0.963911
0.963868
0.963828
0.96379
0.963753
0.963719
0.963687
0.963656
0.963629
0.963603
0.96358
0.96356
0.963542
0.963526
0.963513
0.963502
0.963495
0.963489
0.963486
0.963485
0.963487
0.96349
0.963497
0.963505
0.963515
0.963527
0.963542
0.963558
0.963576
0.963596
0.963617
0.96364
0.963665
0.96369
0.963718
0.963746
0.963776
0.963806
0.963838
0.963871
0.963904
0.963938
0.963973
0.964007
0.964042
0.964077
0.964113
0.964148
0.964182
0.964216
0.96425
0.964283
0.964315
0.964346
0.964376
0.964405
0.964432
0.964458
0.964482
0.964505
0.964526
0.964545
0.964563
0.964578
0.964593
0.964605
0.964616
0.964624
0.964632
0.964637
0.964641
0.964643
0.964645
0.964645
0.964644
0.964641
0.964638
0.964634
0.964629
0.964623
0.964617
0.96461
0.964603
0.964595
0.964586
0.964578
0.964569
0.964559
0.96455
0.96454
0.964529
0.964518
0.964507
0.964495
0.964482
0.964469
0.964454
0.964439
0.964423
0.964406
0.964387
0.964368
0.964347
0.964324
0.9643
0.964275
0.964248
0.964219
0.964189
0.964157
0.964123
0.964087
0.964051
0.964012
0.963972
0.96393
0.963887
0.963842
0.963797
0.96375
0.963702
0.963653
0.963603
0.963553
0.963502
0.96345
0.963398
0.963346
0.963294
0.963242
0.963189
0.963137
0.963085
0.963034
0.962983
0.962932
0.962882
0.962832
0.962783
0.962735
0.962687
0.96264
0.962593
0.962547
0.962501
0.962456
0.962411
0.962366
0.962322
0.962277
0.962233
0.962188
0.962144
0.962099
0.962053
0.962007
0.96196
0.961912
0.961864
0.961814
0.961763
0.96171
0.961656
0.961599
0.961542
0.961481
0.961419
0.961354
0.961287
0.961216
0.961143
0.961066
0.960986
0.960902
0.960814
0.960721
0.960624
0.96052
0.960411
0.960294
0.960168
0.960034
0.959888
0.959728
0.959553
0.959358
0.959139
0.958888
0.958598
0.958255
0.957842
0.957334
0.956693
0.955848
0.954675
0.953046
0.950866
0.947441
0.941043
0.937303
0.942958
0
0
1.00336
1.00083
0.998643
0.995303
0.99262
0.990291
0.988289
0.986603
0.985172
0.983939
0.982864
0.981917
0.981079
0.98033
0.979659
0.979053
0.978505
0.978009
0.977558
0.977147
0.976773
0.976432
0.976121
0.975837
0.975578
0.97534
0.975124
0.974925
0.974742
0.974575
0.97442
0.974277
0.974145
0.974021
0.973905
0.973796
0.973693
0.973595
0.9735
0.973409
0.97332
0.973232
0.973147
0.973061
0.972976
0.97289
0.972804
0.972717
0.972628
0.972538
0.972447
0.972354
0.972259
0.972161
0.972063
0.971962
0.971859
0.971754
0.971647
0.971539
0.971429
0.971318
0.971206
0.971092
0.970977
0.970862
0.970746
0.970629
0.970513
0.970396
0.97028
0.970165
0.97005
0.969936
0.969824
0.969713
0.969603
0.969496
0.969391
0.969288
0.969188
0.969091
0.968997
0.968907
0.96882
0.968737
0.968657
0.968582
0.968511
0.968444
0.968382
0.968324
0.96827
0.968222
0.968177
0.968137
0.968102
0.968071
0.968043
0.96802
0.968001
0.967985
0.967972
0.967962
0.967955
0.96795
0.967948
0.967947
0.967947
0.967949
0.967951
0.967954
0.967957
0.967961
0.967964
0.967966
0.967968
0.967969
0.967969
0.967968
0.967965
0.967961
0.967954
0.967947
0.967937
0.967925
0.967911
0.967896
0.967877
0.967857
0.967833
0.967808
0.96778
0.967749
0.967716
0.96768
0.967641
0.9676
0.967556
0.96751
0.96746
0.967409
0.967355
0.967298
0.967239
0.967178
0.967115
0.96705
0.966983
0.966915
0.966846
0.966775
0.966703
0.966631
0.966557
0.966484
0.966409
0.966336
0.966262
0.966189
0.966116
0.966044
0.965972
0.965902
0.965832
0.965764
0.965696
0.96563
0.965565
0.965501
0.965438
0.965377
0.965316
0.965257
0.965199
0.965142
0.965085
0.965029
0.964973
0.964919
0.964865
0.964811
0.964758
0.964705
0.964652
0.9646
0.964547
0.964496
0.964444
0.964393
0.964342
0.964291
0.964241
0.964192
0.964143
0.964096
0.964048
0.964003
0.963958
0.963915
0.963874
0.963834
0.963795
0.96376
0.963725
0.963693
0.963663
0.963636
0.96361
0.963587
0.963566
0.963549
0.963533
0.96352
0.963509
0.963501
0.963495
0.963492
0.963491
0.963492
0.963496
0.963502
0.963509
0.963519
0.963531
0.963545
0.96356
0.963578
0.963597
0.963618
0.96364
0.963664
0.963689
0.963716
0.963744
0.963773
0.963803
0.963834
0.963866
0.963899
0.963932
0.963966
0.964
0.964034
0.964068
0.964103
0.964137
0.964171
0.964205
0.964238
0.96427
0.964302
0.964332
0.964362
0.96439
0.964417
0.964442
0.964466
0.964488
0.964509
0.964528
0.964546
0.964561
0.964575
0.964587
0.964598
0.964606
0.964614
0.964619
0.964623
0.964626
0.964627
0.964627
0.964626
0.964624
0.964621
0.964617
0.964612
0.964606
0.9646
0.964593
0.964586
0.964578
0.964569
0.964561
0.964552
0.964542
0.964532
0.964522
0.964511
0.9645
0.964489
0.964476
0.964463
0.96445
0.964435
0.96442
0.964403
0.964386
0.964367
0.964347
0.964326
0.964303
0.964279
0.964254
0.964227
0.964198
0.964167
0.964135
0.964101
0.964066
0.964029
0.96399
0.96395
0.963908
0.963865
0.963821
0.963775
0.963728
0.963681
0.963632
0.963582
0.963532
0.963481
0.963429
0.963377
0.963325
0.963273
0.96322
0.963168
0.963116
0.963064
0.963012
0.962961
0.96291
0.962859
0.962809
0.96276
0.962711
0.962662
0.962614
0.962567
0.96252
0.962474
0.962428
0.962382
0.962336
0.962291
0.962245
0.9622
0.962154
0.962109
0.962062
0.962016
0.961968
0.96192
0.961871
0.961821
0.961769
0.961716
0.961662
0.961606
0.961547
0.961487
0.961425
0.96136
0.961293
0.961223
0.961149
0.961073
0.960992
0.960908
0.96082
0.960727
0.960629
0.960525
0.960415
0.960298
0.960173
0.960038
0.959892
0.959734
0.95956
0.959368
0.959154
0.958912
0.958636
0.958317
0.957942
0.957493
0.956945
0.956264
0.95541
0.954314
0.952813
0.950739
0.948503
0.946488
0.944777
0.94742
0
0
0.99712
0.997126
0.99548
0.993482
0.991518
0.989577
0.987849
0.986332
0.984999
0.983825
0.982788
0.981867
0.981045
0.980307
0.979642
0.97904
0.978495
0.978
0.97755
0.97714
0.976766
0.976424
0.976113
0.975828
0.975569
0.975331
0.975114
0.974914
0.974732
0.974563
0.974409
0.974265
0.974132
0.974009
0.973893
0.973784
0.97368
0.973582
0.973487
0.973396
0.973307
0.97322
0.973134
0.973049
0.972964
0.972878
0.972792
0.972705
0.972617
0.972528
0.972437
0.972344
0.972249
0.972152
0.972054
0.971953
0.971851
0.971746
0.97164
0.971533
0.971423
0.971312
0.9712
0.971087
0.970973
0.970857
0.970742
0.970626
0.970509
0.970393
0.970277
0.970162
0.970047
0.969933
0.969821
0.96971
0.9696
0.969492
0.969387
0.969284
0.969183
0.969086
0.968991
0.9689
0.968812
0.968728
0.968647
0.968571
0.968499
0.968431
0.968367
0.968308
0.968254
0.968204
0.968158
0.968118
0.968081
0.968049
0.968021
0.967997
0.967977
0.96796
0.967947
0.967937
0.96793
0.967925
0.967922
0.967921
0.967922
0.967924
0.967926
0.96793
0.967933
0.967937
0.96794
0.967944
0.967946
0.967947
0.967947
0.967947
0.967944
0.96794
0.967935
0.967928
0.967918
0.967907
0.967893
0.967878
0.96786
0.96784
0.967817
0.967792
0.967764
0.967734
0.967701
0.967665
0.967627
0.967586
0.967542
0.967496
0.967447
0.967396
0.967342
0.967286
0.967227
0.967167
0.967104
0.96704
0.966973
0.966905
0.966836
0.966766
0.966694
0.966622
0.966548
0.966475
0.966402
0.966328
0.966254
0.966182
0.966109
0.966037
0.965965
0.965895
0.965825
0.965757
0.96569
0.965624
0.965559
0.965496
0.965433
0.965372
0.965311
0.965253
0.965194
0.965137
0.96508
0.965025
0.96497
0.964916
0.964862
0.964809
0.964756
0.964703
0.964651
0.964599
0.964547
0.964496
0.964444
0.964394
0.964343
0.964293
0.964243
0.964195
0.964146
0.964099
0.964052
0.964008
0.963963
0.963921
0.963879
0.96384
0.963802
0.963766
0.963732
0.9637
0.96367
0.963643
0.963617
0.963594
0.963574
0.963556
0.96354
0.963527
0.963516
0.963508
0.963501
0.963498
0.963496
0.963498
0.9635
0.963506
0.963513
0.963523
0.963534
0.963548
0.963562
0.96358
0.963598
0.963618
0.96364
0.963663
0.963688
0.963714
0.963741
0.963769
0.963798
0.963829
0.96386
0.963892
0.963924
0.963957
0.96399
0.964024
0.964057
0.964091
0.964124
0.964158
0.964191
0.964223
0.964254
0.964285
0.964315
0.964344
0.964371
0.964398
0.964423
0.964446
0.964468
0.964489
0.964507
0.964525
0.96454
0.964554
0.964565
0.964576
0.964584
0.964592
0.964597
0.964601
0.964604
0.964605
0.964605
0.964604
0.964602
0.964599
0.964595
0.96459
0.964584
0.964578
0.964571
0.964564
0.964556
0.964548
0.964539
0.96453
0.96452
0.96451
0.9645
0.964489
0.964477
0.964466
0.964453
0.96444
0.964426
0.964411
0.964396
0.964379
0.964361
0.964343
0.964322
0.964301
0.964278
0.964254
0.964228
0.964201
0.964172
0.964142
0.964109
0.964076
0.96404
0.964003
0.963965
0.963925
0.963883
0.96384
0.963796
0.96375
0.963703
0.963656
0.963607
0.963558
0.963507
0.963456
0.963405
0.963353
0.963301
0.963249
0.963196
0.963144
0.963092
0.96304
0.962988
0.962936
0.962885
0.962835
0.962784
0.962734
0.962685
0.962636
0.962588
0.96254
0.962493
0.962446
0.962399
0.962352
0.962306
0.96226
0.962213
0.962167
0.962121
0.962074
0.962027
0.961979
0.96193
0.961881
0.96183
0.961779
0.961726
0.961672
0.961616
0.961558
0.961498
0.961437
0.961372
0.961306
0.961236
0.961163
0.961088
0.961008
0.960925
0.960838
0.960746
0.960649
0.960547
0.960438
0.960323
0.9602
0.960067
0.959925
0.959771
0.959604
0.95942
0.959216
0.95899
0.958735
0.958446
0.958113
0.957726
0.95727
0.956728
0.956072
0.955267
0.954287
0.953128
0.951743
0.950253
0.949449
0.94917
0.949839
0
0
0.993544
0.993682
0.992778
0.991604
0.990128
0.988623
0.987194
0.985867
0.984663
0.983578
0.982603
0.981724
0.980932
0.980215
0.979566
0.978976
0.97844
0.977952
0.977507
0.9771
0.976729
0.976391
0.976081
0.975799
0.97554
0.975304
0.975087
0.974889
0.974707
0.97454
0.974386
0.974243
0.974111
0.973987
0.973872
0.973764
0.973661
0.973563
0.973469
0.973378
0.973289
0.973203
0.973117
0.973032
0.972948
0.972862
0.972777
0.97269
0.972603
0.972514
0.972423
0.97233
0.972236
0.97214
0.972042
0.971942
0.97184
0.971736
0.97163
0.971523
0.971414
0.971303
0.971192
0.971079
0.970965
0.97085
0.970735
0.970619
0.970503
0.970386
0.970271
0.970155
0.97004
0.969926
0.969814
0.969702
0.969592
0.969484
0.969378
0.969275
0.969173
0.969075
0.968979
0.968887
0.968798
0.968713
0.968631
0.968554
0.96848
0.968411
0.968346
0.968286
0.96823
0.968179
0.968132
0.96809
0.968053
0.96802
0.967991
0.967967
0.967946
0.967929
0.967916
0.967905
0.967898
0.967893
0.967891
0.96789
0.967891
0.967893
0.967896
0.9679
0.967905
0.967909
0.967913
0.967917
0.967919
0.967922
0.967922
0.967922
0.96792
0.967917
0.967912
0.967905
0.967896
0.967885
0.967872
0.967857
0.96784
0.96782
0.967798
0.967773
0.967745
0.967716
0.967683
0.967648
0.96761
0.96757
0.967526
0.967481
0.967432
0.967382
0.967328
0.967273
0.967214
0.967154
0.967092
0.967028
0.966962
0.966895
0.966825
0.966756
0.966684
0.966612
0.966539
0.966467
0.966393
0.96632
0.966247
0.966174
0.966101
0.96603
0.965958
0.965888
0.965819
0.965751
0.965684
0.965618
0.965553
0.96549
0.965427
0.965367
0.965306
0.965248
0.965189
0.965133
0.965076
0.965021
0.964966
0.964913
0.964859
0.964806
0.964753
0.964702
0.964649
0.964598
0.964547
0.964496
0.964445
0.964395
0.964344
0.964295
0.964246
0.964198
0.96415
0.964103
0.964057
0.964012
0.963968
0.963926
0.963885
0.963846
0.963808
0.963773
0.963739
0.963707
0.963677
0.96365
0.963624
0.963602
0.963581
0.963563
0.963547
0.963534
0.963522
0.963514
0.963508
0.963504
0.963502
0.963503
0.963505
0.96351
0.963517
0.963526
0.963537
0.96355
0.963564
0.96358
0.963598
0.963618
0.963639
0.963661
0.963685
0.96371
0.963736
0.963764
0.963792
0.963822
0.963852
0.963883
0.963914
0.963947
0.963979
0.964012
0.964044
0.964077
0.96411
0.964142
0.964174
0.964206
0.964236
0.964266
0.964295
0.964324
0.96435
0.964376
0.9644
0.964423
0.964445
0.964465
0.964483
0.9645
0.964515
0.964528
0.96454
0.96455
0.964558
0.964565
0.964571
0.964575
0.964577
0.964579
0.964579
0.964578
0.964575
0.964572
0.964568
0.964563
0.964558
0.964552
0.964545
0.964537
0.964529
0.964521
0.964512
0.964503
0.964493
0.964483
0.964473
0.964462
0.96445
0.964438
0.964425
0.964412
0.964398
0.964383
0.964367
0.964351
0.964332
0.964314
0.964293
0.964272
0.964249
0.964224
0.964198
0.964171
0.964142
0.964112
0.964079
0.964046
0.96401
0.963974
0.963935
0.963895
0.963854
0.963811
0.963767
0.963722
0.963675
0.963628
0.963579
0.96353
0.96348
0.963429
0.963378
0.963326
0.963274
0.963222
0.96317
0.963118
0.963065
0.963014
0.962962
0.96291
0.962859
0.962808
0.962758
0.962708
0.962658
0.962609
0.96256
0.962512
0.962464
0.962417
0.962369
0.962323
0.962276
0.962229
0.962182
0.962135
0.962088
0.96204
0.961992
0.961943
0.961894
0.961843
0.961792
0.96174
0.961686
0.96163
0.961573
0.961514
0.961453
0.96139
0.961324
0.961256
0.961184
0.96111
0.961032
0.960951
0.960866
0.960776
0.960681
0.960581
0.960476
0.960364
0.960244
0.960117
0.95998
0.959833
0.959674
0.9595
0.95931
0.959101
0.958869
0.95861
0.958318
0.957986
0.957605
0.957166
0.956656
0.956062
0.955371
0.954568
0.953676
0.952792
0.951969
0.951458
0.951572
0.952064
0
0
0.990923
0.990966
0.990542
0.98976
0.988705
0.987564
0.986397
0.985267
0.984207
0.983225
0.982324
0.9815
0.980749
0.980063
0.979437
0.978865
0.978344
0.977866
0.97743
0.977031
0.976667
0.976333
0.976028
0.975749
0.975494
0.97526
0.975047
0.97485
0.974671
0.974505
0.974352
0.974211
0.974081
0.973958
0.973844
0.973737
0.973635
0.973538
0.973445
0.973354
0.973267
0.973181
0.973096
0.973011
0.972927
0.972843
0.972758
0.972672
0.972585
0.972496
0.972406
0.972314
0.972221
0.972125
0.972027
0.971928
0.971826
0.971723
0.971617
0.97151
0.971402
0.971292
0.97118
0.971068
0.970954
0.970839
0.970724
0.970608
0.970492
0.970376
0.97026
0.970145
0.97003
0.969916
0.969803
0.969691
0.969581
0.969472
0.969365
0.969261
0.969159
0.969059
0.968963
0.968869
0.968779
0.968692
0.968609
0.96853
0.968455
0.968385
0.968319
0.968257
0.9682
0.968147
0.968099
0.968056
0.968018
0.967984
0.967954
0.967929
0.967908
0.967891
0.967877
0.967867
0.96786
0.967855
0.967853
0.967853
0.967855
0.967858
0.967862
0.967866
0.967871
0.967876
0.967881
0.967886
0.967889
0.967892
0.967894
0.967894
0.967893
0.96789
0.967886
0.96788
0.967871
0.967861
0.967849
0.967834
0.967817
0.967798
0.967776
0.967752
0.967725
0.967696
0.967663
0.967629
0.967591
0.967552
0.967509
0.967464
0.967416
0.967366
0.967313
0.967258
0.9672
0.967141
0.967079
0.967015
0.96695
0.966883
0.966814
0.966745
0.966674
0.966603
0.96653
0.966458
0.966384
0.966312
0.966239
0.966166
0.966094
0.966023
0.965951
0.965882
0.965812
0.965745
0.965678
0.965612
0.965547
0.965484
0.965422
0.965361
0.965301
0.965243
0.965185
0.965129
0.965072
0.965018
0.964963
0.96491
0.964856
0.964804
0.964751
0.9647
0.964648
0.964597
0.964546
0.964496
0.964446
0.964396
0.964346
0.964297
0.964248
0.964201
0.964153
0.964107
0.964061
0.964017
0.963974
0.963932
0.963891
0.963853
0.963815
0.96378
0.963746
0.963714
0.963685
0.963657
0.963632
0.963609
0.963588
0.96357
0.963554
0.963541
0.963529
0.96352
0.963514
0.96351
0.963507
0.963508
0.963509
0.963514
0.96352
0.963529
0.963539
0.963551
0.963565
0.963581
0.963597
0.963616
0.963636
0.963658
0.963681
0.963706
0.963731
0.963758
0.963785
0.963814
0.963843
0.963873
0.963903
0.963934
0.963965
0.963997
0.964029
0.964061
0.964092
0.964124
0.964155
0.964186
0.964215
0.964245
0.964272
0.9643
0.964326
0.964351
0.964374
0.964397
0.964417
0.964437
0.964455
0.964471
0.964485
0.964499
0.96451
0.96452
0.964528
0.964535
0.96454
0.964544
0.964546
0.964548
0.964548
0.964547
0.964544
0.964541
0.964537
0.964533
0.964527
0.964521
0.964514
0.964506
0.964498
0.96449
0.964481
0.964472
0.964462
0.964452
0.964441
0.96443
0.964418
0.964406
0.964393
0.96438
0.964366
0.964351
0.964334
0.964317
0.964299
0.96428
0.96426
0.964238
0.964215
0.964191
0.964165
0.964137
0.964108
0.964078
0.964046
0.964012
0.963977
0.96394
0.963902
0.963862
0.963821
0.963778
0.963734
0.96369
0.963643
0.963596
0.963548
0.963499
0.963449
0.963399
0.963348
0.963297
0.963245
0.963193
0.963141
0.963089
0.963037
0.962986
0.962934
0.962882
0.962831
0.962781
0.96273
0.96268
0.96263
0.962581
0.962532
0.962484
0.962436
0.962388
0.96234
0.962293
0.962246
0.962198
0.962151
0.962103
0.962056
0.962007
0.961959
0.961909
0.961859
0.961808
0.961756
0.961703
0.961648
0.961592
0.961534
0.961474
0.961412
0.961347
0.961281
0.961211
0.961139
0.961063
0.960984
0.960901
0.960814
0.960723
0.960627
0.960525
0.960417
0.960303
0.960181
0.960051
0.959912
0.959762
0.9596
0.959425
0.959233
0.959023
0.958792
0.958536
0.95825
0.95793
0.95757
0.957163
0.956704
0.956186
0.955612
0.954991
0.954344
0.953742
0.953286
0.953022
0.953162
0.953692
0
0
0.988758
0.988841
0.988627
0.988091
0.987349
0.986474
0.985534
0.984589
0.983668
0.982793
0.981974
0.981212
0.980508
0.979859
0.979263
0.978714
0.978211
0.977748
0.977325
0.976936
0.97658
0.976254
0.975956
0.975682
0.975432
0.975202
0.974992
0.9748
0.974623
0.97446
0.97431
0.974171
0.974042
0.973922
0.97381
0.973703
0.973603
0.973507
0.973415
0.973326
0.973239
0.973154
0.97307
0.972987
0.972904
0.97282
0.972736
0.97265
0.972564
0.972476
0.972386
0.972295
0.972202
0.972106
0.972009
0.97191
0.971809
0.971706
0.971601
0.971495
0.971387
0.971277
0.971166
0.971053
0.97094
0.970825
0.97071
0.970595
0.970479
0.970363
0.970247
0.970131
0.970016
0.969901
0.969788
0.969675
0.969564
0.969455
0.969347
0.969242
0.969139
0.969038
0.968941
0.968846
0.968754
0.968666
0.968582
0.968501
0.968425
0.968352
0.968284
0.968221
0.968163
0.968109
0.96806
0.968015
0.967976
0.967941
0.967911
0.967885
0.967864
0.967846
0.967833
0.967823
0.967816
0.967812
0.96781
0.967811
0.967813
0.967817
0.967822
0.967828
0.967833
0.96784
0.967845
0.967851
0.967855
0.967859
0.967862
0.967863
0.967862
0.967861
0.967857
0.967851
0.967844
0.967834
0.967822
0.967808
0.967792
0.967773
0.967752
0.967728
0.967702
0.967673
0.967642
0.967608
0.967571
0.967532
0.96749
0.967445
0.967398
0.967349
0.967296
0.967242
0.967185
0.967126
0.967065
0.967002
0.966937
0.96687
0.966802
0.966733
0.966663
0.966592
0.96652
0.966448
0.966376
0.966303
0.96623
0.966158
0.966086
0.966015
0.965945
0.965875
0.965806
0.965739
0.965672
0.965606
0.965542
0.965479
0.965417
0.965356
0.965297
0.965238
0.965181
0.965124
0.965069
0.965014
0.96496
0.964907
0.964854
0.964802
0.96475
0.964699
0.964647
0.964597
0.964546
0.964497
0.964446
0.964397
0.964348
0.9643
0.964251
0.964204
0.964157
0.964112
0.964066
0.964023
0.963979
0.963938
0.963898
0.963859
0.963822
0.963787
0.963753
0.963722
0.963692
0.963665
0.963639
0.963617
0.963596
0.963577
0.963561
0.963547
0.963536
0.963527
0.963519
0.963515
0.963512
0.963512
0.963513
0.963517
0.963523
0.963531
0.96354
0.963552
0.963565
0.96358
0.963596
0.963614
0.963633
0.963654
0.963676
0.9637
0.963724
0.96375
0.963776
0.963804
0.963832
0.963861
0.96389
0.96392
0.96395
0.963981
0.964012
0.964043
0.964073
0.964104
0.964133
0.964163
0.964192
0.96422
0.964247
0.964273
0.964298
0.964323
0.964345
0.964367
0.964387
0.964406
0.964423
0.964439
0.964453
0.964465
0.964476
0.964486
0.964494
0.9645
0.964505
0.964509
0.964511
0.964513
0.964512
0.964511
0.964509
0.964506
0.964502
0.964497
0.964491
0.964485
0.964478
0.964471
0.964463
0.964455
0.964446
0.964436
0.964426
0.964416
0.964405
0.964394
0.964382
0.96437
0.964357
0.964343
0.964329
0.964314
0.964297
0.96428
0.964262
0.964243
0.964222
0.9642
0.964177
0.964153
0.964127
0.9641
0.964071
0.96404
0.964008
0.963975
0.96394
0.963903
0.963865
0.963826
0.963785
0.963743
0.963699
0.963655
0.963609
0.963562
0.963514
0.963466
0.963416
0.963367
0.963316
0.963265
0.963214
0.963163
0.963111
0.963059
0.963008
0.962956
0.962905
0.962853
0.962803
0.962752
0.962702
0.962652
0.962602
0.962553
0.962504
0.962456
0.962407
0.962359
0.962312
0.962264
0.962216
0.962169
0.962121
0.962073
0.962025
0.961976
0.961927
0.961878
0.961827
0.961775
0.961723
0.961669
0.961614
0.961557
0.961498
0.961438
0.961375
0.96131
0.961243
0.961173
0.9611
0.961023
0.960943
0.96086
0.960772
0.96068
0.960582
0.96048
0.960371
0.960256
0.960133
0.960003
0.959863
0.959713
0.959551
0.959376
0.959187
0.958981
0.958755
0.958507
0.958235
0.957934
0.957602
0.957236
0.956834
0.956398
0.955932
0.955454
0.954993
0.954587
0.95431
0.954214
0.954358
0.95481
0
0
0.986962
0.987098
0.986981
0.986623
0.986086
0.985413
0.98466
0.983872
0.983081
0.98231
0.981572
0.980875
0.980223
0.979615
0.979051
0.978529
0.978047
0.977603
0.977194
0.976818
0.976473
0.976156
0.975866
0.975599
0.975356
0.975132
0.974927
0.974738
0.974565
0.974406
0.974259
0.974123
0.973997
0.973879
0.973769
0.973664
0.973566
0.973472
0.973381
0.973293
0.973208
0.973124
0.973041
0.972959
0.972876
0.972793
0.97271
0.972625
0.97254
0.972452
0.972363
0.972272
0.97218
0.972085
0.971989
0.97189
0.971789
0.971687
0.971582
0.971476
0.971368
0.971259
0.971148
0.971036
0.970923
0.970808
0.970693
0.970578
0.970462