# vtk DataFile Version 2.0
LBE mesh
ASCII
DATASET STRUCTURED_POINTS
DIMENSIONS 402 102 1
ASPECT_RATIO 1 1 1
ORIGIN 0 0 0
POINT_DATA 41004
SCALARS rho double 1
LOOKUP_TABLE default
0
0
0
0
0
0
0
0
0
0
0
0
0
0
0
0
0
0
0
0
0
0
0
0
0
0
0
0
0
0
0
0
0
0
0
0
0
0
0
0
0
0
0
0
0
0
0
0
0
0
0
0
0
0
0
0
0
0
0
0
0
0
0
0
0
0
0
0
0
0
0
0
0
0
0
0
0
0
0
0
0
0
0
0
0
0
0
0
0
0
0
0
0
0
0
0
0
0
0
0
0
0
0
0
0
0
0
0
0
0
0
0
0
0
0
0
0
0
0
0
0
0
0
0
0
0
0
0
0
0
0
0
0
0
0
0
0
0
0
0
0
0
0
0
0
0
0
0
0
0
0
0
0
0
0
0
0
0
0
0
0
0
0
0
0
0
0
0
0
0
0
0
0
0
0
0
0
0
0
0
0
0
0
0
0
0
0
0
0
0
0
0
0
0
0
0
0
0
0
0
0
0
0
0
0
0
0
0
0
0
0
0
0
0
0
0
0
0
0
0
0
0
0
0
0
0
0
0
0
0
0
0
0
0
0
0
0
0
0
0
0
0
0
0
0
0
0
0
0
0
0
0
0
0
0
0
0
0
0
0
0
0
0
0
0
0
0
0
0
0
0
0
0
0
0
0
0
0
0
0
0
0
0
0
0
0
0
0
0
0
0
0
0
0
0
0
0
0
0
0
0
0
0
0
0
0
0
0
0
0
0
0
0
0
0
0
0
0
0
0
0
0
0
0
0
0
0
0
0
0
0
0
0
0
0
0
0
0
0
0
0
0
0
0
0
0
0
0
0
0
0
0
0
0
0
0
0
0
0
0
0
0
0
0
0
0
0
0
0
0
0
0
0
0
0
0
0
0
0
0
0
0
0
0
0
0
0
0
0
0
0
0
0
0
0
0
0
0
0
0
0
0
0
0.89757
0.962399
0.950096
0.942448
0.938908
0.936605
0.934719
0.933166
0.931878
0.930779
0.929819
0.928968
0.928203
0.927509
0.926875
0.926291
0.925749
0.925245
0.924774
0.924333
0.923917
0.923525
0.923155
0.922804
0.922472
0.922156
0.921855
0.921569
0.921297
0.921038
0.92079
0.920554
0.920329
0.920114
0.919909
0.919713
0.919525
0.919346
0.919175
0.919012
0.918855
0.918706
0.918563
0.918426
0.918296
0.91817
0.918051
0.917936
0.917826
0.91772
0.917619
0.917521
0.917427
0.917337
0.91725
0.917166
0.917085
0.917006
0.91693
0.916856
0.916784
0.916713
0.916645
0.916577
0.916511
0.916446
0.916383
0.91632
0.916258
0.916197
0.916136
0.916077
0.916017
0.915959
0.915901
0.915844
0.915788
0.915733
0.915678
0.915625
0.915574
0.915523
0.915475
0.915428
0.915383
0.915341
0.915301
0.915263
0.915229
0.915198
0.91517
0.915146
0.915126
0.915109
0.915096
0.915087
0.915082
0.915082
0.915085
0.915092
0.915103
0.915117
0.915135
0.915156
0.915181
0.915208
0.915238
0.91527
0.915305
0.915341
0.915379
0.915418
0.915459
0.9155
0.915542
0.915585
0.915628
0.915671
0.915714
0.915758
0.915801
0.915845
0.915888
0.915931
0.915974
0.916017
0.91606
0.916102
0.916144
0.916186
0.916228
0.91627
0.916312
0.916354
0.916396
0.916438
0.916481
0.916523
0.916565
0.916608
0.916651
0.916694
0.916737
0.916781
0.916825
0.916869
0.916913
0.916958
0.917003
0.917048
0.917093
0.917138
0.917184
0.917229
0.917275
0.917321
0.917366
0.917412
0.917458
0.917504
0.917549
0.917595
0.91764
0.917685
0.91773
0.917775
0.917819
0.917863
0.917907
0.91795
0.917993
0.918036
0.918078
0.91812
0.918161
0.918202
0.918242
0.918282
0.918322
0.918361
0.918399
0.918437
0.918475
0.918512
0.918549
0.918585
0.918621
0.918657
0.918693
0.918728
0.918762
0.918797
0.918831
0.918865
0.918899
0.918933
0.918967
0.919
0.919034
0.919067
0.919101
0.919135
0.919168
0.919202
0.919236
0.91927
0.919304
0.919339
0.919373
0.919408
0.919443
0.919479
0.919514
0.91955
0.919587
0.919623
0.91966
0.919697
0.919734
0.919772
0.91981
0.919848
0.919887
0.919925
0.919964
0.920003
0.920042
0.920082
0.920121
0.920161
0.9202
0.92024
0.920279
0.920319
0.920358
0.920398
0.920437
0.920476
0.920515
0.920553
0.920591
0.920629
0.920667
0.920704
0.920741
0.920777
0.920813
0.920848
0.920883
0.920917
0.92095
0.920983
0.921015
0.921047
0.921078
0.921108
0.921137
0.921166
0.921194
0.921221
0.921248
0.921274
0.921299
0.921323
0.921347
0.92137
0.921392
0.921414
0.921435
0.921455
0.921475
0.921494
0.921513
0.92153
0.921548
0.921565
0.921581
0.921597
0.921613
0.921628
0.921643
0.921657
0.921671
0.921685
0.921699
0.921712
0.921726
0.921739
0.921751
0.921764
0.921777
0.92179
0.921802
0.921815
0.921827
0.92184
0.921852
0.921865
0.921878
0.92189
0.921903
0.921916
0.921929
0.921943
0.921956
0.92197
0.921984
0.921998
0.922012
0.922027
0.922041
0.922057
0.922072
0.922088
0.922104
0.92212
0.922137
0.922155
0.922173
0.922191
0.92221
0.92223
0.92225
0.922271
0.922292
0.922315
0.922338
0.922362
0.922387
0.922413
0.92244
0.922468
0.922498
0.922528
0.92256
0.922593
0.922627
0.922663
0.9227
0.922738
0.922778
0.922819
0.922862
0.922906
0.922952
0.922999
0.923047
0.923096
0.923146
0.923197
0.923249
0.923302
0.923355
0.923408
0.923461
0.923514
0.923566
0.923617
0.923667
0.923716
0.923762
0.923806
0.923846
0.923884
0.923918
0.923947
0.923972
0.923991
0.924005
0.924012
0.924012
0.924006
0.923991
0.923968
0.923937
0.923896
0.923846
0.923786
0.923716
0.923634
0.923542
0.923437
0.92332
0.92319
0.923045
0.922884
0.922703
0.922501
0.92227
0.922003
0.921689
0.921311
0.920817
0.920088
0.919008
0.917835
0.917122
0.913268
0.880731
0.784894
0
0
0.963265
0.956076
0.948385
0.944008
0.94025
0.937445
0.935351
0.93369
0.932309
0.931134
0.930115
0.929219
0.928418
0.927697
0.927039
0.926436
0.92588
0.925363
0.924881
0.92443
0.924007
0.923608
0.923231
0.922875
0.922538
0.922218
0.921913
0.921624
0.921349
0.921086
0.920836
0.920597
0.92037
0.920153
0.919945
0.919747
0.919558
0.919377
0.919205
0.91904
0.918882
0.918731
0.918587
0.918449
0.918317
0.918191
0.91807
0.917954
0.917843
0.917737
0.917635
0.917537
0.917442
0.917352
0.917264
0.917179
0.917098
0.917019
0.916942
0.916868
0.916795
0.916725
0.916656
0.916588
0.916522
0.916457
0.916394
0.916331
0.916269
0.916208
0.916148
0.916088
0.916029
0.915971
0.915913
0.915856
0.9158
0.915745
0.915691
0.915638
0.915587
0.915537
0.915488
0.915441
0.915397
0.915354
0.915314
0.915277
0.915242
0.915211
0.915182
0.915158
0.915137
0.915119
0.915106
0.915096
0.915091
0.915089
0.915091
0.915098
0.915108
0.915121
0.915139
0.915159
0.915183
0.915209
0.915239
0.91527
0.915304
0.91534
0.915377
0.915416
0.915456
0.915497
0.915539
0.915582
0.915625
0.915668
0.915711
0.915755
0.915798
0.915842
0.915885
0.915929
0.915972
0.916015
0.916057
0.9161
0.916142
0.916184
0.916227
0.916269
0.916311
0.916353
0.916395
0.916437
0.916479
0.916522
0.916564
0.916607
0.91665
0.916693
0.916737
0.91678
0.916824
0.916868
0.916913
0.916957
0.917002
0.917047
0.917092
0.917137
0.917183
0.917228
0.917274
0.91732
0.917365
0.917411
0.917457
0.917503
0.917548
0.917594
0.917639
0.917684
0.917729
0.917773
0.917818
0.917862
0.917906
0.917949
0.917992
0.918034
0.918077
0.918118
0.91816
0.9182
0.918241
0.918281
0.91832
0.918359
0.918398
0.918436
0.918474
0.918511
0.918548
0.918584
0.91862
0.918656
0.918691
0.918726
0.918761
0.918796
0.91883
0.918864
0.918898
0.918932
0.918966
0.918999
0.919033
0.919067
0.9191
0.919134
0.919168
0.919201
0.919235
0.919269
0.919304
0.919338
0.919373
0.919408
0.919443
0.919478
0.919514
0.91955
0.919586
0.919622
0.919659
0.919696
0.919733
0.919771
0.919809
0.919847
0.919885
0.919924
0.919963
0.920002
0.920041
0.92008
0.920119
0.920159
0.920198
0.920238
0.920278
0.920317
0.920356
0.920396
0.920435
0.920474
0.920513
0.920551
0.920589
0.920627
0.920664
0.920702
0.920738
0.920774
0.92081
0.920845
0.92088
0.920914
0.920947
0.92098
0.921012
0.921044
0.921075
0.921105
0.921134
0.921163
0.921191
0.921218
0.921245
0.92127
0.921296
0.92132
0.921343
0.921366
0.921389
0.92141
0.921431
0.921451
0.921471
0.92149
0.921509
0.921526
0.921544
0.921561
0.921577
0.921593
0.921608
0.921624
0.921638
0.921653
0.921667
0.921681
0.921694
0.921707
0.921721
0.921733
0.921746
0.921759
0.921771
0.921784
0.921796
0.921809
0.921821
0.921834
0.921846
0.921858
0.921871
0.921884
0.921896
0.921909
0.921922
0.921935
0.921949
0.921962
0.921976
0.92199
0.922004
0.922018
0.922033
0.922047
0.922063
0.922078
0.922094
0.92211
0.922127
0.922144
0.922162
0.92218
0.922198
0.922217
0.922237
0.922258
0.922279
0.922301
0.922323
0.922347
0.922371
0.922397
0.922423
0.92245
0.922479
0.922509
0.922539
0.922571
0.922605
0.922639
0.922675
0.922713
0.922751
0.922791
0.922833
0.922875
0.922919
0.922964
0.923011
0.923058
0.923106
0.923155
0.923205
0.923256
0.923306
0.923357
0.923408
0.923458
0.923508
0.923556
0.923604
0.923649
0.923692
0.923733
0.923771
0.923805
0.923836
0.923862
0.923883
0.923899
0.923908
0.923912
0.923908
0.923896
0.923877
0.923849
0.923812
0.923765
0.923707
0.923639
0.923559
0.923467
0.923362
0.923243
0.923108
0.922957
0.922786
0.922593
0.922374
0.922123
0.92183
0.921484
0.92106
0.920521
0.919823
0.918921
0.917679
0.91543
0.91042
0.902147
0.894343
0.882896
0
0
0.959637
0.95074
0.947553
0.943711
0.940234
0.93765
0.935613
0.933935
0.932528
0.931329
0.930288
0.929372
0.928554
0.927818
0.927148
0.926535
0.925969
0.925445
0.924956
0.924499
0.924071
0.923667
0.923287
0.922927
0.922586
0.922263
0.921956
0.921664
0.921386
0.921122
0.92087
0.920629
0.9204
0.920181
0.919972
0.919773
0.919582
0.9194
0.919226
0.91906
0.918902
0.91875
0.918605
0.918466
0.918333
0.918206
0.918085
0.917969
0.917857
0.91775
0.917647
0.917549
0.917454
0.917363
0.917275
0.91719
0.917108
0.917029
0.916952
0.916878
0.916805
0.916735
0.916666
0.916598
0.916532
0.916468
0.916404
0.916341
0.916279
0.916219
0.916158
0.916099
0.91604
0.915982
0.915925
0.915868
0.915813
0.915758
0.915704
0.915651
0.915599
0.915549
0.9155
0.915453
0.915408
0.915366
0.915325
0.915288
0.915253
0.915221
0.915192
0.915167
0.915145
0.915127
0.915113
0.915102
0.915096
0.915094
0.915095
0.915101
0.91511
0.915123
0.91514
0.91516
0.915183
0.915209
0.915238
0.915269
0.915303
0.915339
0.915376
0.915415
0.915455
0.915496
0.915538
0.91558
0.915623
0.915667
0.91571
0.915754
0.915798
0.915841
0.915885
0.915928
0.915971
0.916014
0.916057
0.9161
0.916142
0.916185
0.916227
0.916269
0.916312
0.916354
0.916396
0.916438
0.91648
0.916523
0.916565
0.916608
0.916651
0.916694
0.916738
0.916781
0.916825
0.916869
0.916913
0.916958
0.917002
0.917047
0.917092
0.917138
0.917183
0.917228
0.917274
0.91732
0.917365
0.917411
0.917457
0.917502
0.917548
0.917593
0.917638
0.917683
0.917728
0.917773
0.917817
0.917861
0.917905
0.917948
0.917991
0.918033
0.918076
0.918117
0.918159
0.918199
0.91824
0.91828
0.918319
0.918358
0.918397
0.918435
0.918473
0.91851
0.918547
0.918583
0.918619
0.918655
0.91869
0.918725
0.91876
0.918795
0.918829
0.918863
0.918897
0.918931
0.918965
0.918999
0.919032
0.919066
0.919099
0.919133
0.919167
0.9192
0.919234
0.919268
0.919303
0.919337
0.919372
0.919407
0.919442
0.919477
0.919513
0.919548
0.919585
0.919621
0.919658
0.919695
0.919732
0.919769
0.919807
0.919845
0.919884
0.919922
0.919961
0.92
0.920039
0.920078
0.920117
0.920157
0.920196
0.920235
0.920275
0.920314
0.920354
0.920393
0.920432
0.920471
0.920509
0.920548
0.920586
0.920624
0.920661
0.920698
0.920735
0.920771
0.920806
0.920842
0.920876
0.92091
0.920943
0.920976
0.921008
0.92104
0.921071
0.921101
0.92113
0.921159
0.921187
0.921214
0.92124
0.921266
0.921291
0.921315
0.921339
0.921362
0.921384
0.921405
0.921426
0.921447
0.921466
0.921485
0.921504
0.921521
0.921539
0.921555
0.921572
0.921588
0.921603
0.921618
0.921633
0.921647
0.921661
0.921675
0.921688
0.921701
0.921714
0.921727
0.92174
0.921752
0.921765
0.921777
0.921789
0.921802
0.921814
0.921826
0.921838
0.921851
0.921863
0.921876
0.921888
0.921901
0.921914
0.921926
0.92194
0.921953
0.921966
0.92198
0.921994
0.922008
0.922022
0.922037
0.922052
0.922067
0.922082
0.922098
0.922115
0.922131
0.922148
0.922166
0.922184
0.922203
0.922222
0.922242
0.922263
0.922284
0.922306
0.922329
0.922353
0.922377
0.922403
0.92243
0.922457
0.922486
0.922516
0.922547
0.922579
0.922613
0.922648
0.922684
0.922721
0.92276
0.922799
0.922841
0.922883
0.922927
0.922971
0.923017
0.923063
0.923111
0.923159
0.923207
0.923256
0.923305
0.923353
0.923401
0.923449
0.923495
0.92354
0.923583
0.923624
0.923662
0.923697
0.923729
0.923756
0.923779
0.923797
0.92381
0.923816
0.923816
0.923808
0.923793
0.923769
0.923736
0.923693
0.92364
0.923576
0.923501
0.923412
0.92331
0.923193
0.92306
0.92291
0.922739
0.922545
0.922325
0.922073
0.92178
0.921437
0.921027
0.920529
0.919906
0.919091
0.917968
0.916413
0.914337
0.911072
0.904954
0.901389
0.90685
0
0
0.949771
0.947376
0.94531
0.94215
0.939611
0.937406
0.93551
0.933911
0.932551
0.931374
0.930343
0.92943
0.928613
0.927875
0.927203
0.926587
0.926018
0.925491
0.925
0.924541
0.92411
0.923704
0.923321
0.92296
0.922617
0.922292
0.921984
0.92169
0.921411
0.921145
0.920892
0.92065
0.92042
0.9202
0.91999
0.91979
0.919598
0.919415
0.919241
0.919074
0.918915
0.918762
0.918617
0.918477
0.918344
0.918217
0.918095
0.917978
0.917866
0.917759
0.917656
0.917557
0.917463
0.917371
0.917283
0.917198
0.917117
0.917037
0.916961
0.916886
0.916814
0.916743
0.916674
0.916607
0.916541
0.916477
0.916413
0.916351
0.91629
0.916229
0.916169
0.91611
0.916051
0.915993
0.915936
0.91588
0.915824
0.915769
0.915715
0.915662
0.915611
0.91556
0.915511
0.915464
0.915419
0.915376
0.915335
0.915296
0.915261
0.915228
0.915199
0.915173
0.91515
0.915132
0.915117
0.915106
0.915099
0.915096
0.915097
0.915102
0.915111
0.915123
0.915139
0.915159
0.915182
0.915208
0.915237
0.915268
0.915302
0.915337
0.915375
0.915414
0.915454
0.915495
0.915537
0.91558
0.915623
0.915667
0.915711
0.915755
0.915799
0.915843
0.915886
0.91593
0.915973
0.916017
0.91606
0.916102
0.916145
0.916188
0.91623
0.916272
0.916314
0.916357
0.916399
0.916441
0.916483
0.916526
0.916568
0.916611
0.916654
0.916697
0.91674
0.916784
0.916828
0.916871
0.916916
0.91696
0.917005
0.917049
0.917094
0.917139
0.917185
0.91723
0.917275
0.917321
0.917367
0.917412
0.917458
0.917503
0.917548
0.917594
0.917639
0.917684
0.917728
0.917773
0.917817
0.917861
0.917905
0.917948
0.917991
0.918033
0.918075
0.918117
0.918158
0.918199
0.918239
0.918279
0.918318
0.918357
0.918396
0.918434
0.918472
0.918509
0.918546
0.918582
0.918618
0.918654
0.918689
0.918725
0.918759
0.918794
0.918828
0.918862
0.918896
0.91893
0.918964
0.918998
0.919031
0.919065
0.919098
0.919132
0.919166
0.919199
0.919233
0.919267
0.919301
0.919336
0.91937
0.919405
0.91944
0.919476
0.919511
0.919547
0.919583
0.919619
0.919656
0.919693
0.91973
0.919767
0.919805
0.919843
0.919881
0.91992
0.919958
0.919997
0.920036
0.920075
0.920114
0.920154
0.920193
0.920232
0.920272
0.920311
0.92035
0.920389
0.920428
0.920467
0.920506
0.920544
0.920582
0.920619
0.920657
0.920694
0.92073
0.920766
0.920802
0.920837
0.920871
0.920905
0.920939
0.920971
0.921003
0.921035
0.921065
0.921095
0.921125
0.921153
0.921181
0.921208
0.921235
0.92126
0.921285
0.92131
0.921333
0.921356
0.921378
0.9214
0.921421
0.921441
0.92146
0.921479
0.921498
0.921515
0.921533
0.921549
0.921566
0.921581
0.921597
0.921612
0.921626
0.92164
0.921654
0.921668
0.921681
0.921694
0.921707
0.92172
0.921732
0.921745
0.921757
0.921769
0.921781
0.921794
0.921806
0.921818
0.92183
0.921842
0.921854
0.921866
0.921879
0.921891
0.921904
0.921916
0.921929
0.921942
0.921955
0.921968
0.921982
0.921996
0.92201
0.922024
0.922039
0.922053
0.922069
0.922084
0.9221
0.922116
0.922133
0.92215
0.922168
0.922186
0.922205
0.922224
0.922244
0.922265
0.922286
0.922308
0.922331
0.922355
0.92238
0.922406
0.922433
0.92246
0.922489
0.922519
0.922551
0.922583
0.922617
0.922651
0.922687
0.922725
0.922763
0.922803
0.922844
0.922886
0.922929
0.922973
0.923018
0.923064
0.92311
0.923157
0.923204
0.92325
0.923297
0.923343
0.923389
0.923433
0.923476
0.923517
0.923555
0.923591
0.923624
0.923654
0.923679
0.923699
0.923715
0.923725
0.923728
0.923725
0.923714
0.923695
0.923667
0.92363
0.923583
0.923524
0.923454
0.923372
0.923276
0.923165
0.923038
0.922893
0.922729
0.922543
0.922332
0.922091
0.921814
0.921494
0.92112
0.920676
0.920139
0.919478
0.918655
0.917607
0.916178
0.914205
0.912085
0.910181
0.908567
0.911134
0
0
0.943873
0.943876
0.942319
0.940429
0.938573
0.936737
0.935101
0.933663
0.932396
0.931277
0.930284
0.929396
0.928595
0.927867
0.927203
0.926591
0.926026
0.925501
0.925012
0.924553
0.924123
0.923718
0.923335
0.922973
0.92263
0.922305
0.921996
0.921702
0.921422
0.921156
0.920902
0.92066
0.920429
0.920209
0.919998
0.919797
0.919606
0.919423
0.919248
0.91908
0.918921
0.918768
0.918622
0.918483
0.91835
0.918222
0.9181
0.917983
0.917871
0.917764
0.917661
0.917563
0.917468
0.917377
0.917289
0.917204
0.917123
0.917044
0.916967
0.916893
0.916821
0.916751
0.916682
0.916615
0.91655
0.916485
0.916422
0.91636
0.916299
0.916239
0.916179
0.91612
0.916062
0.916004
0.915947
0.915891
0.915835
0.91578
0.915726
0.915673
0.915621
0.91557
0.915521
0.915473
0.915427
0.915384
0.915342
0.915303
0.915267
0.915233
0.915203
0.915176
0.915153
0.915134
0.915118
0.915106
0.915098
0.915095
0.915095
0.9151
0.915108
0.915121
0.915137
0.915157
0.915179
0.915206
0.915234
0.915266
0.9153
0.915336
0.915374
0.915413
0.915454
0.915495
0.915538
0.915581
0.915625
0.915669
0.915713
0.915758
0.915802
0.915846
0.91589
0.915934
0.915978
0.916021
0.916064
0.916107
0.91615
0.916193
0.916235
0.916277
0.91632
0.916362
0.916404
0.916446
0.916488
0.916531
0.916573
0.916616
0.916659
0.916702
0.916745
0.916788
0.916832
0.916875
0.916919
0.916964
0.917008
0.917053
0.917098
0.917142
0.917188
0.917233
0.917278
0.917323
0.917369
0.917414
0.91746
0.917505
0.91755
0.917595
0.91764
0.917685
0.917729
0.917774
0.917818
0.917862
0.917905
0.917948
0.917991
0.918033
0.918075
0.918117
0.918158
0.918199
0.918239
0.918279
0.918318
0.918357
0.918395
0.918434
0.918471
0.918508
0.918545
0.918582
0.918618
0.918653
0.918689
0.918724
0.918759
0.918793
0.918827
0.918862
0.918895
0.918929
0.918963
0.918997
0.91903
0.919064
0.919097
0.919131
0.919164
0.919198
0.919232
0.919266
0.9193
0.919334
0.919369
0.919404
0.919439
0.919474
0.919509
0.919545
0.919581
0.919617
0.919654
0.919691
0.919728
0.919765
0.919803
0.91984
0.919879
0.919917
0.919955
0.919994
0.920033
0.920072
0.920111
0.92015
0.920189
0.920228
0.920268
0.920307
0.920346
0.920385
0.920424
0.920462
0.920501
0.920539
0.920577
0.920614
0.920652
0.920688
0.920725
0.920761
0.920796
0.920831
0.920866
0.920899
0.920933
0.920965
0.920997
0.921029
0.921059
0.921089
0.921118
0.921147
0.921175
0.921202
0.921228
0.921254
0.921279
0.921303
0.921327
0.921349
0.921372
0.921393
0.921414
0.921434
0.921453
0.921472
0.921491
0.921508
0.921525
0.921542
0.921558
0.921574
0.921589
0.921604
0.921619
0.921633
0.921647
0.92166
0.921673
0.921686
0.921699
0.921712
0.921724
0.921736
0.921748
0.92176
0.921772
0.921784
0.921796
0.921808
0.92182
0.921832
0.921844
0.921856
0.921868
0.92188
0.921892
0.921905
0.921917
0.92193
0.921943
0.921956
0.921969
0.921982
0.921996
0.92201
0.922024
0.922038
0.922053
0.922068
0.922084
0.922099
0.922116
0.922132
0.922149
0.922167
0.922185
0.922204
0.922223
0.922243
0.922264
0.922285
0.922308
0.922331
0.922354
0.922379
0.922405
0.922432
0.92246
0.922489
0.922519
0.92255
0.922583
0.922616
0.922651
0.922687
0.922724
0.922763
0.922802
0.922843
0.922884
0.922927
0.92297
0.923014
0.923059
0.923104
0.923149
0.923195
0.92324
0.923284
0.923328
0.92337
0.923411
0.923451
0.923488
0.923522
0.923553
0.92358
0.923603
0.923622
0.923635
0.923643
0.923644
0.923638
0.923624
0.923602
0.923571
0.92353
0.923479
0.923416
0.923341
0.923253
0.92315
0.923032
0.922897
0.922744
0.92257
0.922373
0.92215
0.921896
0.921606
0.921273
0.920888
0.920438
0.919907
0.91927
0.918497
0.917562
0.916462
0.915154
0.91375
0.913009
0.912771
0.913442
0
0
0.940494
0.940619
0.939763
0.938654
0.937261
0.93584
0.934489
0.933234
0.932091
0.931058
0.930123
0.929276
0.928505
0.927799
0.92715
0.926551
0.925995
0.925477
0.924993
0.924538
0.924111
0.923708
0.923328
0.922967
0.922626
0.922301
0.921993
0.9217
0.92142
0.921154
0.920901
0.920659
0.920428
0.920208
0.919997
0.919797
0.919605
0.919422
0.919247
0.91908
0.91892
0.918768
0.918622
0.918483
0.91835
0.918222
0.918101
0.917984
0.917872
0.917766
0.917663
0.917565
0.91747
0.917379
0.917292
0.917208
0.917126
0.917048
0.916972
0.916898
0.916826
0.916757
0.916688
0.916622
0.916557
0.916493
0.916431
0.916369
0.916308
0.916248
0.916189
0.91613
0.916072
0.916014
0.915958
0.915901
0.915845
0.91579
0.915736
0.915683
0.91563
0.915579
0.915529
0.915481
0.915435
0.91539
0.915348
0.915308
0.91527
0.915236
0.915205
0.915177
0.915153
0.915133
0.915116
0.915104
0.915096
0.915091
0.915091
0.915096
0.915104
0.915116
0.915132
0.915152
0.915175
0.915202
0.915231
0.915263
0.915298
0.915334
0.915373
0.915413
0.915454
0.915497
0.91554
0.915584
0.915628
0.915673
0.915718
0.915762
0.915807
0.915852
0.915896
0.91594
0.915984
0.916028
0.916071
0.916114
0.916157
0.9162
0.916242
0.916285
0.916327
0.916369
0.916411
0.916453
0.916495
0.916538
0.91658
0.916622
0.916665
0.916708
0.916751
0.916794
0.916837
0.916881
0.916925
0.916969
0.917013
0.917058
0.917102
0.917147
0.917192
0.917237
0.917282
0.917327
0.917372
0.917417
0.917463
0.917508
0.917553
0.917598
0.917642
0.917687
0.917731
0.917776
0.917819
0.917863
0.917906
0.917949
0.917992
0.918034
0.918076
0.918117
0.918158
0.918199
0.918239
0.918279
0.918318
0.918357
0.918395
0.918433
0.918471
0.918508
0.918545
0.918581
0.918617
0.918653
0.918688
0.918723
0.918758
0.918792
0.918827
0.918861
0.918895
0.918928
0.918962
0.918996
0.919029
0.919063
0.919096
0.91913
0.919163
0.919197
0.919231
0.919264
0.919299
0.919333
0.919367
0.919402
0.919437
0.919472
0.919507
0.919543
0.919579
0.919615
0.919651
0.919688
0.919725
0.919762
0.9198
0.919837
0.919875
0.919913
0.919952
0.91999
0.920029
0.920068
0.920107
0.920146
0.920185
0.920224
0.920263
0.920302
0.920341
0.92038
0.920418
0.920457
0.920495
0.920533
0.920571
0.920609
0.920646
0.920682
0.920719
0.920755
0.92079
0.920825
0.920859
0.920893
0.920926
0.920958
0.92099
0.921022
0.921052
0.921082
0.921111
0.92114
0.921167
0.921195
0.921221
0.921246
0.921271
0.921295
0.921319
0.921342
0.921364
0.921385
0.921406
0.921426
0.921445
0.921464
0.921483
0.9215
0.921517
0.921534
0.92155
0.921566
0.921581
0.921596
0.92161
0.921624
0.921638
0.921651
0.921664
0.921677
0.92169
0.921702
0.921714
0.921726
0.921738
0.92175
0.921762
0.921774
0.921786
0.921797
0.921809
0.92182
0.921832
0.921844
0.921856
0.921868
0.92188
0.921892
0.921904
0.921916
0.921929
0.921941
0.921954
0.921967
0.921981
0.921994
0.922008
0.922022
0.922036
0.922051
0.922066
0.922081
0.922096
0.922112
0.922129
0.922146
0.922163
0.922181
0.9222
0.922219
0.922239
0.92226
0.922281
0.922303
0.922326
0.92235
0.922375
0.922401
0.922428
0.922456
0.922485
0.922515
0.922546
0.922578
0.922612
0.922647
0.922683
0.92272
0.922758
0.922797
0.922838
0.922879
0.922921
0.922963
0.923007
0.92305
0.923094
0.923138
0.923181
0.923224
0.923267
0.923308
0.923347
0.923385
0.92342
0.923453
0.923482
0.923508
0.92353
0.923546
0.923558
0.923563
0.923562
0.923554
0.923538
0.923513
0.92348
0.923436
0.923381
0.923314
0.923235
0.923143
0.923036
0.922913
0.922772
0.922613
0.922433
0.92223
0.922001
0.921742
0.92145
0.921118
0.920739
0.920305
0.919805
0.91923
0.918566
0.917803
0.916961
0.916133
0.91537
0.914908
0.915046
0.915548
0
0
0.938017
0.93805
0.937646
0.936908
0.935915
0.934841
0.933742
0.932676
0.931672
0.930738
0.929876
0.929082
0.928351
0.927675
0.927049
0.926468
0.925926
0.925419
0.924943
0.924496
0.924075
0.923677
0.9233
0.922943
0.922604
0.922282
0.921975
0.921683
0.921405
0.921141
0.920888
0.920647
0.920417
0.920197
0.919988
0.919787
0.919596
0.919414
0.919239
0.919073
0.918914
0.918762
0.918616
0.918477
0.918345
0.918218
0.918097
0.917981
0.917869
0.917763
0.917661
0.917563
0.917469
0.917379
0.917292
0.917209
0.917128
0.91705
0.916974
0.916901
0.91683
0.916761
0.916694
0.916628
0.916563
0.9165
0.916438
0.916377
0.916316
0.916257
0.916198
0.91614
0.916082
0.916024
0.915967
0.915911
0.915855
0.9158
0.915746
0.915692
0.915639
0.915587
0.915537
0.915488
0.91544
0.915395
0.915351
0.91531
0.915272
0.915237
0.915204
0.915176
0.91515
0.915129
0.915112
0.915099
0.91509
0.915085
0.915085
0.915089
0.915097
0.91511
0.915126
0.915146
0.91517
0.915197
0.915227
0.91526
0.915295
0.915333
0.915372
0.915413
0.915456
0.915499
0.915543
0.915588
0.915633
0.915678
0.915724
0.915769
0.915814
0.915859
0.915904
0.915949
0.915993
0.916037
0.91608
0.916124
0.916166
0.916209
0.916252
0.916294
0.916336
0.916378
0.91642
0.916462
0.916504
0.916546
0.916588
0.916631
0.916673
0.916716
0.916759
0.916802
0.916845
0.916888
0.916932
0.916976
0.91702
0.917064
0.917108
0.917153
0.917197
0.917242
0.917287
0.917332
0.917377
0.917422
0.917467
0.917511
0.917556
0.917601
0.917646
0.91769
0.917734
0.917778
0.917822
0.917865
0.917908
0.917951
0.917994
0.918036
0.918077
0.918119
0.918159
0.9182
0.91824
0.918279
0.918319
0.918357
0.918396
0.918434
0.918471
0.918508
0.918545
0.918581
0.918617
0.918652
0.918688
0.918723
0.918757
0.918792
0.918826
0.91886
0.918894
0.918927
0.918961
0.918995
0.919028
0.919061
0.919095
0.919128
0.919162
0.919195
0.919229
0.919263
0.919297
0.919331
0.919365
0.9194
0.919434
0.919469
0.919505
0.91954
0.919576
0.919612
0.919648
0.919685
0.919722
0.919759
0.919796
0.919834
0.919871
0.919909
0.919948
0.919986
0.920025
0.920063
0.920102
0.920141
0.92018
0.920219
0.920258
0.920296
0.920335
0.920374
0.920413
0.920451
0.920489
0.920527
0.920565
0.920602
0.920639
0.920675
0.920712
0.920747
0.920783
0.920817
0.920852
0.920885
0.920918
0.920951
0.920982
0.921014
0.921044
0.921074
0.921103
0.921131
0.921159
0.921186
0.921212
0.921238
0.921263
0.921287
0.92131
0.921333
0.921355
0.921376
0.921397
0.921417
0.921437
0.921455
0.921474
0.921491
0.921508
0.921525
0.921541
0.921556
0.921571
0.921586
0.9216
0.921614
0.921628
0.921641
0.921654
0.921667
0.921679
0.921692
0.921704
0.921716
0.921728
0.921739
0.921751
0.921762
0.921774
0.921785
0.921797
0.921808
0.92182
0.921831
0.921843
0.921854
0.921866
0.921878
0.921889
0.921901
0.921914
0.921926
0.921938
0.921951
0.921964
0.921977
0.92199
0.922003
0.922017
0.922031
0.922046
0.92206
0.922075
0.922091
0.922107
0.922123
0.92214
0.922157
0.922175
0.922193
0.922212
0.922232
0.922253
0.922274
0.922296
0.922319
0.922343
0.922368
0.922393
0.92242
0.922448
0.922477
0.922507
0.922538
0.922571
0.922604
0.922639
0.922675
0.922712
0.92275
0.922789
0.922828
0.922869
0.92291
0.922952
0.922995
0.923037
0.92308
0.923122
0.923164
0.923204
0.923244
0.923282
0.923319
0.923353
0.923384
0.923412
0.923437
0.923457
0.923472
0.923482
0.923486
0.923483
0.923473
0.923455
0.923429
0.923392
0.923346
0.923289
0.92322
0.923138
0.923042
0.922932
0.922805
0.922662
0.9225
0.922318
0.922113
0.921884
0.921628
0.921341
0.92102
0.920661
0.920258
0.919808
0.919307
0.918756
0.918168
0.91756
0.917002
0.916589
0.916362
0.916524
0.917062
0
0
0.935971
0.936037
0.935829
0.935324
0.934628
0.933809
0.932928
0.932039
0.931171
0.930342
0.929559
0.928826
0.928141
0.927502
0.926904
0.926345
0.925821
0.925329
0.924865
0.924428
0.924015
0.923623
0.923252
0.9229
0.922565
0.922246
0.921943
0.921653
0.921378
0.921115
0.920864
0.920624
0.920396
0.920177
0.919969
0.91977
0.919579
0.919398
0.919224
0.919059
0.9189
0.918749
0.918605
0.918467
0.918335
0.918209
0.918088
0.917973
0.917863
0.917757
0.917656
0.917559
0.917466
0.917376
0.91729
0.917207
0.917127
0.91705
0.916975
0.916903
0.916833
0.916764
0.916698
0.916633
0.916569
0.916506
0.916445
0.916384
0.916324
0.916265
0.916207
0.916149
0.916091
0.916034
0.915977
0.915921
0.915865
0.915809
0.915754
0.9157
0.915647
0.915594
0.915543
0.915493
0.915444
0.915398
0.915353
0.915311
0.915272
0.915235
0.915201
0.915172
0.915145
0.915123
0.915105
0.915091
0.915081
0.915077
0.915076
0.91508
0.915088
0.915101
0.915118
0.915139
0.915163
0.915191
0.915222
0.915256
0.915293
0.915332
0.915372
0.915414
0.915458
0.915502
0.915547
0.915593
0.915639
0.915685
0.915732
0.915778
0.915824
0.915869
0.915914
0.915959
0.916004
0.916048
0.916092
0.916135
0.916178
0.916221
0.916263
0.916305
0.916347
0.916389
0.916431
0.916473
0.916515
0.916557
0.916599
0.916641
0.916683
0.916725
0.916768
0.916811
0.916854
0.916897
0.91694
0.916984
0.917027
0.917071
0.917115
0.91716
0.917204
0.917248
0.917293
0.917338
0.917382
0.917427
0.917472
0.917516
0.917561
0.917605
0.91765
0.917694
0.917738
0.917781
0.917825
0.917868
0.917911
0.917953
0.917996
0.918038
0.918079
0.91812
0.918161
0.918201
0.918241
0.918281
0.91832
0.918358
0.918396
0.918434
0.918471
0.918508
0.918545
0.918581
0.918617
0.918652
0.918688
0.918722
0.918757
0.918791
0.918825
0.918859
0.918893
0.918927
0.91896
0.918994
0.919027
0.91906
0.919094
0.919127
0.91916
0.919194
0.919227
0.919261
0.919295
0.919329
0.919363
0.919397
0.919432
0.919467
0.919502
0.919537
0.919573
0.919609
0.919645
0.919681
0.919718
0.919755
0.919792
0.91983
0.919867
0.919905
0.919943
0.919981
0.92002
0.920058
0.920097
0.920135
0.920174
0.920213
0.920252
0.92029
0.920329
0.920367
0.920406
0.920444
0.920482
0.92052
0.920557
0.920594
0.920631
0.920668
0.920704
0.920739
0.920774
0.920809
0.920843
0.920877
0.92091
0.920942
0.920974
0.921005
0.921035
0.921065
0.921094
0.921122
0.92115
0.921177
0.921203
0.921229
0.921253
0.921277
0.921301
0.921323
0.921345
0.921367
0.921387
0.921407
0.921427
0.921445
0.921464
0.921481
0.921498
0.921515
0.921531
0.921546
0.921561
0.921576
0.92159
0.921604
0.921617
0.92163
0.921643
0.921656
0.921668
0.92168
0.921692
0.921704
0.921716
0.921727
0.921739
0.92175
0.921761
0.921772
0.921784
0.921795
0.921806
0.921817
0.921828
0.92184
0.921851
0.921862
0.921874
0.921885
0.921897
0.921909
0.921921
0.921933
0.921946
0.921958
0.921971
0.921984
0.921997
0.92201
0.922024
0.922038
0.922053
0.922067
0.922083
0.922098
0.922114
0.922131
0.922148
0.922166
0.922184
0.922203
0.922222
0.922243
0.922264
0.922286
0.922309
0.922332
0.922357
0.922383
0.92241
0.922437
0.922466
0.922496
0.922528
0.92256
0.922593
0.922628
0.922664
0.9227
0.922738
0.922777
0.922816
0.922856
0.922897
0.922938
0.922979
0.92302
0.923062
0.923102
0.923142
0.92318
0.923218
0.923253
0.923286
0.923316
0.923343
0.923366
0.923385
0.923399
0.923408
0.92341
0.923406
0.923395
0.923375
0.923347
0.923309
0.923261
0.923202
0.923131
0.923047
0.922949
0.922837
0.922709
0.922565
0.922403
0.922221
0.922019
0.921795
0.921546
0.921272
0.920969
0.920637
0.920273
0.919878
0.919454
0.919008
0.918556
0.918127
0.917754
0.91751
0.917442
0.917606
0.918069
0
0
0.934269
0.934382
0.934263
0.933925
0.933424
0.932797
0.932097
0.931361
0.930619
0.929891
0.929189
0.92852
0.927885
0.927286
0.926721
0.926188
0.925685
0.92521
0.924761
0.924336
0.923933
0.92355
0.923186
0.92284
0.92251
0.922196
0.921896
0.92161
0.921338
0.921078
0.920829
0.920592
0.920365
0.920148
0.919942
0.919744
0.919555
0.919375
0.919203
0.919038
0.918881
0.918731
0.918588
0.918451
0.91832
0.918195
0.918076
0.917961
0.917852
0.917747
0.917647
0.917551
0.917459
0.917371
0.917285
0.917204
0.917125
0.917048
0.916975
0.916903
0.916834