# vtk DataFile Version 2.0
LBE mesh
ASCII
DATASET STRUCTURED_POINTS
DIMENSIONS 402 102 1
ASPECT_RATIO 1 1 1
ORIGIN 0 0 0
POINT_DATA 41004
SCALARS rho double 1
LOOKUP_TABLE default
0
0
0
0
0
0
0
0
0
0
0
0
0
0
0
0
0
0
0
0
0
0
0
0
0
0
0
0
0
0
0
0
0
0
0
0
0
0
0
0
0
0
0
0
0
0
0
0
0
0
0
0
0
0
0
0
0
0
0
0
0
0
0
0
0
0
0
0
0
0
0
0
0
0
0
0
0
0
0
0
0
0
0
0
0
0
0
0
0
0
0
0
0
0
0
0
0
0
0
0
0
0
0
0
0
0
0
0
0
0
0
0
0
0
0
0
0
0
0
0
0
0
0
0
0
0
0
0
0
0
0
0
0
0
0
0
0
0
0
0
0
0
0
0
0
0
0
0
0
0
0
0
0
0
0
0
0
0
0
0
0
0
0
0
0
0
0
0
0
0
0
0
0
0
0
0
0
0
0
0
0
0
0
0
0
0
0
0
0
0
0
0
0
0
0
0
0
0
0
0
0
0
0
0
0
0
0
0
0
0
0
0
0
0
0
0
0
0
0
0
0
0
0
0
0
0
0
0
0
0
0
0
0
0
0
0
0
0
0
0
0
0
0
0
0
0
0
0
0
0
0
0
0
0
0
0
0
0
0
0
0
0
0
0
0
0
0
0
0
0
0
0
0
0
0
0
0
0
0
0
0
0
0
0
0
0
0
0
0
0
0
0
0
0
0
0
0
0
0
0
0
0
0
0
0
0
0
0
0
0
0
0
0
0
0
0
0
0
0
0
0
0
0
0
0
0
0
0
0
0
0
0
0
0
0
0
0
0
0
0
0
0
0
0
0
0
0
0
0
0
0
0
0
0
0
0
0
0
0
0
0
0
0
0
0
0
0
0
0
0
0
0
0
0
0
0
0
0
0
0
0
0
0
0
0
0
0
0
0
0
0
0
0
0
0
0
0
0
0
0
0
0
0
0.953231
1.02208
1.00902
1.0009
0.99714
0.994693
0.992689
0.991039
0.989675
0.988514
0.987505
0.986617
0.985826
0.985117
0.984477
0.983895
0.983366
0.982881
0.982437
0.982028
0.98165
0.981301
0.980978
0.980677
0.980397
0.980135
0.97989
0.97966
0.979444
0.97924
0.979047
0.978864
0.97869
0.978524
0.978366
0.978214
0.978068
0.977927
0.97779
0.977658
0.977529
0.977403
0.977279
0.977157
0.977037
0.976918
0.9768
0.976682
0.976564
0.976446
0.976328
0.97621
0.976091
0.975971
0.97585
0.975728
0.975606
0.975483
0.975359
0.975234
0.975109
0.974984
0.974859
0.974733
0.974609
0.974484
0.974361
0.974238
0.974117
0.973997
0.97388
0.973764
0.97365
0.973539
0.973431
0.973326
0.973223
0.973125
0.97303
0.972938
0.972851
0.972768
0.97269
0.972617
0.972548
0.972485
0.972427
0.972374
0.972328
0.972288
0.972254
0.972226
0.972205
0.972191
0.972183
0.972183
0.972189
0.972202
0.972223
0.97225
0.972283
0.972323
0.972369
0.972422
0.972479
0.972543
0.972611
0.972683
0.97276
0.972841
0.972925
0.973012
0.973102
0.973193
0.973287
0.973381
0.973477
0.973573
0.973669
0.973765
0.97386
0.973954
0.974047
0.974138
0.974227
0.974314
0.974398
0.97448
0.974559
0.974634
0.974706
0.974774
0.974838
0.974899
0.974955
0.975007
0.975055
0.975099
0.975139
0.975174
0.975206
0.975234
0.975258
0.975279
0.975296
0.97531
0.975322
0.975331
0.975337
0.975342
0.975345
0.975346
0.975347
0.975346
0.975344
0.975342
0.97534
0.975337
0.975335
0.975332
0.975329
0.975327
0.975324
0.975322
0.975319
0.975316
0.975313
0.97531
0.975306
0.975302
0.975297
0.975291
0.975284
0.975276
0.975267
0.975256
0.975244
0.975231
0.975217
0.975201
0.975183
0.975165
0.975145
0.975125
0.975102
0.97508
0.975056
0.975033
0.975008
0.974984
0.974959
0.974935
0.97491
0.974886
0.974862
0.974838
0.974815
0.974793
0.974771
0.974749
0.974727
0.974707
0.974685
0.974665
0.974643
0.974622
0.974599
0.974577
0.974553
0.974529
0.974502
0.974475
0.974446
0.974415
0.974382
0.974348
0.974311
0.974273
0.974233
0.974191
0.974147
0.974101
0.974054
0.974005
0.973955
0.973904
0.973852
0.9738
0.973747
0.973694
0.973641
0.973589
0.973538
0.973487
0.973438
0.97339
0.973344
0.9733
0.973257
0.973218
0.97318
0.973146
0.973114
0.973085
0.973059
0.973036
0.973016
0.973
0.972987
0.972977
0.972971
0.972968
0.972968
0.972972
0.97298
0.972991
0.973005
0.973024
0.973045
0.97307
0.973099
0.973131
0.973167
0.973207
0.97325
0.973297
0.973346
0.9734
0.973457
0.973517
0.97358
0.973647
0.973716
0.973789
0.973863
0.97394
0.974019
0.9741
0.974181
0.974264
0.974347
0.974431
0.974513
0.974596
0.974676
0.974755
0.974831
0.974904
0.974973
0.975038
0.975098
0.975153
0.975202
0.975245
0.97528
0.975308
0.975329
0.975341
0.975344
0.975339
0.975325
0.975302
0.975269
0.975227
0.975176
0.975116
0.975047
0.974969
0.974882
0.974788
0.974685
0.974576
0.974459
0.974336
0.974207
0.974073
0.973933
0.97379
0.973643
0.973493
0.97334
0.973185
0.973029
0.972872
0.972714
0.972556
0.972399
0.972243
0.972088
0.971935
0.971784
0.971635
0.971488
0.971345
0.971204
0.971067
0.970933
0.970803
0.970676
0.970554
0.970434
0.970319
0.970208
0.970101
0.969998
0.969899
0.969803
0.969712
0.969625
0.969542
0.969463
0.969387
0.969316
0.969248
0.969183
0.969122
0.969065
0.96901
0.968958
0.968909
0.968863
0.968819
0.968777
0.968737
0.968698
0.96866
0.968623
0.968587
0.968551
0.968515
0.968479
0.968441
0.968402
0.968362
0.968319
0.968273
0.968224
0.968171
0.968114
0.968051
0.967981
0.967905
0.967819
0.967724
0.967615
0.967492
0.967349
0.967182
0.966983
0.966743
0.966448
0.966079
0.965581
0.964827
0.963694
0.962452
0.961683
0.957614
0.923469
0.822964
0
0
1.023
1.01537
1.0072
1.00255
0.998559
0.995579
0.993356
0.991593
0.990131
0.988888
0.987817
0.98688
0.986051
0.98531
0.984645
0.984042
0.983494
0.982995
0.982537
0.982116
0.981729
0.981371
0.98104
0.980732
0.980446
0.980179
0.97993
0.979695
0.979475
0.979268
0.979072
0.978887
0.978711
0.978543
0.978383
0.978229
0.978082
0.977939
0.977802
0.977668
0.977539
0.977412
0.977287
0.977165
0.977045
0.976925
0.976807
0.976689
0.976572
0.976454
0.976336
0.976218
0.976099
0.97598
0.97586
0.975739
0.975617
0.975494
0.975371
0.975247
0.975123
0.974999
0.974875
0.97475
0.974626
0.974502
0.97438
0.974258
0.974138
0.974019
0.973901
0.973786
0.973673
0.973563
0.973455
0.97335
0.973248
0.97315
0.973055
0.972963
0.972876
0.972793
0.972715
0.972641
0.972572
0.972508
0.97245
0.972397
0.97235
0.972308
0.972273
0.972245
0.972223
0.972207
0.972198
0.972196
0.972201
0.972213
0.972232
0.972257
0.972289
0.972328
0.972373
0.972423
0.97248
0.972542
0.972608
0.97268
0.972756
0.972835
0.972918
0.973005
0.973093
0.973184
0.973277
0.973371
0.973466
0.973561
0.973657
0.973752
0.973847
0.973941
0.974033
0.974124
0.974213
0.9743
0.974384
0.974466
0.974544
0.97462
0.974691
0.97476
0.974824
0.974885
0.974941
0.974994
0.975042
0.975086
0.975126
0.975162
0.975194
0.975222
0.975247
0.975268
0.975285
0.9753
0.975312
0.975321
0.975328
0.975333
0.975336
0.975338
0.975338
0.975338
0.975336
0.975335
0.975332
0.97533
0.975327
0.975324
0.975321
0.975319
0.975316
0.975313
0.97531
0.975308
0.975304
0.975301
0.975297
0.975293
0.975287
0.975281
0.975274
0.975266
0.975257
0.975247
0.975235
0.975222
0.975208
0.975192
0.975175
0.975157
0.975137
0.975117
0.975095
0.975073
0.97505
0.975027
0.975003
0.974979
0.974954
0.97493
0.974905
0.974882
0.974858
0.974835
0.974812
0.97479
0.974767
0.974746
0.974725
0.974704
0.974682
0.974662
0.97464
0.974619
0.974597
0.974574
0.97455
0.974526
0.974499
0.974472
0.974443
0.974413
0.97438
0.974346
0.974309
0.974272
0.974231
0.97419
0.974145
0.974101
0.974053
0.974006
0.973955
0.973906
0.973854
0.973803
0.97375
0.973698
0.973645
0.973594
0.973543
0.973493
0.973444
0.973397
0.973351
0.973308
0.973266
0.973227
0.97319
0.973156
0.973124
0.973096
0.973069
0.973047
0.973027
0.973012
0.972998
0.972989
0.972982
0.972979
0.972979
0.972984
0.97299
0.973002
0.973015
0.973034
0.973054
0.97308
0.973108
0.97314
0.973175
0.973215
0.973256
0.973303
0.973352
0.973405
0.973461
0.973521
0.973583
0.97365
0.973718
0.97379
0.973863
0.973939
0.974017
0.974097
0.974177
0.974259
0.974341
0.974424
0.974505
0.974587
0.974666
0.974744
0.974819
0.974891
0.974959
0.975024
0.975082
0.975137
0.975184
0.975226
0.975261
0.975288
0.975307
0.975319
0.975322
0.975316
0.975301
0.975278
0.975245
0.975203
0.975151
0.975091
0.975021
0.974944
0.974857
0.974763
0.97466
0.974551
0.974434
0.974311
0.974182
0.974048
0.973909
0.973766
0.973619
0.973469
0.973317
0.973162
0.973006
0.97285
0.972692
0.972535
0.972378
0.972222
0.972067
0.971914
0.971763
0.971614
0.971468
0.971325
0.971184
0.971047
0.970912
0.970782
0.970655
0.970532
0.970412
0.970297
0.970185
0.970078
0.969974
0.969874
0.969778
0.969686
0.969598
0.969514
0.969433
0.969357
0.969283
0.969214
0.969148
0.969085
0.969025
0.968969
0.968915
0.968864
0.968815
0.968768
0.968723
0.96868
0.968637
0.968597
0.968556
0.968516
0.968475
0.968434
0.968392
0.968349
0.968304
0.968256
0.968205
0.968151
0.968093
0.968029
0.96796
0.967884
0.967799
0.967704
0.967598
0.967477
0.967339
0.967181
0.966994
0.966774
0.966509
0.966185
0.965774
0.965237
0.964524
0.96359
0.962289
0.959921
0.954651
0.94595
0.937745
0.92573
0
0
1.01914
1.00969
1.00631
1.00222
0.998532
0.995786
0.993623
0.991842
0.990351
0.989084
0.987989
0.987029
0.986181
0.985423
0.984743
0.984128
0.983569
0.98306
0.982594
0.982167
0.981773
0.98141
0.981074
0.980762
0.980472
0.980202
0.97995
0.979713
0.979491
0.979282
0.979085
0.978898
0.97872
0.978551
0.97839
0.978236
0.978088
0.977945
0.977807
0.977673
0.977543
0.977416
0.977292
0.977169
0.977049
0.97693
0.976812
0.976694
0.976577
0.97646
0.976343
0.976225
0.976107
0.975988
0.975869
0.975749
0.975628
0.975507
0.975385
0.975262
0.975139
0.975016
0.974892
0.974769
0.974646
0.974524
0.974402
0.974281
0.974162
0.974044
0.973927
0.973813
0.9737
0.97359
0.973483
0.973379
0.973277
0.973179
0.973084
0.972993
0.972905
0.972822
0.972743
0.972669
0.972599
0.972535
0.972475
0.972421
0.972373
0.972331
0.972295
0.972265
0.972241
0.972224
0.972214
0.972211
0.972214
0.972224
0.972241
0.972265
0.972296
0.972333
0.972376
0.972425
0.97248
0.972541
0.972607
0.972677
0.972752
0.97283
0.972913
0.972998
0.973086
0.973176
0.973268
0.973361
0.973455
0.97355
0.973645
0.97374
0.973834
0.973928
0.97402
0.97411
0.974199
0.974285
0.974369
0.97445
0.974529
0.974604
0.974675
0.974743
0.974807
0.974868
0.974924
0.974977
0.975025
0.975069
0.975109
0.975145
0.975177
0.975206
0.975231
0.975252
0.97527
0.975285
0.975297
0.975306
0.975313
0.975319
0.975322
0.975324
0.975324
0.975324
0.975323
0.975321
0.975319
0.975316
0.975313
0.97531
0.975307
0.975305
0.975302
0.975299
0.975296
0.975293
0.975289
0.975286
0.975282
0.975277
0.975272
0.975266
0.975259
0.975251
0.975242
0.975231
0.97522
0.975207
0.975193
0.975178
0.975161
0.975143
0.975124
0.975104
0.975082
0.975061
0.975038
0.975015
0.974992
0.974968
0.974944
0.97492
0.974896
0.974873
0.97485
0.974827
0.974804
0.974783
0.97476
0.97474
0.974718
0.974698
0.974676
0.974656
0.974635
0.974614
0.974591
0.974569
0.974545
0.974521
0.974495
0.974468
0.974439
0.974409
0.974376
0.974343
0.974306
0.974269
0.974229
0.974189
0.974145
0.974101
0.974054
0.974007
0.973958
0.973908
0.973857
0.973807
0.973755
0.973704
0.973652
0.973602
0.973551
0.973503
0.973454
0.973408
0.973363
0.97332
0.973279
0.973241
0.973204
0.973171
0.973139
0.973111
0.973085
0.973064
0.973044
0.973028
0.973015
0.973006
0.972999
0.972996
0.972996
0.973
0.973006
0.973017
0.973031
0.973049
0.973069
0.973094
0.973121
0.973153
0.973187
0.973226
0.973267
0.973313
0.973361
0.973413
0.973468
0.973527
0.973588
0.973654
0.973721
0.973791
0.973863
0.973939
0.974015
0.974094
0.974173
0.974254
0.974334
0.974416
0.974496
0.974576
0.974654
0.974731
0.974804
0.974875
0.974942
0.975005
0.975063
0.975116
0.975163
0.975203
0.975237
0.975263
0.975282
0.975293
0.975295
0.975289
0.975273
0.975249
0.975215
0.975173
0.975121
0.975061
0.974991
0.974913
0.974827
0.974732
0.97463
0.974521
0.974404
0.974282
0.974153
0.974019
0.973881
0.973738
0.973591
0.973442
0.97329
0.973136
0.97298
0.972824
0.972667
0.97251
0.972353
0.972198
0.972043
0.97189
0.971739
0.971591
0.971444
0.971301
0.97116
0.971023
0.970889
0.970758
0.970631
0.970507
0.970387
0.970272
0.970159
0.970051
0.969946
0.969846
0.969749
0.969656
0.969567
0.969481
0.969399
0.969322
0.969247
0.969176
0.969108
0.969043
0.968982
0.968923
0.968867
0.968813
0.968762
0.968712
0.968664
0.968618
0.968572
0.968528
0.968483
0.968439
0.968394
0.968348
0.968301
0.968253
0.968201
0.968147
0.96809
0.968028
0.96796
0.967887
0.967807
0.967718
0.967619
0.967508
0.967383
0.967241
0.967078
0.966889
0.966666
0.966403
0.966084
0.965692
0.965203
0.964577
0.963743
0.962577
0.960949
0.958764
0.955322
0.948883
0.945125
0.95084
0
0
1.00865
1.00611
1.00392
1.00056
0.997856
0.995512
0.993496
0.991798
0.990356
0.989111
0.988025
0.987068
0.986218
0.985458
0.984774
0.984155
0.983593
0.98308
0.982611
0.98218
0.981784
0.981419
0.981081
0.980767
0.980476
0.980205
0.979951
0.979714
0.979491
0.979282
0.979084
0.978897
0.978719
0.97855
0.978389
0.978235
0.978087
0.977944
0.977806
0.977672
0.977543
0.977416
0.977292
0.97717
0.97705
0.976931
0.976814
0.976697
0.97658
0.976464
0.976348
0.976231
0.976114
0.975996
0.975878
0.975759
0.97564
0.97552
0.975399
0.975278
0.975156
0.975034
0.974912
0.97479
0.974669
0.974547
0.974427
0.974307
0.974189
0.974072
0.973957
0.973843
0.973731
0.973622
0.973515
0.973411
0.97331
0.973212
0.973117
0.973026
0.972938
0.972854
0.972775
0.9727
0.972629
0.972564
0.972503
0.972448
0.972399
0.972355
0.972317
0.972286
0.972261
0.972242
0.97223
0.972225
0.972227
0.972235
0.972251
0.972273
0.972302
0.972338
0.97238
0.972428
0.972482
0.972541
0.972606
0.972675
0.972749
0.972826
0.972908
0.972992
0.973079
0.973169
0.97326
0.973353
0.973446
0.97354
0.973635
0.973729
0.973823
0.973915
0.974007
0.974097
0.974185
0.97427
0.974354
0.974434
0.974512
0.974586
0.974657
0.974725
0.974789
0.974849
0.974905
0.974957
0.975005
0.975049
0.975088
0.975124
0.975156
0.975185
0.97521
0.975231
0.975249
0.975264
0.975276
0.975286
0.975293
0.975298
0.975302
0.975304
0.975305
0.975304
0.975303
0.975301
0.975299
0.975296
0.975294
0.975291
0.975288
0.975285
0.975282
0.975279
0.975275
0.975272
0.975269
0.975265
0.975261
0.975256
0.97525
0.975244
0.975237
0.975229
0.97522
0.97521
0.975198
0.975186
0.975172
0.975157
0.97514
0.975123
0.975104
0.975085
0.975064
0.975043
0.975021
0.974998
0.974975
0.974952
0.974929
0.974906
0.974882
0.97486
0.974837
0.974815
0.974792
0.974771
0.97475
0.974729
0.974708
0.974688
0.974667
0.974647
0.974626
0.974606
0.974584
0.974562
0.974538
0.974514
0.974488
0.974462
0.974433
0.974404
0.974372
0.974339
0.974303
0.974267
0.974228
0.974188
0.974145
0.974101
0.974056
0.974009
0.973961
0.973913
0.973863
0.973813
0.973762
0.973713
0.973662
0.973613
0.973563
0.973515
0.973468
0.973423
0.973378
0.973337
0.973296
0.973259
0.973223
0.97319
0.973159
0.973132
0.973106
0.973085
0.973065
0.97305
0.973037
0.973028
0.973021
0.973018
0.973018
0.973022
0.973028
0.973038
0.973051
0.973068
0.973088
0.973112
0.973139
0.97317
0.973203
0.973241
0.973281
0.973326
0.973373
0.973424
0.973478
0.973535
0.973595
0.973659
0.973725
0.973794
0.973865
0.973939
0.974013
0.974091
0.974168
0.974248
0.974327
0.974407
0.974485
0.974564
0.97464
0.974715
0.974787
0.974857
0.974922
0.974984
0.97504
0.975092
0.975137
0.975177
0.975209
0.975234
0.975252
0.975262
0.975263
0.975256
0.97524
0.975215
0.975181
0.975138
0.975086
0.975025
0.974956
0.974878
0.974791
0.974697
0.974595
0.974486
0.974369
0.974247
0.974119
0.973986
0.973847
0.973705
0.973559
0.973411
0.973259
0.973105
0.97295
0.972794
0.972638
0.972482
0.972325
0.97217
0.972016
0.971864
0.971713
0.971565
0.971418
0.971275
0.971134
0.970997
0.970863
0.970732
0.970604
0.97048
0.97036
0.970243
0.97013
0.970021
0.969916
0.969815
0.969717
0.969623
0.969532
0.969446
0.969362
0.969283
0.969207
0.969134
0.969064
0.968998
0.968934
0.968873
0.968814
0.968758
0.968704
0.968652
0.968601
0.968552
0.968503
0.968455
0.968407
0.968359
0.96831
0.96826
0.968208
0.968154
0.968098
0.968038
0.967973
0.967904
0.967829
0.967748
0.967658
0.967558
0.967448
0.967324
0.967183
0.967024
0.966841
0.966629
0.966381
0.966088
0.965737
0.965309
0.964779
0.964113
0.963271
0.962183
0.960685
0.958607
0.956366
0.954348
0.952636
0.955315
0
0
1.00238
1.00239
1.00073
0.998719
0.99674
0.994784
0.993041
0.991511
0.990165
0.98898
0.987932
0.986999
0.986166
0.985416
0.984739
0.984124
0.983565
0.983055
0.982587
0.982158
0.981763
0.981398
0.981061
0.980749
0.980458
0.980188
0.979935
0.979699
0.979477
0.979268
0.979071
0.978885
0.978708
0.97854
0.97838
0.978226
0.978079
0.977936
0.977799
0.977666
0.977537
0.977411
0.977288
0.977167
0.977048
0.97693
0.976813
0.976697
0.976582
0.976466
0.976351
0.976236
0.97612
0.976004
0.975887
0.97577
0.975652
0.975533
0.975414
0.975294
0.975174
0.975054
0.974934
0.974813
0.974693
0.974574
0.974455
0.974336
0.974219
0.974104
0.973989
0.973877
0.973766
0.973657
0.973551
0.973448
0.973347
0.973249
0.973154
0.973062
0.972974
0.97289
0.97281
0.972734
0.972662
0.972596
0.972534
0.972477
0.972426
0.972381
0.972341
0.972308
0.972281
0.972261
0.972247
0.97224
0.97224
0.972247
0.972261
0.972282
0.972309
0.972343
0.972384
0.97243
0.972483
0.972541
0.972605
0.972673
0.972746
0.972823
0.972904
0.972988
0.973074
0.973163
0.973253
0.973345
0.973438
0.973532
0.973625
0.973719
0.973812
0.973904
0.973994
0.974083
0.97417
0.974255
0.974338
0.974417
0.974494
0.974568
0.974638
0.974705
0.974768
0.974827
0.974882
0.974934
0.974981
0.975024
0.975064
0.975099
0.975131
0.975159
0.975184
0.975205
0.975223
0.975238
0.97525
0.97526
0.975267
0.975273
0.975276
0.975278
0.975279
0.975279
0.975278
0.975276
0.975274
0.975271
0.975268
0.975265
0.975262
0.975259
0.975256
0.975253
0.975249
0.975246
0.975242
0.975238
0.975234
0.975229
0.975223
0.975217
0.97521
0.975202
0.975193
0.975183
0.975171
0.975159
0.975145
0.975131
0.975114
0.975097
0.975079
0.97506
0.97504
0.975019
0.974998
0.974976
0.974954
0.974932
0.974909
0.974886
0.974864
0.974842
0.974819
0.974798
0.974776
0.974756
0.974735
0.974715
0.974695
0.974675
0.974655
0.974635
0.974615
0.974595
0.974573
0.974552
0.974529
0.974506
0.97448
0.974455
0.974427
0.974398
0.974367
0.974335
0.9743
0.974264
0.974226
0.974187
0.974145
0.974103
0.974058
0.974013
0.973966
0.973919
0.97387
0.973821
0.973772
0.973723
0.973674
0.973626
0.973578
0.973531
0.973485
0.973441
0.973398
0.973357
0.973318
0.973281
0.973246
0.973214
0.973184
0.973157
0.973132
0.973111
0.973092
0.973077
0.973064
0.973055
0.973048
0.973045
0.973044
0.973048
0.973054
0.973064
0.973076
0.973093
0.973111
0.973135
0.97316
0.97319
0.973222
0.973259
0.973298
0.973341
0.973387
0.973437
0.973489
0.973546
0.973604
0.973666
0.97373
0.973798
0.973867
0.973939
0.974012
0.974087
0.974163
0.974241
0.974318
0.974396
0.974473
0.974549
0.974624
0.974697
0.974767
0.974835
0.974899
0.974959
0.975013
0.975064
0.975107
0.975146
0.975176
0.975201
0.975217
0.975226
0.975226
0.975218
0.975201
0.975176
0.975141
0.975098
0.975046
0.974985
0.974915
0.974837
0.97475
0.974656
0.974554
0.974446
0.97433
0.974208
0.97408
0.973948
0.97381
0.973669
0.973523
0.973375
0.973224
0.973071
0.972917
0.972762
0.972606
0.97245
0.972294
0.97214
0.971986
0.971834
0.971684
0.971536
0.97139
0.971247
0.971106
0.970969
0.970834
0.970703
0.970575
0.970451
0.97033
0.970213
0.970099
0.96999
0.969883
0.969781
0.969682
0.969587
0.969495
0.969407
0.969322
0.969241
0.969163
0.969089
0.969017
0.968949
0.968883
0.96882
0.968759
0.9687
0.968644
0.968589
0.968535
0.968483
0.968431
0.96838
0.968328
0.968277
0.968224
0.96817
0.968114
0.968056
0.967994
0.967929
0.967859
0.967784
0.967703
0.967614
0.967516
0.967409
0.967289
0.967155
0.967003
0.966832
0.966636
0.96641
0.966148
0.965841
0.965478
0.965043
0.964519
0.963879
0.963087
0.962116
0.960962
0.959581
0.958092
0.957295
0.957027
0.957715
0
0
0.99878
0.998921
0.998011
0.996826
0.995336
0.993815
0.992371
0.99103
0.989812
0.988715
0.987727
0.986836
0.986032
0.985304
0.984643
0.984041
0.983491
0.982988
0.982527
0.982103
0.981712
0.981351
0.981018
0.980708
0.980421
0.980153
0.979903
0.979668
0.979449
0.979242
0.979047
0.978863
0.978688
0.978521
0.978362
0.97821
0.978064
0.977923
0.977788
0.977656
0.977528
0.977403
0.977281
0.977161
0.977043
0.976926
0.97681
0.976696
0.976582
0.976468
0.976354
0.97624
0.976126
0.976011
0.975896
0.97578
0.975664
0.975547
0.97543
0.975312
0.975194
0.975075
0.974957
0.974838
0.97472
0.974602
0.974485
0.974368
0.974253
0.974138
0.974025
0.973914
0.973804
0.973696
0.973591
0.973487
0.973387
0.973289
0.973194
0.973102
0.973014
0.972929
0.972848
0.972771
0.972698
0.97263
0.972567
0.972508
0.972455
0.972408
0.972367
0.972332
0.972303
0.97228
0.972265
0.972256
0.972254
0.972259
0.972271
0.97229
0.972316
0.972349
0.972388
0.972434
0.972485
0.972543
0.972605
0.972673
0.972745
0.972821
0.972901
0.972984
0.97307
0.973158
0.973248
0.973339
0.973431
0.973524
0.973617
0.973709
0.973801
0.973892
0.973982
0.97407
0.974156
0.97424
0.974321
0.974399
0.974475
0.974548
0.974617
0.974682
0.974744
0.974803
0.974857
0.974907
0.974954
0.974997
0.975036
0.975071
0.975102
0.97513
0.975154
0.975175
0.975192
0.975207
0.975219
0.975229
0.975236
0.975242
0.975245
0.975247
0.975248
0.975248
0.975247
0.975245
0.975243
0.97524
0.975237
0.975234
0.975231
0.975228
0.975225
0.975221
0.975218
0.975214
0.97521
0.975206
0.975202
0.975197
0.975191
0.975185
0.975177
0.975169
0.97516
0.97515
0.975139
0.975127
0.975113
0.975099
0.975083
0.975067
0.975049
0.97503
0.975011
0.974991
0.97497
0.974949
0.974927
0.974906
0.974884
0.974862
0.97484
0.974819
0.974798
0.974777
0.974756
0.974737
0.974716
0.974697
0.974678
0.974659
0.974639
0.974621
0.974601
0.974581
0.974561
0.97454
0.974518
0.974495
0.974471
0.974446
0.974419
0.974391
0.974361
0.974329
0.974296
0.974261
0.974224
0.974186
0.974145
0.974104
0.974061
0.974017
0.973971
0.973926
0.973878
0.973831
0.973783
0.973736
0.973688
0.973642
0.973595
0.97355
0.973505
0.973462
0.97342
0.973381
0.973343
0.973307
0.973273
0.973242
0.973213
0.973187
0.973163
0.973142
0.973123
0.973108
0.973095
0.973086
0.973079
0.973076
0.973076
0.973079
0.973084
0.973093
0.973105
0.973121
0.973139
0.973161
0.973185
0.973214
0.973245
0.97328
0.973318
0.97336
0.973404
0.973452
0.973503
0.973557
0.973614
0.973674
0.973737
0.973802
0.973869
0.973939
0.97401
0.974084
0.974158
0.974233
0.974308
0.974384
0.974459
0.974533
0.974606
0.974677
0.974745
0.974811
0.974872
0.974931
0.974984
0.975032
0.975074
0.975111
0.97514
0.975163
0.975178
0.975186
0.975185
0.975176
0.975158
0.975132
0.975097
0.975053
0.975
0.974939
0.974869
0.974791
0.974705
0.974611
0.974509
0.974401
0.974285
0.974164
0.974037
0.973905
0.973768
0.973627
0.973483
0.973335
0.973185
0.973033
0.97288
0.972725
0.97257
0.972415
0.97226
0.972106
0.971953
0.971802
0.971652
0.971504
0.971359
0.971216
0.971075
0.970938
0.970803
0.970672
0.970544
0.97042
0.970298
0.970181
0.970066
0.969956
0.969848
0.969745
0.969645
0.969549
0.969455
0.969366
0.96928
0.969197
0.969118
0.969041
0.968968
0.968897
0.968829
0.968764
0.968701
0.96864
0.968581
0.968523
0.968467
0.968412
0.968357
0.968303
0.968248
0.968194
0.968137
0.96808
0.96802
0.967958
0.967893
0.967823
0.967749
0.967669
0.967582
0.967488
0.967385
0.967271
0.967145
0.967004
0.966846
0.966668
0.966466
0.966235
0.96597
0.965664
0.965307
0.964888
0.964397
0.963819
0.963141
0.962349
0.961465
0.960588
0.959772
0.95927
0.959398
0.959907
0
0
0.99614
0.996188
0.99576
0.994969
0.9939
0.992743
0.99156
0.990415
0.989339
0.988343
0.987429
0.986593
0.985829
0.985132
0.984494
0.98391
0.983376
0.982885
0.982433
0.982018
0.981634
0.98128
0.980952
0.980648
0.980365
0.980101
0.979855
0.979625
0.979409
0.979205
0.979013
0.978831
0.978659
0.978494
0.978338
0.978188
0.978044
0.977905
0.977771
0.977641
0.977514
0.977391
0.97727
0.977152
0.977035
0.97692
0.976806
0.976692
0.97658
0.976467
0.976355
0.976243
0.976131
0.976018
0.975904
0.97579
0.975676
0.975561
0.975446
0.97533
0.975214
0.975098
0.974982
0.974865
0.974749
0.974633
0.974518
0.974403
0.974289
0.974176
0.974064
0.973954
0.973845
0.973739
0.973634
0.973531
0.973431
0.973333
0.973238
0.973145
0.973056
0.97297
0.972888
0.97281
0.972736
0.972666
0.972601
0.972541
0.972486
0.972437
0.972394
0.972356
0.972325
0.9723
0.972283
0.972272
0.972268
0.972271
0.972281
0.972299
0.972323
0.972355
0.972393
0.972437
0.972488
0.972544
0.972606
0.972673
0.972744
0.97282
0.972899
0.972982
0.973067
0.973154
0.973243
0.973334
0.973425
0.973517
0.973609
0.973701
0.973792
0.973881
0.97397
0.974056
0.974141
0.974224
0.974304
0.974381
0.974455
0.974526
0.974594
0.974658
0.974719
0.974776
0.974829
0.974879
0.974924
0.974966
0.975004
0.975038
0.975069
0.975096
0.975119
0.97514
0.975157
0.975171
0.975183
0.975193
0.9752
0.975205
0.975209
0.975211
0.975212
0.975212
0.97521
0.975209
0.975206
0.975204
0.975201
0.975198
0.975195
0.975191
0.975188
0.975184
0.975181
0.975177
0.975173
0.975169
0.975164
0.975159
0.975153
0.975147
0.975139
0.975131
0.975122
0.975112
0.975101
0.975089
0.975076
0.975062
0.975046
0.97503
0.975013
0.974995
0.974976
0.974957
0.974937
0.974917
0.974896
0.974876
0.974854
0.974834
0.974813
0.974793
0.974772
0.974753
0.974733
0.974714
0.974695
0.974676
0.974658
0.97464
0.974621
0.974603
0.974584
0.974566
0.974546
0.974526
0.974505
0.974483
0.97446
0.974436
0.97441
0.974383
0.974354
0.974324
0.974291
0.974258
0.974222
0.974185
0.974146
0.974106
0.974064
0.974022
0.973978
0.973934
0.973888
0.973843
0.973797
0.973751
0.973705
0.97366
0.973615
0.973571
0.973528
0.973487
0.973446
0.973408
0.973371
0.973337
0.973304
0.973274
0.973246
0.973221
0.973197
0.973177
0.973159
0.973144
0.973131
0.973122
0.973115
0.973112
0.973111
0.973114
0.973118
0.973127
0.973138
0.973153
0.97317
0.973191
0.973214
0.973241
0.973271
0.973305
0.973341
0.973381
0.973423
0.97347
0.973518
0.973571
0.973625
0.973684
0.973744
0.973807
0.973872
0.97394
0.974009
0.97408
0.974151
0.974224
0.974297
0.974371
0.974443
0.974515
0.974585
0.974654
0.97472
0.974784
0.974843
0.974899
0.97495
0.974997
0.975037
0.975072
0.975099
0.975121
0.975134
0.975141
0.975139
0.975129
0.97511
0.975083
0.975047
0.975003
0.97495
0.974888
0.974818
0.97474
0.974654
0.97456
0.974459
0.974351
0.974236
0.974116
0.973989
0.973858
0.973722
0.973582
0.973438
0.973292
0.973143
0.972992
0.972839
0.972686
0.972532
0.972378
0.972223
0.97207
0.971918
0.971767
0.971618
0.971471
0.971326
0.971183
0.971043
0.970906
0.970771
0.97064
0.970511
0.970387
0.970265
0.970147
0.970031
0.96992
0.969812
0.969707
0.969606
0.969509
0.969414
0.969323
0.969236
0.969151
0.96907
0.968992
0.968916
0.968844
0.968774
0.968706
0.968641
0.968578
0.968516
0.968456
0.968398
0.96834
0.968283
0.968226
0.968168
0.968111
0.968052
0.967991
0.967928
0.967863
0.967794
0.967721
0.967643
0.96756
0.96747
0.967372
0.967265
0.967147
0.967017
0.966874
0.966713
0.966534
0.966331
0.966103
0.965844
0.965549
0.965211
0.964826
0.964385
0.963884
0.963324
0.962715
0.962078
0.961485
0.961039
0.960786
0.960939
0.961485
0
0
0.993959
0.994047
0.993832
0.993288
0.992533
0.991642
0.990685
0.989722
0.988786
0.987895
0.987061
0.986286
0.98557
0.984909
0.9843
0.98374
0.983224
0.982749
0.982311
0.981907
0.981533
0.981188
0.980868
0.98057
0.980294
0.980036
0.979795
0.979569
0.979357
0.979158
0.97897
0.978791
0.978622
0.978461
0.978307
0.97816
0.978018
0.977882
0.97775
0.977622
0.977497
0.977376
0.977257
0.97714
0.977025
0.976912
0.976799
0.976688
0.976577
0.976466
0.976356
0.976245
0.976135
0.976024
0.975913
0.975801
0.975689
0.975576
0.975464
0.97535
0.975236
0.975122
0.975008
0.974894
0.97478
0.974666
0.974552
0.974439
0.974327
0.974216
0.974106
0.973997
0.97389
0.973784
0.97368
0.973577
0.973477
0.973379
0.973284
0.973191
0.973102
0.973015
0.972932
0.972852
0.972777
0.972705
0.972638
0.972576
0.972519
0.972468
0.972422
0.972382
0.972348
0.972321
0.972301
0.972288
0.972282
0.972284
0.972292
0.972308
0.972331
0.972361
0.972398
0.972441
0.972491
0.972546
0.972607
0.972674
0.972744
0.972819
0.972898
0.97298
0.973065
0.973151
0.97324
0.97333
0.97342
0.973511
0.973602
0.973693
0.973782
0.973871
0.973958
0.974043
0.974126
0.974207
0.974286
0.974361
0.974434
0.974503
0.97457
0.974632
0.974692
0.974747
0.974799
0.974847
0.974891
0.974932
0.974969
0.975002
0.975032
0.975058
0.975081
0.9751
0.975117
0.975131
0.975143
0.975152
0.975159
0.975164
0.975168
0.97517
0.97517
0.97517
0.975169
0.975167
0.975165
0.975162
0.975159
0.975156
0.975153
0.975149
0.975146
0.975142
0.975138
0.975135
0.97513
0.975126
0.975121
0.975116
0.97511
0.975103
0.975096
0.975088
0.975079
0.975069
0.975058
0.975046
0.975033
0.97502
0.975005
0.974989
0.974973
0.974955
0.974937
0.974919
0.9749
0.97488
0.97486
0.974841
0.974821
0.974801
0.974781
0.974762
0.974743
0.974724
0.974705
0.974687
0.974669
0.974652
0.974634
0.974618
0.9746
0.974583
0.974565
0.974548
0.974529
0.97451
0.97449
0.974469
0.974447
0.974424
0.974399
0.974374
0.974346
0.974317
0.974286
0.974254
0.974219
0.974184
0.974147
0.974109
0.974068
0.974028
0.973986
0.973943
0.973899
0.973856
0.973812
0.973768
0.973723
0.97368
0.973637
0.973595
0.973554
0.973514
0.973475
0.973439
0.973403
0.97337
0.973338
0.97331
0.973282
0.973258
0.973235
0.973216
0.973198
0.973184
0.973171
0.973162
0.973155
0.973151
0.97315
0.973152
0.973156
0.973164
0.973174
0.973188
0.973203
0.973223
0.973245
0.973271
0.973299
0.973331
0.973365
0.973404
0.973444
0.973488
0.973535
0.973585
0.973638
0.973694
0.973752
0.973813
0.973875
0.97394
0.974007
0.974075
0.974144
0.974215
0.974285
0.974356
0.974426
0.974495
0.974563
0.974629
0.974693
0.974754
0.974811
0.974865
0.974913
0.974958
0.974996
0.975029
0.975055
0.975074
0.975086
0.975091
0.975088
0.975077
0.975057
0.975029
0.974993
0.974948
0.974894
0.974833
0.974762
0.974684
0.974598
0.974505
0.974404
0.974296
0.974182
0.974063
0.973937
0.973807
0.973672
0.973533
0.97339
0.973245
0.973097
0.972947
0.972795
0.972643
0.97249
0.972337
0.972184
0.972032
0.97188
0.97173
0.971582
0.971435
0.971291
0.971148
0.971008
0.970871
0.970737
0.970606
0.970477
0.970352
0.97023
0.970111
0.969995
0.969883
0.969774
0.969668
0.969566
0.969467
0.969371
0.969279
0.96919
0.969104
0.969021
0.968941
0.968863
0.968789
0.968717
0.968647
0.96858
0.968515
0.968451
0.968389
0.968328
0.968268
0.968208
0.968148
0.968089
0.968028
0.967967
0.967904
0.967839
0.967771
0.967699
0.967624
0.967544
0.967458
0.967365
0.967265
0.967156
0.967037
0.966907
0.966763
0.966603
0.966426
0.966229
0.966009
0.965762
0.965486
0.965177
0.964831
0.964447
0.964027
0.963576
0.963111
0.962661
0.962265
0.961999
0.961916
0.962072
0.962538
0
0
0.992149
0.992291
0.992175
0.99181
0.991262
0.990572
0.989802
0.988995
0.988186
0.987398
0.986645
0.985933
0.985267
0.984647
0.984071
0.983537
0.983044
0.982587
0.982165
0.981774
0.981413
0.981078
0.980767
0.980478
0.980209
0.979958
0.979724
0.979504
0.979297
0.979102
0.978919
0.978745
0.97858
0.978422
0.978271
0.978127
0.977988
0.977854
0.977725
0.977599
0.977477
0.977358
0.977241
0.977126
0.977013
0.976902
0.976791
0.976682
0.976573
0.976464
0.976356
0.976247
0.976139
0.97603
0.975922
0.975812
0.975702
0.975592
0.975482
0.97537