# vtk DataFile Version 2.0
LBE mesh
ASCII
DATASET STRUCTURED_POINTS
DIMENSIONS 402 102 1
ASPECT_RATIO 1 1 1
ORIGIN 0 0 0
POINT_DATA 41004
SCALARS rho double 1
LOOKUP_TABLE default
0
0
0
0
0
0
0
0
0
0
0
0
0
0
0
0
0
0
0
0
0
0
0
0
0
0
0
0
0
0
0
0
0
0
0
0
0
0
0
0
0
0
0
0
0
0
0
0
0
0
0
0
0
0
0
0
0
0
0
0
0
0
0
0
0
0
0
0
0
0
0
0
0
0
0
0
0
0
0
0
0
0
0
0
0
0
0
0
0
0
0
0
0
0
0
0
0
0
0
0
0
0
0
0
0
0
0
0
0
0
0
0
0
0
0
0
0
0
0
0
0
0
0
0
0
0
0
0
0
0
0
0
0
0
0
0
0
0
0
0
0
0
0
0
0
0
0
0
0
0
0
0
0
0
0
0
0
0
0
0
0
0
0
0
0
0
0
0
0
0
0
0
0
0
0
0
0
0
0
0
0
0
0
0
0
0
0
0
0
0
0
0
0
0
0
0
0
0
0
0
0
0
0
0
0
0
0
0
0
0
0
0
0
0
0
0
0
0
0
0
0
0
0
0
0
0
0
0
0
0
0
0
0
0
0
0
0
0
0
0
0
0
0
0
0
0
0
0
0
0
0
0
0
0
0
0
0
0
0
0
0
0
0
0
0
0
0
0
0
0
0
0
0
0
0
0
0
0
0
0
0
0
0
0
0
0
0
0
0
0
0
0
0
0
0
0
0
0
0
0
0
0
0
0
0
0
0
0
0
0
0
0
0
0
0
0
0
0
0
0
0
0
0
0
0
0
0
0
0
0
0
0
0
0
0
0
0
0
0
0
0
0
0
0
0
0
0
0
0
0
0
0
0
0
0
0
0
0
0
0
0
0
0
0
0
0
0
0
0
0
0
0
0
0
0
0
0
0
0
0
0
0
0
0
0
0
0
0
0
0
0
0
0
0
0
0
0
0
0
0
0
0
0
0.907603
0.973165
0.960736
0.953012
0.94944
0.947119
0.94522
0.943659
0.942366
0.941266
0.940307
0.939459
0.938699
0.938013
0.937387
0.936813
0.936284
0.935794
0.935338
0.934913
0.934515
0.934142
0.933792
0.933463
0.933153
0.932861
0.932585
0.932324
0.932078
0.931845
0.931625
0.931416
0.931219
0.931032
0.930854
0.930686
0.930526
0.930375
0.930231
0.930094
0.929964
0.92984
0.929722
0.92961
0.929503
0.9294
0.929302
0.929207
0.929117
0.92903
0.928945
0.928864
0.928786
0.928709
0.928635
0.928562
0.928491
0.928422
0.928353
0.928286
0.92822
0.928154
0.928088
0.928023
0.927959
0.927894
0.92783
0.927766
0.927701
0.927637
0.927572
0.927508
0.927443
0.927379
0.927315
0.92725
0.927186
0.927123
0.92706
0.926998
0.926937
0.926877
0.926818
0.926761
0.926706
0.926653
0.926602
0.926554
0.926509
0.926466
0.926427
0.926392
0.926359
0.926331
0.926306
0.926286
0.926269
0.926256
0.926247
0.926241
0.92624
0.926241
0.926246
0.926254
0.926265
0.926278
0.926293
0.926311
0.92633
0.92635
0.926371
0.926394
0.926416
0.92644
0.926463
0.926485
0.926508
0.92653
0.926551
0.926571
0.92659
0.926608
0.926625
0.92664
0.926654
0.926667
0.926679
0.926689
0.926697
0.926704
0.92671
0.926715
0.926718
0.92672
0.92672
0.92672
0.926718
0.926715
0.92671
0.926705
0.926699
0.926692
0.926684
0.926674
0.926664
0.926654
0.926642
0.92663
0.926617
0.926603
0.926589
0.926574
0.926558
0.926542
0.926525
0.926508
0.92649
0.926472
0.926453
0.926434
0.926414
0.926394
0.926374
0.926353
0.926332
0.926311
0.926289
0.926267
0.926244
0.926222
0.926199
0.926175
0.926151
0.926127
0.926103
0.926078
0.926053
0.926028
0.926003
0.925977
0.925951
0.925924
0.925897
0.92587
0.925843
0.925815
0.925787
0.925759
0.925731
0.925702
0.925673
0.925643
0.925614
0.925584
0.925554
0.925524
0.925494
0.925463
0.925432
0.925401
0.925371
0.92534
0.925308
0.925277
0.925246
0.925215
0.925184
0.925153
0.925122
0.925091
0.925061
0.925031
0.925001
0.924971
0.924941
0.924912
0.924884
0.924855
0.924828
0.9248
0.924774
0.924747
0.924722
0.924697
0.924673
0.924649
0.924626
0.924604
0.924583
0.924563
0.924543
0.924525
0.924507
0.92449
0.924474
0.924459
0.924445
0.924432
0.92442
0.924409
0.924399
0.92439
0.924382
0.924375
0.924369
0.924364
0.92436
0.924357
0.924355
0.924354
0.924354
0.924356
0.924358
0.924361
0.924365
0.92437
0.924376
0.924383
0.924391
0.9244
0.924409
0.92442
0.924431
0.924443
0.924456
0.92447
0.924484
0.924499
0.924515
0.924532
0.924549
0.924567
0.924585
0.924605
0.924624
0.924645
0.924666
0.924687
0.924709
0.924731
0.924754
0.924778
0.924802
0.924826
0.924851
0.924876
0.924902
0.924928
0.924955
0.924982
0.925009
0.925037
0.925065
0.925094
0.925123
0.925153
0.925182
0.925213
0.925244
0.925275
0.925306
0.925338
0.925371
0.925404
0.925437
0.925471
0.925505
0.92554
0.925576
0.925611
0.925648
0.925685
0.925722
0.925761
0.925799
0.925839
0.925879
0.92592
0.925961
0.926003
0.926046
0.92609
0.926134
0.92618
0.926226
0.926273
0.926321
0.92637
0.92642
0.926471
0.926523
0.926576
0.92663
0.926685
0.926741
0.926798
0.926857
0.926916
0.926977
0.927039
0.927101
0.927165
0.92723
0.927296
0.927362
0.927429
0.927498
0.927566
0.927635
0.927705
0.927774
0.927844
0.927913
0.927982
0.92805
0.928117
0.928183
0.928248
0.928311
0.928371
0.928429
0.928484
0.928536
0.928584
0.928628
0.928668
0.928703
0.928732
0.928755
0.928773
0.928783
0.928787
0.928783
0.928771
0.928751
0.928722
0.928684
0.928636
0.928579
0.928511
0.928432
0.928343
0.928241
0.928126
0.927996
0.927851
0.927687
0.9275
0.927285
0.927034
0.926735
0.92637
0.925889
0.925171
0.9241
0.922935
0.922231
0.918368
0.885658
0.789293
0
0
0.974046
0.966781
0.959011
0.954593
0.9508
0.947971
0.945862
0.944192
0.942806
0.941628
0.940609
0.939715
0.93892
0.938205
0.937556
0.936963
0.936418
0.935915
0.935448
0.935013
0.934607
0.934227
0.933871
0.933536
0.933221
0.932924
0.932644
0.932379
0.93213
0.931894
0.93167
0.931459
0.931258
0.931069
0.930889
0.930719
0.930557
0.930404
0.930258
0.93012
0.929988
0.929863
0.929743
0.92963
0.929521
0.929417
0.929318
0.929222
0.929131
0.929043
0.928958
0.928876
0.928797
0.92872
0.928645
0.928572
0.9285
0.92843
0.928362
0.928294
0.928227
0.928161
0.928096
0.928031
0.927966
0.927902
0.927838
0.927773
0.927709
0.927645
0.927581
0.927516
0.927452
0.927388
0.927324
0.92726
0.927196
0.927133
0.927071
0.927009
0.926948
0.926888
0.926829
0.926772
0.926717
0.926664
0.926613
0.926565
0.926519
0.926477
0.926437
0.926401
0.926368
0.926339
0.926314
0.926293
0.926275
0.926261
0.926251
0.926245
0.926242
0.926243
0.926247
0.926254
0.926264
0.926276
0.926291
0.926308
0.926326
0.926346
0.926367
0.926389
0.926411
0.926434
0.926456
0.926479
0.926501
0.926523
0.926544
0.926564
0.926583
0.926601
0.926618
0.926634
0.926648
0.926661
0.926673
0.926683
0.926692
0.926699
0.926705
0.92671
0.926713
0.926715
0.926715
0.926715
0.926713
0.92671
0.926706
0.926701
0.926695
0.926688
0.926679
0.92667
0.92666
0.92665
0.926638
0.926626
0.926613
0.926599
0.926585
0.92657
0.926554
0.926538
0.926521
0.926504
0.926486
0.926468
0.926449
0.92643
0.92641
0.92639
0.92637
0.926349
0.926328
0.926307
0.926285
0.926263
0.92624
0.926217
0.926194
0.926171
0.926147
0.926123
0.926099
0.926074
0.926049
0.926024
0.925998
0.925972
0.925946
0.92592
0.925893
0.925866
0.925839
0.925811
0.925783
0.925755
0.925727
0.925698
0.925669
0.92564
0.92561
0.925581
0.925551
0.925521
0.925491
0.92546
0.92543
0.925399
0.925368
0.925337
0.925306
0.925275
0.925244
0.925213
0.925182
0.925151
0.925121
0.92509
0.92506
0.925029
0.925
0.92497
0.924941
0.924912
0.924883
0.924855
0.924827
0.9248
0.924773
0.924747
0.924722
0.924697
0.924673
0.924649
0.924627
0.924605
0.924583
0.924563
0.924543
0.924525
0.924507
0.92449
0.924474
0.924459
0.924445
0.924432
0.92442
0.924409
0.924399
0.924389
0.924381
0.924374
0.924368
0.924363
0.924359
0.924356
0.924354
0.924353
0.924354
0.924355
0.924357
0.92436
0.924364
0.924369
0.924375
0.924381
0.924389
0.924398
0.924407
0.924417
0.924429
0.924441
0.924453
0.924467
0.924481
0.924496
0.924512
0.924528
0.924546
0.924563
0.924582
0.924601
0.92462
0.92464
0.924661
0.924683
0.924704
0.924727
0.92475
0.924773
0.924797
0.924821
0.924846
0.924871
0.924896
0.924922
0.924949
0.924976
0.925003
0.925031
0.925059
0.925087
0.925116
0.925146
0.925176
0.925206
0.925236
0.925267
0.925299
0.925331
0.925363
0.925396
0.925429
0.925462
0.925497
0.925531
0.925566
0.925602
0.925638
0.925675
0.925712
0.92575
0.925789
0.925828
0.925868
0.925908
0.925949
0.925991
0.926034
0.926077
0.926121
0.926166
0.926211
0.926258
0.926305
0.926354
0.926403
0.926453
0.926505
0.926557
0.92661
0.926664
0.92672
0.926776
0.926833
0.926892
0.926951
0.927012
0.927074
0.927136
0.927199
0.927264
0.927329
0.927394
0.927461
0.927528
0.927595
0.927662
0.92773
0.927798
0.927865
0.927931
0.927997
0.928062
0.928126
0.928188
0.928248
0.928306
0.928361
0.928414
0.928463
0.928508
0.928549
0.928585
0.928616
0.928642
0.928662
0.928675
0.928681
0.92868
0.928671
0.928654
0.928628
0.928592
0.928547
0.928491
0.928424
0.928345
0.928254
0.928149
0.928029
0.927893
0.927737
0.92756
0.927357
0.92712
0.926844
0.926512
0.926102
0.925576
0.924889
0.923997
0.922763
0.920514
0.915489
0.90718
0.899341
0.887833
0
0
0.970387
0.961392
0.958174
0.954295
0.950787
0.948181
0.946129
0.944442
0.943029
0.941827
0.940786
0.939872
0.939059
0.938329
0.937667
0.937063
0.936509
0.935998
0.935524
0.935083
0.934672
0.934287
0.933926
0.933588
0.933269
0.932969
0.932686
0.932419
0.932166
0.931928
0.931702
0.931489
0.931286
0.931095
0.930914
0.930742
0.930578
0.930424
0.930277
0.930137
0.930004
0.929878
0.929757
0.929643
0.929533
0.929429
0.929328
0.929232
0.92914
0.929052
0.928966
0.928884
0.928804
0.928727
0.928652
0.928578
0.928507
0.928437
0.928368
0.9283
0.928234
0.928168
0.928102
0.928037
0.927973
0.927909
0.927844
0.92778
0.927716
0.927653
0.927589
0.927525
0.927461
0.927397
0.927333
0.927269
0.927206
0.927143
0.92708
0.927018
0.926957
0.926898
0.926839
0.926782
0.926727
0.926673
0.926622
0.926573
0.926527
0.926484
0.926444
0.926407
0.926374
0.926344
0.926318
0.926296
0.926277
0.926263
0.926252
0.926245
0.926241
0.926241
0.926245
0.926251
0.92626
0.926272
0.926286
0.926303
0.926321
0.92634
0.926361
0.926383
0.926405
0.926427
0.92645
0.926473
0.926495
0.926517
0.926538
0.926558
0.926577
0.926595
0.926612
0.926628
0.926643
0.926656
0.926667
0.926678
0.926686
0.926694
0.9267
0.926705
0.926708
0.92671
0.926711
0.92671
0.926709
0.926706
0.926702
0.926697
0.92669
0.926683
0.926675
0.926666
0.926656
0.926645
0.926634
0.926621
0.926608
0.926594
0.92658
0.926565
0.926549
0.926533
0.926516
0.926499
0.926481
0.926463
0.926444
0.926425
0.926405
0.926385
0.926364
0.926344
0.926322
0.926301
0.926279
0.926257
0.926234
0.926211
0.926188
0.926165
0.926141
0.926117
0.926092
0.926068
0.926043
0.926017
0.925992
0.925966
0.92594
0.925913
0.925887
0.92586
0.925832
0.925805
0.925777
0.925749
0.925721
0.925692
0.925663
0.925634
0.925605
0.925575
0.925545
0.925515
0.925485
0.925455
0.925424
0.925394
0.925363
0.925332
0.925302
0.925271
0.92524
0.925209
0.925178
0.925148
0.925117
0.925087
0.925056
0.925026
0.924997
0.924967
0.924938
0.924909
0.924881
0.924852
0.924825
0.924798
0.924771
0.924745
0.92472
0.924695
0.924671
0.924648
0.924625
0.924603
0.924582
0.924562
0.924542
0.924523
0.924506
0.924489
0.924473
0.924458
0.924444
0.924431
0.924418
0.924407
0.924397
0.924388
0.92438
0.924373
0.924367
0.924362
0.924357
0.924354
0.924352
0.924351
0.924351
0.924352
0.924354
0.924357
0.924361
0.924366
0.924372
0.924378
0.924386
0.924394
0.924404
0.924414
0.924425
0.924437
0.924449
0.924463
0.924477
0.924492
0.924507
0.924523
0.92454
0.924558
0.924576
0.924595
0.924615
0.924635
0.924655
0.924676
0.924698
0.92472
0.924743
0.924766
0.92479
0.924814
0.924838
0.924863
0.924889
0.924915
0.924941
0.924968
0.924995
0.925022
0.92505
0.925079
0.925108
0.925137
0.925166
0.925196
0.925227
0.925258
0.925289
0.92532
0.925353
0.925385
0.925418
0.925452
0.925486
0.92552
0.925555
0.92559
0.925626
0.925663
0.9257
0.925737
0.925776
0.925814
0.925854
0.925894
0.925935
0.925976
0.926018
0.926061
0.926104
0.926149
0.926194
0.92624
0.926287
0.926335
0.926383
0.926433
0.926483
0.926535
0.926587
0.926641
0.926695
0.92675
0.926807
0.926864
0.926923
0.926982
0.927042
0.927104
0.927166
0.927229
0.927292
0.927356
0.927421
0.927487
0.927552
0.927618
0.927684
0.927749
0.927815
0.927879
0.927943
0.928006
0.928068
0.928128
0.928185
0.928241
0.928294
0.928344
0.92839
0.928433
0.928471
0.928505
0.928533
0.928555
0.928572
0.928582
0.928584
0.928579
0.928566
0.928543
0.928512
0.92847
0.928418
0.928354
0.928279
0.92819
0.928086
0.927967
0.927831
0.927675
0.927497
0.927292
0.927055
0.926778
0.926449
0.926054
0.925569
0.924959
0.924155
0.92304
0.921491
0.919417
0.916145
0.910002
0.906422
0.911914
0
0
0.960416
0.957995
0.955909
0.952719
0.950157
0.947935
0.946026
0.944418
0.943052
0.941873
0.940842
0.939931
0.939118
0.938386
0.937722
0.937115
0.936558
0.936044
0.935567
0.935124
0.93471
0.934323
0.93396
0.933619
0.933298
0.932996
0.932711
0.932442
0.932188
0.931948
0.931721
0.931506
0.931303
0.93111
0.930927
0.930754
0.93059
0.930434
0.930287
0.930146
0.930013
0.929886
0.929765
0.929649
0.929539
0.929434
0.929334
0.929237
0.929145
0.929056
0.928971
0.928888
0.928808
0.928731
0.928656
0.928582
0.928511
0.928441
0.928372
0.928305
0.928238
0.928172
0.928107
0.928043
0.927978
0.927914
0.927851
0.927787
0.927723
0.92766
0.927596
0.927532
0.927468
0.927405
0.927341
0.927278
0.927214
0.927151
0.927089
0.927027
0.926966
0.926906
0.926847
0.92679
0.926734
0.92668
0.926629
0.926579
0.926533
0.926489
0.926448
0.92641
0.926376
0.926346
0.926319
0.926296
0.926276
0.926261
0.92625
0.926242
0.926238
0.926237
0.92624
0.926246
0.926255
0.926266
0.92628
0.926296
0.926314
0.926334
0.926354
0.926376
0.926398
0.926421
0.926444
0.926466
0.926489
0.926511
0.926532
0.926552
0.926572
0.92659
0.926607
0.926623
0.926638
0.926651
0.926662
0.926673
0.926682
0.926689
0.926695
0.9267
0.926704
0.926706
0.926706
0.926706
0.926704
0.926701
0.926697
0.926692
0.926686
0.926679
0.92667
0.926661
0.926651
0.92664
0.926629
0.926616
0.926603
0.926589
0.926574
0.926559
0.926543
0.926527
0.92651
0.926493
0.926475
0.926456
0.926437
0.926418
0.926398
0.926378
0.926357
0.926336
0.926315
0.926293
0.926271
0.926249
0.926226
0.926204
0.92618
0.926157
0.926133
0.926109
0.926084
0.926059
0.926034
0.926009
0.925984
0.925958
0.925931
0.925905
0.925878
0.925851
0.925824
0.925797
0.925769
0.925741
0.925712
0.925684
0.925655
0.925626
0.925597
0.925567
0.925538
0.925508
0.925478
0.925448
0.925417
0.925387
0.925356
0.925326
0.925295
0.925264
0.925234
0.925203
0.925172
0.925142
0.925111
0.925081
0.925051
0.925021
0.924992
0.924962
0.924933
0.924904
0.924876
0.924848
0.924821
0.924794
0.924767
0.924742
0.924716
0.924692
0.924668
0.924644
0.924622
0.9246
0.924579
0.924559
0.924539
0.924521
0.924503
0.924486
0.92447
0.924455
0.924441
0.924428
0.924416
0.924404
0.924394
0.924385
0.924377
0.92437
0.924364
0.924358
0.924354
0.924351
0.924349
0.924348
0.924348
0.924348
0.92435
0.924353
0.924357
0.924362
0.924367
0.924374
0.924381
0.924389
0.924399
0.924409
0.924419
0.924431
0.924444
0.924457
0.924471
0.924485
0.924501
0.924517
0.924534
0.924551
0.924569
0.924588
0.924607
0.924627
0.924648
0.924669
0.92469
0.924712
0.924735
0.924758
0.924781
0.924805
0.924829
0.924854
0.92488
0.924905
0.924931
0.924958
0.924985
0.925012
0.92504
0.925068
0.925097
0.925126
0.925155
0.925185
0.925215
0.925246
0.925277
0.925308
0.92534
0.925372
0.925405
0.925438
0.925472
0.925506
0.925541
0.925576
0.925612
0.925648
0.925685
0.925722
0.92576
0.925798
0.925837
0.925877
0.925917
0.925958
0.926
0.926042
0.926085
0.926129
0.926174
0.926219
0.926265
0.926312
0.92636
0.926409
0.926459
0.92651
0.926561
0.926614
0.926667
0.926722
0.926777
0.926834
0.926891
0.926949
0.927008
0.927068
0.927129
0.927191
0.927253
0.927316
0.927379
0.927443
0.927507
0.927571
0.927635
0.927699
0.927763
0.927826
0.927888
0.927949
0.928009
0.928067
0.928123
0.928177
0.928227
0.928275
0.92832
0.92836
0.928396
0.928427
0.928453
0.928473
0.928486
0.928493
0.928492
0.928483
0.928466
0.928439
0.928403
0.928356
0.928298
0.928227
0.928144
0.928046
0.927933
0.927802
0.927652
0.927481
0.927284
0.927058
0.926797
0.926492
0.926133
0.925704
0.92518
0.924531
0.92372
0.922681
0.921258
0.919287
0.917166
0.91526
0.913641
0.916224
0
0
0.954454
0.954457
0.952885
0.950978
0.949107
0.947257
0.945611
0.944166
0.942894
0.941774
0.94078
0.939894
0.939098
0.938377
0.93772
0.937118
0.936564
0.936052
0.935577
0.935134
0.93472
0.934333
0.93397
0.933629
0.933307
0.933005
0.932719
0.93245
0.932195
0.931954
0.931727
0.931511
0.931307
0.931114
0.930931
0.930757
0.930593
0.930436
0.930288
0.930147
0.930013
0.929886
0.929765
0.92965
0.929539
0.929434
0.929334
0.929237
0.929145
0.929056
0.928971
0.928888
0.928809
0.928732
0.928657
0.928584
0.928512
0.928443
0.928374
0.928307
0.928241
0.928176
0.928111
0.928047
0.927983
0.927919
0.927856
0.927793
0.927729
0.927666
0.927603
0.927539
0.927476
0.927412
0.927349
0.927286
0.927222
0.927159
0.927097
0.927035
0.926974
0.926913
0.926854
0.926796
0.92674
0.926686
0.926633
0.926583
0.926535
0.926491
0.926449
0.92641
0.926375
0.926344
0.926316
0.926292
0.926272
0.926256
0.926244
0.926235
0.926231
0.92623
0.926232
0.926238
0.926246
0.926258
0.926272
0.926288
0.926306
0.926326
0.926347
0.926368
0.926391
0.926414
0.926437
0.92646
0.926483
0.926505
0.926526
0.926547
0.926567
0.926585
0.926602
0.926618
0.926633
0.926646
0.926658
0.926669
0.926678
0.926685
0.926691
0.926696
0.926699
0.926701
0.926702
0.926702
0.9267
0.926697
0.926693
0.926687
0.926681
0.926674
0.926665
0.926656
0.926646
0.926635
0.926623
0.92661
0.926597
0.926583
0.926568
0.926553
0.926537
0.92652
0.926503
0.926485
0.926467
0.926449
0.92643
0.92641
0.92639
0.92637
0.926349
0.926328
0.926306
0.926285
0.926262
0.92624
0.926217
0.926194
0.926171
0.926147
0.926123
0.926099
0.926074
0.926049
0.926024
0.925999
0.925973
0.925947
0.925921
0.925895
0.925868
0.925841
0.925814
0.925786
0.925758
0.92573
0.925702
0.925674
0.925645
0.925616
0.925587
0.925557
0.925528
0.925498
0.925468
0.925438
0.925408
0.925378
0.925347
0.925317
0.925286
0.925256
0.925225
0.925195
0.925164
0.925134
0.925104
0.925074
0.925044
0.925014
0.924985
0.924955
0.924926
0.924898
0.92487
0.924842
0.924815
0.924788
0.924762
0.924736
0.924711
0.924686
0.924663
0.924639
0.924617
0.924595
0.924574
0.924554
0.924535
0.924516
0.924498
0.924482
0.924466
0.924451
0.924437
0.924423
0.924411
0.9244
0.92439
0.924381
0.924373
0.924365
0.924359
0.924354
0.92435
0.924346
0.924344
0.924343
0.924343
0.924343
0.924345
0.924348
0.924351
0.924356
0.924361
0.924368
0.924375
0.924383
0.924392
0.924402
0.924413
0.924424
0.924437
0.92445
0.924463
0.924478
0.924493
0.924509
0.924526
0.924543
0.924561
0.924579
0.924598
0.924618
0.924638
0.924659
0.92468
0.924702
0.924725
0.924747
0.924771
0.924794
0.924819
0.924843
0.924868
0.924894
0.92492
0.924946
0.924973
0.925
0.925028
0.925055
0.925084
0.925113
0.925142
0.925171
0.925201
0.925232
0.925263
0.925294
0.925325
0.925358
0.92539
0.925423
0.925456
0.92549
0.925525
0.92556
0.925595
0.925631
0.925667
0.925704
0.925741
0.92578
0.925818
0.925857
0.925897
0.925938
0.925979
0.926021
0.926063
0.926107
0.926151
0.926195
0.926241
0.926287
0.926335
0.926383
0.926432
0.926482
0.926532
0.926584
0.926637
0.92669
0.926745
0.9268
0.926856
0.926913
0.926971
0.92703
0.92709
0.92715
0.927211
0.927273
0.927335
0.927397
0.92746
0.927523
0.927585
0.927648
0.92771
0.927772
0.927832
0.927892
0.92795
0.928006
0.92806
0.928112
0.928162
0.928208
0.92825
0.928289
0.928323
0.928352
0.928375
0.928393
0.928404
0.928408
0.928405
0.928393
0.928372
0.928342
0.928302
0.92825
0.928187
0.928111
0.928021
0.927916
0.927795
0.927655
0.927496
0.927313
0.927105
0.926866
0.926592
0.926274
0.925904
0.925468
0.924951
0.924328
0.923566
0.922641
0.921549
0.920247
0.918846
0.918108
0.917873
0.918549
0
0
0.951034
0.951161
0.950298
0.94918
0.947778
0.946347
0.944989
0.943729
0.942582
0.941548
0.940615
0.93977
0.939003
0.938304
0.937663
0.937074
0.936529
0.936023
0.935553
0.935114
0.934704
0.934319
0.933958
0.933618
0.933298
0.932996
0.932711
0.932442
0.932187
0.931947
0.931719
0.931504
0.9313
0.931107
0.930924
0.93075
0.930586
0.93043
0.930281
0.930141
0.930007
0.92988
0.929759
0.929644
0.929534
0.929429
0.929329
0.929233
0.929141
0.929052
0.928967
0.928885
0.928806
0.928729
0.928655
0.928582
0.928511
0.928442
0.928375
0.928308
0.928242
0.928178
0.928113
0.92805
0.927986
0.927923
0.927861
0.927798
0.927735
0.927672
0.927609
0.927546
0.927483
0.92742
0.927356
0.927293
0.92723
0.927167
0.927104
0.927042
0.92698
0.926919
0.926859
0.926801
0.926744
0.926689
0.926635
0.926584
0.926536
0.92649
0.926447
0.926407
0.926371
0.926339
0.92631
0.926285
0.926264
0.926248
0.926235
0.926226
0.926221
0.926219
0.926222
0.926227
0.926236
0.926248
0.926262
0.926278
0.926297
0.926317
0.926338
0.92636
0.926383
0.926407
0.92643
0.926454
0.926477
0.926499
0.926521
0.926542
0.926562
0.926581
0.926598
0.926614
0.926629
0.926643
0.926654
0.926665
0.926674
0.926681
0.926688
0.926692
0.926695
0.926697
0.926698
0.926697
0.926695
0.926692
0.926688
0.926682
0.926676
0.926668
0.92666
0.92665
0.92664
0.926629
0.926617
0.926604
0.92659
0.926576
0.926561
0.926545
0.926529
0.926512
0.926495
0.926477
0.926459
0.92644
0.926421
0.926401
0.926381
0.92636
0.926339
0.926318
0.926296
0.926274
0.926252
0.926229
0.926206
0.926183
0.92616
0.926136
0.926112
0.926087
0.926062
0.926038
0.926012
0.925987
0.925961
0.925935
0.925909
0.925882
0.925856
0.925829
0.925801
0.925774
0.925746
0.925718
0.92569
0.925661
0.925633
0.925604
0.925575
0.925545
0.925516
0.925486
0.925456
0.925427
0.925396
0.925366
0.925336
0.925306
0.925275
0.925245
0.925215
0.925184
0.925154
0.925124
0.925094
0.925064
0.925034
0.925005
0.924976
0.924947
0.924918
0.92489
0.924862
0.924834
0.924807
0.92478
0.924754
0.924729
0.924704
0.924679
0.924656
0.924633
0.92461
0.924589
0.924568
0.924548
0.924528
0.92451
0.924492
0.924476
0.92446
0.924445
0.924431
0.924418
0.924406
0.924394
0.924384
0.924375
0.924367
0.924359
0.924353
0.924348
0.924344
0.92434
0.924338
0.924337
0.924336
0.924337
0.924338
0.924341
0.924345
0.924349
0.924354
0.92436
0.924368
0.924376
0.924384
0.924394
0.924405
0.924416
0.924428
0.924441
0.924455
0.924469
0.924484
0.9245
0.924516
0.924533
0.924551
0.924569
0.924588
0.924607
0.924627
0.924648
0.924669
0.924691
0.924713
0.924735
0.924758
0.924782
0.924806
0.92483
0.924855
0.92488
0.924906
0.924932
0.924959
0.924986
0.925013
0.925041
0.925069
0.925098
0.925126
0.925156
0.925186
0.925216
0.925246
0.925277
0.925309
0.92534
0.925373
0.925405
0.925439
0.925472
0.925506
0.925541
0.925576
0.925611
0.925647
0.925684
0.925721
0.925758
0.925797
0.925835
0.925875
0.925915
0.925956
0.925997
0.926039
0.926082
0.926125
0.926169
0.926214
0.92626
0.926307
0.926354
0.926402
0.926451
0.926501
0.926552
0.926604
0.926656
0.92671
0.926764
0.926819
0.926875
0.926932
0.92699
0.927048
0.927107
0.927167
0.927228
0.927288
0.92735
0.927411
0.927473
0.927534
0.927595
0.927656
0.927716
0.927775
0.927834
0.92789
0.927945
0.927998
0.928049
0.928097
0.928141
0.928182
0.928219
0.928251
0.928279
0.928301
0.928316
0.928326
0.928327
0.928322
0.928307
0.928284
0.928251
0.928207
0.928152
0.928085
0.928004
0.92791
0.9278
0.927673
0.927528
0.927362
0.927174
0.92696
0.926717
0.92644
0.926124
0.925761
0.925342
0.924857
0.924295
0.923644
0.922891
0.922059
0.92124
0.920483
0.920026
0.920169
0.920676
0
0
0.948526
0.94856
0.948152
0.94741
0.946412
0.945332
0.944229
0.943159
0.942153
0.94122
0.94036
0.939569
0.938843
0.938174
0.937556
0.936984
0.936453
0.935959
0.935497
0.935066
0.934661
0.934281
0.933923
0.933586
0.933269
0.932969
0.932686
0.932418
0.932165
0.931926
0.931699
0.931485
0.931282
0.931089
0.930907
0.930734
0.93057
0.930414
0.930267
0.930127
0.929993
0.929867
0.929746
0.929632
0.929522
0.929418
0.929318
0.929223
0.929132
0.929044
0.928959
0.928878
0.9288
0.928724
0.92865
0.928578
0.928508
0.92844
0.928373
0.928307
0.928242
0.928178
0.928114
0.928052
0.927989
0.927927
0.927864
0.927802
0.92774
0.927678
0.927615
0.927552
0.927489
0.927426
0.927363
0.9273
0.927236
0.927173
0.92711
0.927048
0.926985
0.926924
0.926863
0.926804
0.926746
0.92669
0.926635
0.926583
0.926533
0.926486
0.926442
0.926402
0.926364
0.926331
0.926301
0.926275
0.926253
0.926236
0.926222
0.926213
0.926208
0.926206
0.926209
0.926214
0.926223
0.926235
0.92625
0.926267
0.926286
0.926306
0.926328
0.926351
0.926375
0.926399
0.926423
0.926447
0.926471
0.926494
0.926516
0.926537
0.926558
0.926577
0.926594
0.926611
0.926626
0.926639
0.926651
0.926662
0.926671
0.926678
0.926684
0.926689
0.926692
0.926693
0.926694
0.926693
0.926691
0.926687
0.926683
0.926677
0.92667
0.926663
0.926654
0.926644
0.926633
0.926622
0.92661
0.926597
0.926583
0.926568
0.926553
0.926537
0.926521
0.926504
0.926486
0.926468
0.926449
0.92643
0.92641
0.92639
0.92637
0.926349
0.926328
0.926307
0.926285
0.926262
0.92624
0.926217
0.926194
0.92617
0.926147
0.926123
0.926098
0.926074
0.926049
0.926024
0.925998
0.925973
0.925947
0.925921
0.925895
0.925868
0.925841
0.925814
0.925787
0.925759
0.925732
0.925704
0.925675
0.925647
0.925618
0.925589
0.92556
0.925531
0.925502
0.925472
0.925443
0.925413
0.925383
0.925353
0.925323
0.925293
0.925263
0.925232
0.925202
0.925172
0.925142
0.925112
0.925082
0.925052
0.925023
0.924994
0.924965
0.924936
0.924907
0.924879
0.924851
0.924824
0.924797
0.924771
0.924745
0.92472
0.924695
0.924671
0.924647
0.924624
0.924602
0.924581
0.92456
0.92454
0.924521
0.924502
0.924485
0.924468
0.924452
0.924437
0.924423
0.92441
0.924398
0.924387
0.924377
0.924368
0.924359
0.924352
0.924346
0.92434
0.924336
0.924333
0.92433
0.924329
0.924329
0.924329
0.924331
0.924333
0.924336
0.924341
0.924346
0.924352
0.924359
0.924367
0.924375
0.924385
0.924395
0.924406
0.924418
0.924431
0.924444
0.924458
0.924473
0.924489
0.924505
0.924522
0.924539
0.924557
0.924576
0.924595
0.924615
0.924635
0.924656
0.924677
0.924699
0.924722
0.924744
0.924768
0.924792
0.924816
0.92484
0.924865
0.924891
0.924917
0.924943
0.92497
0.924997
0.925024
0.925052
0.925081
0.925109
0.925138
0.925168
0.925198
0.925228
0.925259
0.92529
0.925321
0.925353
0.925386
0.925419
0.925452
0.925486
0.92552
0.925554
0.925589
0.925625
0.925661
0.925698
0.925735
0.925773
0.925811
0.92585
0.92589
0.92593
0.925971
0.926012
0.926054
0.926097
0.926141
0.926185
0.92623
0.926276
0.926322
0.92637
0.926418
0.926467
0.926517
0.926568
0.92662
0.926672
0.926725
0.92678
0.926835
0.926891
0.926947
0.927005
0.927063
0.927121
0.927181
0.92724
0.9273
0.927361
0.927421
0.927481
0.927541
0.927601
0.92766
0.927718
0.927775
0.927831
0.927884
0.927936
0.927986
0.928032
0.928075
0.928115
0.928151
0.928182
0.928208
0.928228
0.928243
0.92825
0.92825
0.928243
0.928226
0.928201
0.928165
0.928119
0.928061
0.927991
0.927908
0.927811
0.927698
0.927568
0.92742
0.927253
0.927063
0.92685
0.926609
0.926339
0.926034
0.925691
0.925304
0.924869
0.924382
0.923845
0.923269
0.922673
0.922124
0.921719
0.921499
0.921666
0.922211
0
0
0.94645
0.946518
0.946309
0.945802
0.945103
0.944282
0.943399
0.942509
0.94164
0.940812
0.940032
0.939303
0.938624
0.937991
0.937403
0.936854
0.936341
0.935861
0.935412
0.93499
0.934593
0.934219
0.933867
0.933535
0.933222
0.932925
0.932645
0.93238
0.932129
0.931892
0.931667
0.931454
0.931252
0.931061
0.93088
0.930708
0.930545
0.930391
0.930244
0.930105
0.929973
0.929847
0.929728
0.929614
0.929505
0.929402
0.929303
0.929209
0.929118
0.929032
0.928948
0.928868
0.92879
0.928715
0.928642
0.928572
0.928503
0.928435
0.928369
0.928304
0.92824
0.928177
0.928114
0.928052
0.92799
0.927929
0.927867
0.927806
0.927744
0.927682
0.92762
0.927558
0.927495
0.927432
0.927369
0.927306
0.927243
0.927179
0.927116
0.927053
0.92699
0.926928
0.926866
0.926806
0.926747
0.926689
0.926633
0.92658
0.926529
0.92648
0.926435
0.926393
0.926354
0.926319
0.926289
0.926262
0.926239
0.926221
0.926207
0.926197
0.926192
0.92619
0.926193
0.926199
0.926208
0.926221
0.926236
0.926254
0.926273
0.926295
0.926318
0.926342
0.926366
0.926391
0.926416
0.926441
0.926465
0.926489
0.926512
0.926533
0.926554
0.926573
0.926591
0.926608
0.926623
0.926636
0.926648
0.926659
0.926668
0.926675
0.926681
0.926685
0.926688
0.92669
0.92669
0.926689
0.926686
0.926682
0.926678
0.926672
0.926665
0.926657
0.926647
0.926637
0.926626
0.926615
0.926602
0.926589
0.926574
0.92656
0.926544
0.926528
0.926511
0.926494
0.926476
0.926457
0.926438
0.926419
0.926399
0.926379
0.926358
0.926337
0.926315
0.926294
0.926271
0.926249
0.926226
0.926203
0.92618
0.926156
0.926132
0.926108
0.926083
0.926059
0.926034
0.926008
0.925983
0.925957
0.925931
0.925905
0.925878
0.925852
0.925825
0.925798
0.92577
0.925743
0.925715
0.925687
0.925659
0.925631
0.925602
0.925573
0.925544
0.925515
0.925486
0.925456
0.925427
0.925397
0.925367
0.925337
0.925308
0.925278
0.925248
0.925218
0.925188
0.925158
0.925128
0.925098
0.925068
0.925039
0.92501
0.924981
0.924952
0.924923
0.924895
0.924867
0.92484
0.924812
0.924786
0.92476
0.924734
0.924709
0.924684
0.92466
0.924637
0.924614
0.924592
0.924571
0.92455
0.92453
0.924511
0.924493
0.924476
0.924459
0.924443
0.924429
0.924415
0.924402
0.92439
0.924378
0.924368
0.924359
0.924351
0.924343
0.924337
0.924332
0.924327
0.924324
0.924322
0.92432
0.924319
0.92432
0.924321
0.924324
0.924327
0.924331
0.924336
0.924342
0.924349
0.924356
0.924365
0.924374
0.924384
0.924395
0.924407
0.924419
0.924432
0.924446
0.924461
0.924476
0.924492
0.924509
0.924526
0.924544
0.924562
0.924581
0.924601
0.924621
0.924642
0.924663
0.924684
0.924706
0.924729
0.924752
0.924776
0.924799
0.924824
0.924849
0.924874
0.924899
0.924926
0.924952
0.924979
0.925006
0.925034
0.925062
0.92509
0.925119
0.925148
0.925178
0.925208
0.925238
0.925269
0.9253
0.925332
0.925364
0.925397
0.925429
0.925463
0.925497
0.925531
0.925566
0.925601
0.925637
0.925673
0.92571
0.925747
0.925785
0.925823
0.925862
0.925902
0.925942
0.925983
0.926025
0.926067
0.92611
0.926153
0.926198
0.926243
0.926289
0.926335
0.926383
0.926431
0.92648
0.92653
0.926581
0.926633
0.926685
0.926738
0.926792
0.926847
0.926903
0.926959
0.927016
0.927074
0.927132
0.927191
0.92725
0.927309
0.927368
0.927428
0.927487
0.927545
0.927603
0.92766
0.927716
0.927771
0.927824
0.927874
0.927923
0.927968
0.928011
0.928049
0.928084
0.928114
0.928139
0.928158
0.928171
0.928178
0.928176
0.928167
0.92815
0.928123
0.928085
0.928038
0.927978
0.927906
0.927822
0.927723
0.927608
0.927478
0.927331
0.927164
0.926978
0.926769
0.926537
0.926279
0.925993
0.925677
0.92533
0.924951
0.924542
0.92411
0.923672
0.923254
0.922893
0.922658
0.922597
0.922768
0.923237
0
0
0.944722
0.944836
0.944718
0.944379
0.943878
0.943251
0.94255
0.941815
0.941074
0.940348
0.93965
0.938985
0.938357
0.937765
0.937209
0.936686
0.936195
0.935733
0.935298
0.934888
0.934501
0.934136
0.933791
0.933465
0.933157
0.932865
0.932589
0.932327
0.93208
0.931845
0.931623
0.931412
0.931212
0.931023
0.930844
0.930673
0.930512
0.930359
0.930214
0.930076
0.929945
0.929821
0.929703
0.92959
0.929483
0.929381
0.929284
0.92919
0.929101
0.929016
0.928933
0.928854
0.928778
0.928704
0.928632
0.928563
0.928495
0.928428
0.928363
0.9283