# vtk DataFile Version 2.0
LBE mesh
ASCII
DATASET STRUCTURED_POINTS
DIMENSIONS 402 102 1
ASPECT_RATIO 1 1 1
ORIGIN 0 0 0
POINT_DATA 41004
SCALARS rho double 1
LOOKUP_TABLE default
0
0
0
0
0
0
0
0
0
0
0
0
0
0
0
0
0
0
0
0
0
0
0
0
0
0
0
0
0
0
0
0
0
0
0
0
0
0
0
0
0
0
0
0
0
0
0
0
0
0
0
0
0
0
0
0
0
0
0
0
0
0
0
0
0
0
0
0
0
0
0
0
0
0
0
0
0
0
0
0
0
0
0
0
0
0
0
0
0
0
0
0
0
0
0
0
0
0
0
0
0
0
0
0
0
0
0
0
0
0
0
0
0
0
0
0
0
0
0
0
0
0
0
0
0
0
0
0
0
0
0
0
0
0
0
0
0
0
0
0
0
0
0
0
0
0
0
0
0
0
0
0
0
0
0
0
0
0
0
0
0
0
0
0
0
0
0
0
0
0
0
0
0
0
0
0
0
0
0
0
0
0
0
0
0
0
0
0
0
0
0
0
0
0
0
0
0
0
0
0
0
0
0
0
0
0
0
0
0
0
0
0
0
0
0
0
0
0
0
0
0
0
0
0
0
0
0
0
0
0
0
0
0
0
0
0
0
0
0
0
0
0
0
0
0
0
0
0
0
0
0
0
0
0
0
0
0
0
0
0
0
0
0
0
0
0
0
0
0
0
0
0
0
0
0
0
0
0
0
0
0
0
0
0
0
0
0
0
0
0
0
0
0
0
0
0
0
0
0
0
0
0
0
0
0
0
0
0
0
0
0
0
0
0
0
0
0
0
0
0
0
0
0
0
0
0
0
0
0
0
0
0
0
0
0
0
0
0
0
0
0
0
0
0
0
0
0
0
0
0
0
0
0
0
0
0
0
0
0
0
0
0
0
0
0
0
0
0
0
0
0
0
0
0
0
0
0
0
0
0
0
0
0
0
0
0
0
0
0
0
0
0
0
0
0
0
0
0
0
0
0
0
0
0.950055
1.01875
1.00585
0.99787
0.994237
0.991925
0.990071
0.988589
0.98741
0.986453
0.985666
0.985014
0.984475
0.984029
0.983662
0.983362
0.983118
0.982923
0.98277
0.982651
0.982562
0.982498
0.982454
0.982428
0.982416
0.982417
0.982426
0.982444
0.982469
0.982499
0.982534
0.982572
0.982614
0.982659
0.982707
0.982758
0.982812
0.982869
0.982928
0.982992
0.983058
0.983128
0.983203
0.983281
0.983364
0.983451
0.983543
0.98364
0.983742
0.983848
0.983959
0.984074
0.984193
0.984315
0.984441
0.98457
0.9847
0.984832
0.984964
0.985096
0.985227
0.985356
0.985482
0.985605
0.985724
0.985837
0.985945
0.986046
0.98614
0.986227
0.986305
0.986375
0.986436
0.986489
0.986532
0.986566
0.986591
0.986607
0.986614
0.986612
0.986601
0.986583
0.986556
0.986522
0.986481
0.986433
0.986379
0.986319
0.986254
0.986184
0.98611
0.986032
0.98595
0.985866
0.985779
0.98569
0.985598
0.985505
0.98541
0.985313
0.985214
0.985114
0.985012
0.984908
0.984802
0.984694
0.984585
0.984474
0.984361
0.984247
0.984132
0.984017
0.983902
0.983788
0.983676
0.983567
0.983461
0.98336
0.983265
0.983177
0.983097
0.983027
0.982968
0.98292
0.982885
0.982863
0.982856
0.982865
0.982889
0.982929
0.982986
0.98306
0.98315
0.983256
0.983378
0.983515
0.983666
0.983829
0.984005
0.98419
0.984383
0.984582
0.984785
0.98499
0.985194
0.985395
0.985589
0.985776
0.985952
0.986114
0.986261
0.986391
0.986502
0.986592
0.986662
0.98671
0.986737
0.986743
0.986728
0.986695
0.986645
0.986579
0.9865
0.986411
0.986313
0.986209
0.986102
0.985994
0.985887
0.985782
0.985682
0.985588
0.9855
0.985419
0.985346
0.98528
0.985221
0.985169
0.985123
0.985082
0.985045
0.985011
0.984978
0.984946
0.984913
0.984878
0.98484
0.984797
0.984748
0.984693
0.984631
0.984561
0.984483
0.984396
0.9843
0.984195
0.984082
0.98396
0.983831
0.983694
0.983551
0.983402
0.983248
0.983091
0.98293
0.982769
0.982606
0.982444
0.982283
0.982125
0.981969
0.981818
0.981671
0.981529
0.981393
0.981264
0.981141
0.981026
0.980918
0.980818
0.980727
0.980644
0.980571
0.980507
0.980453
0.980409
0.980375
0.980352
0.980341
0.980341
0.980353
0.980377
0.980414
0.980463
0.980526
0.980603
0.980693
0.980797
0.980914
0.981045
0.98119
0.981348
0.981519
0.981702
0.981898
0.982104
0.982322
0.982548
0.982784
0.983027
0.983277
0.983532
0.983792
0.984054
0.984318
0.984582
0.984844
0.985105
0.985361
0.985612
0.985857
0.986094
0.986323
0.986541
0.986749
0.986945
0.987129
0.9873
0.987457
0.9876
0.987729
0.987844
0.987944
0.98803
0.988102
0.988162
0.988208
0.988242
0.988265
0.988277
0.98828
0.988274
0.98826
0.988241
0.988215
0.988185
0.988152
0.988117
0.98808
0.988044
0.988006
0.987972
0.987938
0.987908
0.987881
0.987858
0.987838
0.987823
0.987812
0.987807
0.987804
0.987808
0.987814
0.987826
0.98784
0.987859
0.987879
0.987903
0.987927
0.987955
0.987982
0.988011
0.988039
0.988068
0.988095
0.988122
0.988146
0.988171
0.988191
0.988211
0.988226
0.988241
0.988251
0.98826
0.988264
0.988267
0.988264
0.988262
0.988254
0.988245
0.988232
0.98822
0.988203
0.988187
0.988168
0.98815
0.988131
0.988114
0.988096
0.988083
0.988069
0.98806
0.988053
0.988052
0.988053
0.988061
0.988073
0.988092
0.988114
0.988145
0.98818
0.988223
0.98827
0.988324
0.988383
0.988449
0.988519
0.988595
0.988675
0.988761
0.98885
0.988944
0.98904
0.989141
0.989244
0.989351
0.989459
0.989571
0.989683
0.989799
0.989914
0.990033
0.990151
0.99027
0.990389
0.990509
0.990626
0.990744
0.990858
0.990971
0.991078
0.991181
0.991275
0.991361
0.991434
0.991491
0.991527
0.991535
0.991506
0.991428
0.991285
0.991056
0.990679
0.990022
0.988957
0.987761
0.987028
0.982888
0.947865
0.844734
0
0
1.01964
1.01209
1.00405
0.999514
0.995649
0.992806
0.990733
0.989137
0.987858
0.986817
0.985965
0.985263
0.984683
0.984203
0.983809
0.983486
0.983224
0.983013
0.982846
0.982717
0.982619
0.982547
0.982497
0.982466
0.98245
0.982447
0.982454
0.98247
0.982493
0.982522
0.982556
0.982594
0.982635
0.98268
0.982728
0.982779
0.982833
0.982889
0.982949
0.983012
0.983079
0.983149
0.983223
0.983301
0.983383
0.98347
0.983562
0.983658
0.983758
0.983863
0.983973
0.984086
0.984204
0.984325
0.984449
0.984575
0.984704
0.984834
0.984964
0.985094
0.985223
0.98535
0.985474
0.985595
0.985712
0.985824
0.98593
0.98603
0.986123
0.986208
0.986286
0.986355
0.986416
0.986468
0.986511
0.986546
0.986571
0.986587
0.986594
0.986593
0.986583
0.986565
0.986539
0.986506
0.986466
0.986418
0.986365
0.986306
0.986241
0.986172
0.986098
0.98602
0.985939
0.985855
0.985767
0.985678
0.985586
0.985492
0.985396
0.985299
0.985199
0.985098
0.984996
0.984891
0.984785
0.984677
0.984567
0.984456
0.984343
0.98423
0.984116
0.984001
0.983888
0.983775
0.983664
0.983557
0.983453
0.983354
0.983261
0.983175
0.983098
0.98303
0.982973
0.982927
0.982894
0.982874
0.982869
0.982879
0.982904
0.982945
0.983003
0.983076
0.983166
0.983272
0.983393
0.983528
0.983677
0.983839
0.984011
0.984194
0.984384
0.98458
0.98478
0.984982
0.985183
0.985381
0.985573
0.985758
0.985931
0.986092
0.986238
0.986367
0.986478
0.986569
0.986639
0.986689
0.986717
0.986725
0.986713
0.986682
0.986634
0.986571
0.986495
0.986407
0.986312
0.98621
0.986104
0.985996
0.98589
0.985785
0.985685
0.985589
0.9855
0.985418
0.985343
0.985275
0.985214
0.98516
0.985112
0.985068
0.985029
0.984993
0.984958
0.984924
0.98489
0.984853
0.984814
0.98477
0.984721
0.984666
0.984605
0.984535
0.984458
0.984372
0.984278
0.984175
0.984064
0.983944
0.983817
0.983683
0.983542
0.983396
0.983245
0.983091
0.982933
0.982774
0.982614
0.982455
0.982296
0.98214
0.981986
0.981837
0.981691
0.981551
0.981416
0.981288
0.981167
0.981052
0.980945
0.980847
0.980756
0.980675
0.980602
0.980539
0.980485
0.980441
0.980408
0.980386
0.980375
0.980375
0.980387
0.980412
0.980448
0.980498
0.980561
0.980637
0.980726
0.980829
0.980945
0.981075
0.981219
0.981375
0.981544
0.981726
0.981919
0.982123
0.982338
0.982562
0.982795
0.983036
0.983283
0.983535
0.983792
0.984051
0.984312
0.984573
0.984833
0.985091
0.985344
0.985593
0.985836
0.986071
0.986298
0.986515
0.986721
0.986916
0.987099
0.98727
0.987426
0.98757
0.987698
0.987814
0.987915
0.988002
0.988076
0.988136
0.988184
0.98822
0.988244
0.988259
0.988263
0.98826
0.988248
0.98823
0.988206
0.988179
0.988147
0.988114
0.988078
0.988043
0.988006
0.987973
0.98794
0.987911
0.987883
0.987862
0.987841
0.987827
0.987815
0.98781
0.987807
0.987811
0.987816
0.987828
0.98784
0.987859
0.987878
0.987902
0.987925
0.987953
0.987979
0.988009
0.988034
0.988064
0.988089
0.988117
0.98814
0.988165
0.988184
0.988205
0.988219
0.988234
0.988243
0.988253
0.988256
0.98826
0.988257
0.988255
0.988247
0.98824
0.988226
0.988215
0.988197
0.988183
0.988163
0.988147
0.988127
0.988112
0.988093
0.988081
0.988066
0.988059
0.988051
0.98805
0.98805
0.988058
0.988068
0.988087
0.988108
0.988138
0.988171
0.988213
0.988257
0.988311
0.988367
0.988431
0.988498
0.988573
0.98865
0.988733
0.988819
0.98891
0.989003
0.989101
0.9892
0.989304
0.989408
0.989516
0.989623
0.989734
0.989844
0.989956
0.990067
0.990179
0.990289
0.9904
0.990507
0.990613
0.990713
0.990811
0.9909
0.990982
0.991053
0.991111
0.99115
0.991169
0.991156
0.991107
0.991005
0.990838
0.990572
0.990167
0.989567
0.988725
0.987488
0.985136
0.979783
0.97089
0.962489
0.950172
0
0
1.01584
1.00648
1.00318
0.999197
0.995621
0.993007
0.99099
0.989373
0.988064
0.986996
0.986118
0.985392
0.984792
0.984295
0.983886
0.98355
0.983278
0.983059
0.982885
0.98275
0.982647
0.982572
0.982519
0.982486
0.982469
0.982465
0.982472
0.982488
0.982511
0.98254
0.982574
0.982613
0.982656
0.982701
0.98275
0.982802
0.982857
0.982914
0.982975
0.983038
0.983105
0.983176
0.98325
0.983328
0.98341
0.983497
0.983587
0.983682
0.983782
0.983885
0.983993
0.984105
0.98422
0.984339
0.98446
0.984584
0.984709
0.984835
0.984962
0.985089
0.985214
0.985338
0.985459
0.985577
0.98569
0.985799
0.985902
0.986
0.98609
0.986173
0.986249
0.986317
0.986376
0.986427
0.986469
0.986503
0.986528
0.986544
0.986551
0.98655
0.986541
0.986523
0.986498
0.986466
0.986426
0.98638
0.986328
0.98627
0.986206
0.986138
0.986065
0.985988
0.985907
0.985824
0.985737
0.985648
0.985556
0.985463
0.985367
0.98527
0.98517
0.985069
0.984966
0.984862
0.984755
0.984647
0.984538
0.984427
0.984315
0.984202
0.984089
0.983976
0.983863
0.983752
0.983643
0.983538
0.983436
0.983339
0.983248
0.983165
0.98309
0.983025
0.98297
0.982927
0.982896
0.982879
0.982875
0.982887
0.982914
0.982956
0.983015
0.983089
0.983179
0.983284
0.983404
0.983539
0.983686
0.983846
0.984016
0.984196
0.984384
0.984577
0.984774
0.984972
0.98517
0.985364
0.985553
0.985735
0.985906
0.986064
0.986208
0.986336
0.986446
0.986537
0.986607
0.986658
0.986687
0.986697
0.986687
0.986658
0.986612
0.986551
0.986477
0.986392
0.986298
0.986198
0.986094
0.985987
0.985881
0.985777
0.985676
0.985581
0.985491
0.985407
0.985331
0.985261
0.985199
0.985143
0.985092
0.985047
0.985006
0.984968
0.984932
0.984897
0.984861
0.984824
0.984784
0.98474
0.984692
0.984637
0.984576
0.984508
0.984433
0.984349
0.984257
0.984157
0.984048
0.983932
0.983808
0.983677
0.98354
0.983397
0.98325
0.983098
0.982944
0.982788
0.982631
0.982474
0.982318
0.982164
0.982013
0.981866
0.981722
0.981584
0.981451
0.981324
0.981204
0.981091
0.980986
0.980888
0.980799
0.980718
0.980647
0.980585
0.980532
0.98049
0.980458
0.980436
0.980426
0.980427
0.98044
0.980465
0.980502
0.980552
0.980615
0.980691
0.98078
0.980882
0.980997
0.981126
0.981268
0.981423
0.98159
0.981769
0.98196
0.982161
0.982373
0.982594
0.982823
0.98306
0.983303
0.983551
0.983804
0.984059
0.984315
0.984572
0.984828
0.985081
0.985331
0.985576
0.985815
0.986046
0.986269
0.986483
0.986687
0.98688
0.987061
0.987229
0.987385
0.987527
0.987656
0.987771
0.987872
0.987961
0.988035
0.988097
0.988147
0.988185
0.988211
0.988228
0.988235
0.988234
0.988225
0.98821
0.988188
0.988163
0.988134
0.988103
0.988069
0.988037
0.988002
0.987971
0.987939
0.987911
0.987885
0.987864
0.987844
0.98783
0.987819
0.987814
0.987811
0.987814
0.987819
0.987831
0.987843
0.987861
0.987879
0.987903
0.987925
0.987952
0.987977
0.988006
0.988032
0.988061
0.988086
0.988113
0.988135
0.98816
0.988178
0.988198
0.988213
0.988228
0.988236
0.988246
0.988249
0.988253
0.98825
0.988249
0.988241
0.988234
0.988221
0.98821
0.988193
0.988179
0.988161
0.988145
0.988126
0.988111
0.988094
0.988081
0.988068
0.98806
0.988053
0.988052
0.988052
0.98806
0.988069
0.988087
0.988107
0.988136
0.988168
0.988208
0.988251
0.988302
0.988356
0.988418
0.988483
0.988555
0.988629
0.98871
0.988793
0.988881
0.988971
0.989065
0.989161
0.989261
0.98936
0.989464
0.989567
0.989672
0.989777
0.989883
0.989987
0.990092
0.990194
0.990296
0.990393
0.990487
0.990575
0.990658
0.990731
0.990795
0.990844
0.990877
0.990888
0.990872
0.990819
0.990722
0.990562
0.990322
0.989974
0.989476
0.988749
0.987667
0.986092
0.983925
0.980446
0.973869
0.970025
0.975895
0
0
1.00543
1.00295
1.00083
0.997555
0.994957
0.992734
0.990858
0.989319
0.988055
0.987007
0.986137
0.985412
0.98481
0.984311
0.983899
0.983561
0.983286
0.983064
0.982889
0.982753
0.98265
0.982574
0.982522
0.98249
0.982474
0.982471
0.98248
0.982497
0.982522
0.982553
0.98259
0.98263
0.982675
0.982722
0.982773
0.982827
0.982883
0.982942
0.983004
0.983069
0.983137
0.983208
0.983283
0.983361
0.983444
0.98353
0.98362
0.983714
0.983811
0.983913
0.984019
0.984128
0.98424
0.984356
0.984473
0.984593
0.984714
0.984837
0.984959
0.985081
0.985202
0.985321
0.985437
0.98555
0.985659
0.985763
0.985862
0.985956
0.986042
0.986122
0.986195
0.98626
0.986317
0.986366
0.986406
0.986438
0.986462
0.986478
0.986485
0.986484
0.986475
0.986458
0.986433
0.986402
0.986363
0.986318
0.986267
0.986211
0.986148
0.986082
0.98601
0.985935
0.985856
0.985773
0.985688
0.9856
0.98551
0.985417
0.985322
0.985226
0.985127
0.985026
0.984924
0.98482
0.984714
0.984607
0.984498
0.984388
0.984277
0.984165
0.984053
0.983941
0.98383
0.983721
0.983614
0.98351
0.98341
0.983316
0.983227
0.983147
0.983074
0.983012
0.98296
0.982919
0.982891
0.982876
0.982876
0.982889
0.982918
0.982963
0.983022
0.983098
0.983188
0.983294
0.983414
0.983547
0.983694
0.983852
0.98402
0.984197
0.984382
0.984572
0.984765
0.98496
0.985154
0.985345
0.98553
0.985708
0.985875
0.986031
0.986173
0.986298
0.986407
0.986496
0.986567
0.986617
0.986647
0.986657
0.986649
0.986622
0.986578
0.986519
0.986447
0.986364
0.986272
0.986174
0.986071
0.985966
0.985861
0.985757
0.985657
0.985561
0.985471
0.985386
0.985309
0.985238
0.985174
0.985117
0.985065
0.985019
0.984976
0.984937
0.9849
0.984864
0.984828
0.984791
0.984751
0.984708
0.98466
0.984607
0.984547
0.984481
0.984408
0.984327
0.984238
0.984141
0.984036
0.983923
0.983803
0.983676
0.983543
0.983404
0.98326
0.983113
0.982963
0.98281
0.982657
0.982503
0.98235
0.982199
0.98205
0.981905
0.981764
0.981627
0.981497
0.981372
0.981253
0.981142
0.981038
0.980942
0.980854
0.980775
0.980705
0.980645
0.980594
0.980553
0.980522
0.980502
0.980493
0.980496
0.98051
0.980536
0.980574
0.980624
0.980687
0.980763
0.980852
0.980954
0.981069
0.981197
0.981337
0.98149
0.981655
0.981832
0.982019
0.982218
0.982426
0.982643
0.982868
0.9831
0.983338
0.983581
0.983828
0.984078
0.984329
0.98458
0.98483
0.985077
0.985321
0.985561
0.985794
0.986021
0.986239
0.986449
0.986648
0.986837
0.987015
0.987181
0.987334
0.987475
0.987602
0.987717
0.987818
0.987907
0.987982
0.988046
0.988097
0.988137
0.988166
0.988185
0.988195
0.988197
0.988191
0.98818
0.988161
0.98814
0.988114
0.988086
0.988055
0.988025
0.987993
0.987964
0.987935
0.987909
0.987884
0.987864
0.987846
0.987833
0.987822
0.987818
0.987815
0.987819
0.987824
0.987835
0.987847
0.987865
0.987882
0.987905
0.987927
0.987953
0.987978
0.988006
0.988031
0.988059
0.988083
0.98811
0.988132
0.988155
0.988174
0.988193
0.988207
0.988221
0.98823
0.988239
0.988243
0.988246
0.988244
0.988242
0.988235
0.988228
0.988216
0.988206
0.98819
0.988177
0.98816
0.988145
0.988127
0.988113
0.988097
0.988085
0.988073
0.988065
0.988059
0.988058
0.988059
0.988066
0.988076
0.988093
0.988113
0.98814
0.98817
0.988209
0.98825
0.988299
0.988352
0.988411
0.988474
0.988543
0.988614
0.988692
0.988772
0.988857
0.988943
0.989034
0.989126
0.989222
0.989318
0.989417
0.989516
0.989616
0.989715
0.989816
0.989914
0.990012
0.990107
0.9902
0.990288
0.990373
0.990449
0.99052
0.990579
0.990626
0.990658
0.990671
0.990658
0.990616
0.990534
0.990404
0.990208
0.989928
0.989535
0.988991
0.988254
0.987248
0.985803
0.983741
0.98149
0.979448
0.977703
0.980454
0
0
0.99921
0.999287
0.997702
0.995765
0.993875
0.992026
0.990413
0.989034
0.987861
0.986869
0.986035
0.985333
0.984747
0.984258
0.983854
0.983522
0.983251
0.983034
0.982862
0.982729
0.982629
0.982557
0.982508
0.982479
0.982466
0.982467
0.982478
0.982499
0.982527
0.982562
0.982601
0.982645
0.982693
0.982743
0.982797
0.982853
0.982911
0.982973
0.983037
0.983103
0.983173
0.983245
0.983321
0.983399
0.983482
0.983567
0.983657
0.983749
0.983846
0.983945
0.984048
0.984154
0.984263
0.984375
0.984488
0.984603
0.984719
0.984836
0.984953
0.985069
0.985184
0.985297
0.985408
0.985515
0.985618
0.985717
0.98581
0.985898
0.98598
0.986056
0.986124
0.986185
0.986239
0.986285
0.986323
0.986353
0.986375
0.98639
0.986396
0.986394
0.986385
0.986369
0.986345
0.986315
0.986277
0.986234
0.986184
0.986129
0.986069
0.986004
0.985935
0.985861
0.985785
0.985704
0.985621
0.985535
0.985446
0.985355
0.985262
0.985167
0.98507
0.98497
0.984869
0.984766
0.984662
0.984556
0.984448
0.984339
0.984229
0.984118
0.984008
0.983897
0.983788
0.98368
0.983575
0.983473
0.983376
0.983284
0.983198
0.98312
0.983051
0.982991
0.982942
0.982904
0.982879
0.982867
0.98287
0.982886
0.982917
0.982964
0.983026
0.983102
0.983194
0.9833
0.98342
0.983553
0.983699
0.983855
0.984022
0.984197
0.984378
0.984565
0.984755
0.984946
0.985135
0.985322
0.985503
0.985677
0.985841
0.985993
0.986131
0.986254
0.98636
0.986448
0.986517
0.986567
0.986597
0.986607
0.986599
0.986574
0.986531
0.986474
0.986404
0.986323
0.986234
0.986137
0.986036
0.985932
0.985828
0.985725
0.985626
0.98553
0.98544
0.985355
0.985277
0.985206
0.985141
0.985083
0.98503
0.984983
0.98494
0.9849
0.984863
0.984827
0.984791
0.984754
0.984714
0.984672
0.984626
0.984575
0.984518
0.984454
0.984384
0.984306
0.98422
0.984127
0.984026
0.983918
0.983802
0.98368
0.983551
0.983417
0.983278
0.983135
0.982989
0.982841
0.982691
0.982541
0.982392
0.982244
0.982098
0.981955
0.981817
0.981682
0.981554
0.981431
0.981314
0.981205
0.981103
0.981009
0.980923
0.980845
0.980777
0.980718
0.980669
0.98063
0.980602
0.980583
0.980576
0.98058
0.980596
0.980623
0.980662
0.980714
0.980778
0.980854
0.980943
0.981045
0.981159
0.981286
0.981425
0.981576
0.981738
0.981912
0.982097
0.982291
0.982495
0.982707
0.982927
0.983154
0.983387
0.983624
0.983864
0.984107
0.984351
0.984595
0.984838
0.985079
0.985316
0.985548
0.985775
0.985995
0.986207
0.986411
0.986605
0.986789
0.986962
0.987125
0.987275
0.987413
0.987538
0.987652
0.987753
0.987841
0.987917
0.987982
0.988035
0.988077
0.988109
0.988132
0.988145
0.98815
0.988148
0.98814
0.988126
0.988108
0.988086
0.988062
0.988035
0.988008
0.98798
0.987953
0.987927
0.987903
0.987881
0.987863
0.987847
0.987835
0.987826
0.987822
0.98782
0.987824
0.987829
0.98784
0.987852
0.987869
0.987887
0.987909
0.987931
0.987956
0.98798
0.988007
0.988032
0.988059
0.988082
0.988108
0.988129
0.988152
0.98817
0.988189
0.988202
0.988216
0.988225
0.988234
0.988237
0.98824
0.988239
0.988237
0.98823
0.988224
0.988213
0.988203
0.988189
0.988176
0.98816
0.988147
0.98813
0.988117
0.988103
0.988092
0.988081
0.988075
0.988069
0.988069
0.98807
0.988078
0.988087
0.988104
0.988123
0.98815
0.988179
0.988216
0.988256
0.988303
0.988353
0.98841
0.98847
0.988537
0.988606
0.98868
0.988757
0.988839
0.988922
0.98901
0.989098
0.98919
0.989282
0.989377
0.989471
0.989567
0.989662
0.989757
0.98985
0.989942
0.99003
0.990116
0.990197
0.990272
0.99034
0.9904
0.990448
0.990483
0.990501
0.990499
0.990471
0.990412
0.990313
0.990164
0.989953
0.989663
0.989272
0.988751
0.988061
0.987171
0.986075
0.984725
0.983243
0.982454
0.982193
0.982899
0
0
0.995669
0.995892
0.995055
0.99394
0.992529
0.991104
0.989778
0.988578
0.987525
0.986615
0.985837
0.985175
0.984617
0.984149
0.983761
0.983442
0.983182
0.982974
0.98281
0.982683
0.98259
0.982523
0.98248
0.982456
0.982448
0.982453
0.98247
0.982495
0.982528
0.982566
0.98261
0.982658
0.982709
0.982763
0.98282
0.982879
0.982941
0.983005
0.983071
0.98314
0.983211
0.983285
0.983361
0.98344
0.983523
0.983608
0.983696
0.983788
0.983882
0.983979
0.984079
0.984182
0.984287
0.984394
0.984502
0.984612
0.984722
0.984833
0.984943
0.985053
0.985161
0.985267
0.98537
0.98547
0.985567
0.985659
0.985746
0.985828
0.985904
0.985974
0.986037
0.986094
0.986143
0.986186
0.986221
0.986248
0.986268
0.986281
0.986286
0.986284
0.986274
0.986258
0.986235
0.986205
0.986169
0.986127
0.986079
0.986026
0.985968
0.985906
0.985839
0.985768
0.985694
0.985616
0.985535
0.985452
0.985366
0.985277
0.985186
0.985093
0.984998
0.984901
0.984802
0.984701
0.984598
0.984493
0.984387
0.98428
0.984171
0.984062
0.983953
0.983844
0.983737
0.983631
0.983528
0.983428
0.983333
0.983244
0.983161
0.983086
0.98302
0.982963
0.982917
0.982883
0.982861
0.982853
0.982858
0.982877
0.982912
0.982961
0.983025
0.983103
0.983196
0.983303
0.983424
0.983557
0.983702
0.983857
0.984021
0.984194
0.984373
0.984556
0.984742
0.984928
0.985114
0.985296
0.985472
0.985641
0.985801
0.985949
0.986083
0.986203
0.986306
0.986391
0.986458
0.986507
0.986536
0.986547
0.986539
0.986514
0.986473
0.986418
0.98635
0.98627
0.986182
0.986088
0.985988
0.985886
0.985784
0.985682
0.985583
0.985488
0.985398
0.985313
0.985235
0.985164
0.985099
0.98504
0.984987
0.984939
0.984896
0.984856
0.984819
0.984783
0.984748
0.984712
0.984674
0.984634
0.98459
0.984541
0.984487
0.984427
0.98436
0.984286
0.984205
0.984117
0.984021
0.983917
0.983807
0.98369
0.983566
0.983437
0.983304
0.983166
0.983024
0.98288
0.982735
0.982589
0.982443
0.982299
0.982156
0.982017
0.981881
0.981749
0.981623
0.981502
0.981388
0.98128
0.98118
0.981088
0.981004
0.980929
0.980863
0.980806
0.980759
0.980722
0.980695
0.980679
0.980674
0.98068
0.980697
0.980726
0.980767
0.98082
0.980884
0.980961
0.981051
0.981152
0.981266
0.981392
0.981529
0.981678
0.981838
0.982009
0.98219
0.98238
0.98258
0.982787
0.983001
0.983222
0.983448
0.983678
0.983911
0.984147
0.984383
0.984619
0.984854
0.985086
0.985315
0.985539
0.985758
0.98597
0.986175
0.986371
0.986559
0.986737
0.986905
0.987062
0.987209
0.987343
0.987466
0.987578
0.987678
0.987766
0.987843
0.987908
0.987963
0.988007
0.988042
0.988068
0.988084
0.988094
0.988096
0.988092
0.988082
0.988069
0.988051
0.988031
0.988009
0.987986
0.987962
0.987939
0.987916
0.987895
0.987876
0.98786
0.987846
0.987836
0.987828
0.987826
0.987825
0.987829
0.987835
0.987846
0.987859
0.987875
0.987893
0.987914
0.987936
0.98796
0.987984
0.98801
0.988034
0.98806
0.988083
0.988107
0.988128
0.98815
0.988168
0.988185
0.988199
0.988212
0.98822
0.988229
0.988232
0.988235
0.988234
0.988232
0.988226
0.988221
0.988211
0.988202
0.988189
0.988177
0.988163
0.988151
0.988136
0.988125
0.988112
0.988103
0.988093
0.988088
0.988084
0.988085
0.988087
0.988095
0.988105
0.988121
0.98814
0.988165
0.988194
0.988229
0.988268
0.988313
0.988361
0.988416
0.988474
0.988537
0.988604
0.988675
0.988749
0.988828
0.988908
0.988992
0.989077
0.989166
0.989254
0.989345
0.989436
0.989528
0.989618
0.989709
0.989797
0.989884
0.989967
0.990047
0.990121
0.99019
0.990251
0.990303
0.990343
0.990369
0.990378
0.990367
0.990331
0.990264
0.990159
0.990008
0.9898
0.989522
0.989161
0.9887
0.988123
0.987412
0.98659
0.985755
0.984965
0.984479
0.984625
0.985146
0
0
0.993099
0.993237
0.992887
0.992167
0.991173
0.990104
0.989028
0.988014
0.987094
0.986279
0.985568
0.984957
0.984436
0.983997
0.983632
0.98333
0.983085
0.98289
0.982737
0.98262
0.982535
0.982476
0.982441
0.982423
0.982422
0.982433
0.982455
0.982486
0.982524
0.982568
0.982616
0.982668
0.982724
0.982782
0.982843
0.982905
0.98297
0.983037
0.983106
0.983177
0.98325
0.983325
0.983403
0.983483
0.983565
0.98365
0.983737
0.983827
0.983919
0.984014
0.98411
0.984209
0.984309
0.984411
0.984514
0.984618
0.984722
0.984825
0.984929
0.985031
0.985131
0.985229
0.985325
0.985417
0.985506
0.98559
0.98567
0.985744
0.985814
0.985877
0.985935
0.985986
0.98603
0.986068
0.9861
0.986124
0.986141
0.986152
0.986155
0.986152
0.986142
0.986126
0.986103
0.986074
0.98604
0.985999
0.985954
0.985903
0.985847
0.985787
0.985724
0.985656
0.985584
0.98551
0.985432
0.985352
0.985269
0.985183
0.985096
0.985005
0.984913
0.984818
0.984722
0.984623
0.984522
0.98442
0.984316
0.98421
0.984104
0.983997
0.98389
0.983783
0.983677
0.983574
0.983473
0.983376
0.983284
0.983197
0.983117
0.983045
0.982982
0.982929
0.982886
0.982855
0.982837
0.982832
0.982841
0.982864
0.982901
0.982953
0.983019
0.9831
0.983195
0.983303
0.983424
0.983557
0.983701
0.983856
0.984018
0.984188
0.984364
0.984544
0.984726
0.984908
0.985089
0.985266
0.985437
0.985601
0.985756
0.985899
0.986029
0.986144
0.986244
0.986326
0.986391
0.986438
0.986466
0.986476
0.986468
0.986444
0.986404
0.98635
0.986283
0.986205
0.986119
0.986026
0.985929
0.985828
0.985727
0.985627
0.985529
0.985434
0.985345
0.985261
0.985183
0.985112
0.985047
0.984988
0.984935
0.984888
0.984845
0.984806
0.984769
0.984735
0.984701
0.984666
0.984631
0.984593
0.984552
0.984506
0.984456
0.9844
0.984337
0.984268
0.984192
0.984109
0.984018
0.983921
0.983816
0.983705
0.983588
0.983465
0.983336
0.983204
0.983068
0.982929
0.982789
0.982647
0.982506
0.982365
0.982226
0.98209
0.981957
0.981828
0.981704
0.981586
0.981474
0.981368
0.98127
0.98118
0.981099
0.981025
0.980961
0.980907
0.980862
0.980827
0.980803
0.980789
0.980786
0.980794
0.980813
0.980844
0.980886
0.98094
0.981006
0.981084
0.981174
0.981275
0.981388
0.981513
0.981649
0.981796
0.981953
0.982121
0.982298
0.982484
0.982678
0.98288
0.983088
0.983302
0.983521
0.983743
0.983968
0.984195
0.984423
0.98465
0.984875
0.985098
0.985318
0.985533
0.985742
0.985946
0.986142
0.986331
0.986511
0.986682
0.986844
0.986996
0.987137
0.987268
0.987388
0.987497
0.987595
0.987682
0.987759
0.987826
0.987882
0.987928
0.987966
0.987995
0.988015
0.988029
0.988035
0.988036
0.988031
0.988023
0.98801
0.987995
0.987977
0.987959
0.987939
0.98792
0.987901
0.987884
0.987868
0.987855
0.987844
0.987836
0.987831
0.987829
0.98783
0.987835
0.987842
0.987853
0.987866
0.987883
0.9879
0.987921
0.987942
0.987966
0.987989
0.988014
0.988038
0.988062
0.988085
0.988108
0.988129
0.98815
0.988167
0.988184
0.988197
0.988209
0.988217
0.988225
0.988229
0.988232
0.988231
0.98823
0.988225
0.988219
0.988211
0.988203
0.988191
0.988181
0.988169
0.988158
0.988146
0.988136
0.988125
0.988118
0.98811
0.988106
0.988104
0.988105
0.988109
0.988117
0.988128
0.988144
0.988163
0.988188
0.988216
0.98825
0.988287
0.98833
0.988377
0.988429
0.988484
0.988545
0.988609
0.988678
0.988749
0.988824
0.988902
0.988983
0.989065
0.98915
0.989236
0.989324
0.989411
0.989499
0.989586
0.989673
0.989758
0.98984
0.989919
0.989995
0.990065
0.990129
0.990185
0.990231
0.990267
0.990288
0.990293
0.990279
0.99024
0.990172
0.990071
0.989928
0.989737
0.989489
0.989176
0.98879
0.988329
0.987803
0.987231
0.986686
0.986276
0.986047
0.986219
0.986779
0
0
0.991002
0.991186
0.991054
0.990585
0.989903
0.989096
0.988239
0.987399
0.986609
0.985892
0.985254
0.984698
0.98422
0.983815
0.983476
0.983196
0.982969
0.982789
0.982649
0.982544
0.982469
0.98242
0.982393
0.982383
0.982389
0.982407
0.982436
0.982473
0.982517
0.982566
0.982619
0.982677
0.982737
0.982799
0.982864
0.982931
0.982999
0.983069
0.98314
0.983214
0.983288
0.983365
0.983444
0.983524
0.983606
0.98369
0.983777
0.983865
0.983954
0.984046
0.984139
0.984233
0.984329
0.984425
0.984522
0.984619
0.984716
0.984812
0.984907
0.985001
0.985093
0.985183
0.98527
0.985353
0.985433
0.985509
0.985581
0.985648
0.98571
0.985766
0.985817
0.985862
0.985901
0.985934
0.985961
0.985982
0.985996
0.986004
0.986005
0.986001
0.98599
0.985974
0.985951
0.985923
0.98589
0.985851
0.985807
0.985759
0.985706
0.98565
0.985589
0.985524
0.985457
0.985386
0.985312
0.985235
0.985156
0.985074
0.98499
0.984903
0.984814
0.984723
0.984629
0.984533
0.984435
0.984336
0.984234
0.984131
0.984027
0.983922
0.983818
0.983713
0.98361
0.983509
0.983411
0.983316
0.983227
0.983143
0.983066
0.982998
0.982938
0.982888
0.982849
0.982822
0.982808
0.982806
0.982819
0.982845
0.982886
0.98294
0.98301
0.983093
0.983189
0.983299
0.983421
0.983554
0.983698
0.983851
0.984012
0.984179
0.984352
0.984528
0.984706
0.984884
0.98506
0.985231
0.985398
0.985556
0.985705
0.985843
0.985968
0.986079
0.986175
0.986254
0.986316
0.98636
0.986386
0.986395
0.986387
0.986363
0.986323
0.98627
0.986205
0.986129
0.986044
0.985953
0.985857
0.985759
0.985659
0.98556
0.985463
0.98537
0.985281
0.985198
0.985121
0.98505
0.984986
0.984928
0.984875
0.984829
0.984787
0.984749
0.984714
0.984681
0.984649
0.984617
0.984584
0.984549
0.984512
0.98447
0.984424
0.984373
0.984315
0.984252
0.984182
0.984105
0.98402
0.983929
0.983831
0.983726
0.983616
0.983499
0.983377
0.983251
0.983121
0.982988
0.982852
0.982716
0.982579
0.982442
0.982307
0.982174
0.982045
0.981919
0.981798
0.981682
0.981573
0.98147
0.981374
0.981286
0.981206
0.981136
0.981074
0.981021
0.980979
0.980946
0.980924
0.980912
0.980911
0.980922
0.980943
0.980975
0.981019
0.981075
0.981142
0.98122
0.98131
0.981411
0.981524
0.981648
0.981782
0.981927
0.982081
0.982245
0.982418
0.9826
0.982789
0.982984
0.983186
0.983393
0.983604
0.983818
0.984034
0.984252
0.98447
0.984687
0.984903
0.985115
0.985325
0.98553
0.985729
0.985923
0.98611
0.98629
0.986462
0.986625
0.98678
0.986925
0.987061
0.987187
0.987303
0.987409
0.987505
0.987592
0.987668
0.987735
0.987793
0.987842
0.987882
0.987914
0.987938
0.987956
0.987967
0.987973
0.987973
0.98797
0.987962
0.987953
0.98794
0.987927
0.987912
0.987898
0.987883
0.98787
0.987858
0.987848
0.98784
0.987835
0.987832
0.987832
0.987835
0.987841
0.987849
0.987861
0.987874
0.987891
0.987909
0.987929
0.98795
0.987973
0.987996
0.98802
0.988043
0.988067
0.988089
0.988111
0.988131
0.988151
0.988167
0.988184
0.988196
0.988208
0.988216
0.988224
0.988228
0.988231
0.98823
0.988229
0.988225
0.988221
0.988213
0.988206
0.988197
0.988188
0.988178
0.988169
0.988159
0.988151
0.988142
0.988137
0.988131
0.988129
0.988128
0.988131
0.988136
0.988145
0.988157
0.988173
0.988192
0.988217
0.988244
0.988277
0.988313
0.988355
0.988399
0.98845
0.988503
0.988562
0.988623
0.988689
0.988758
0.98883
0.988905
0.988983
0.989063
0.989145
0.989228
0.989313
0.989398
0.989483
0.989567
0.989651
0.989733
0.989813
0.989889
0.989962
0.990029
0.99009
0.990143
0.990187
0.99022
0.990241
0.990245
0.990231
0.990195
0.990134
0.990042
0.989916
0.98975
0.989539
0.989281
0.988973
0.988621
0.988239
0.987857
0.987514
0.987287
0.987232
0.98741
0.987889
0
0
0.989287
0.989526
0.989498
0.989213
0.988741
0.988134
0.98746
0.986771
0.986102
0.985479
0.984915
0.984416
0.983983
0.983614
0.983304
0.983048
0.982841
0.982678
0.982552
0.98246
0.982397
0.982357
0.982339
0.982338
0.982352
0.982378
0.982413
0.982456
0.982506
0.982561
0.98262
0.982683
0.982748
0.982815
0.982884
0.982954
0.983026
0.983099
0.983173
0.983248
0.983325
0.983403
0.983482
0.983563
0.983645
0.983728
0.983813
0.983899
0.983986
0.984074
0.984163
0.984253
0.984343
0.984433
0.984524
0.984614
0.984703
0.984791
0.984878
0.984964
0.985047