# vtk DataFile Version 2.0
LBE mesh
ASCII
DATASET STRUCTURED_POINTS
DIMENSIONS 402 102 1
ASPECT_RATIO 1 1 1
ORIGIN 0 0 0
POINT_DATA 41004
SCALARS rho double 1
LOOKUP_TABLE default
0
0
0
0
0
0
0
0
0
0
0
0
0
0
0
0
0
0
0
0
0
0
0
0
0
0
0
0
0
0
0
0
0
0
0
0
0
0
0
0
0
0
0
0
0
0
0
0
0
0
0
0
0
0
0
0
0
0
0
0
0
0
0
0
0
0
0
0
0
0
0
0
0
0
0
0
0
0
0
0
0
0
0
0
0
0
0
0
0
0
0
0
0
0
0
0
0
0
0
0
0
0
0
0
0
0
0
0
0
0
0
0
0
0
0
0
0
0
0
0
0
0
0
0
0
0
0
0
0
0
0
0
0
0
0
0
0
0
0
0
0
0
0
0
0
0
0
0
0
0
0
0
0
0
0
0
0
0
0
0
0
0
0
0
0
0
0
0
0
0
0
0
0
0
0
0
0
0
0
0
0
0
0
0
0
0
0
0
0
0
0
0
0
0
0
0
0
0
0
0
0
0
0
0
0
0
0
0
0
0
0
0
0
0
0
0
0
0
0
0
0
0
0
0
0
0
0
0
0
0
0
0
0
0
0
0
0
0
0
0
0
0
0
0
0
0
0
0
0
0
0
0
0
0
0
0
0
0
0
0
0
0
0
0
0
0
0
0
0
0
0
0
0
0
0
0
0
0
0
0
0
0
0
0
0
0
0
0
0
0
0
0
0
0
0
0
0
0
0
0
0
0
0
0
0
0
0
0
0
0
0
0
0
0
0
0
0
0
0
0
0
0
0
0
0
0
0
0
0
0
0
0
0
0
0
0
0
0
0
0
0
0
0
0
0
0
0
0
0
0
0
0
0
0
0
0
0
0
0
0
0
0
0
0
0
0
0
0
0
0
0
0
0
0
0
0
0
0
0
0
0
0
0
0
0
0
0
0
0
0
0
0
0
0
0
0
0
0
0
0
0
0
0
0.886024
0.95004
0.937921
0.930388
0.926905
0.92464
0.922785
0.921257
0.91999
0.918908
0.917963
0.917124
0.916369
0.915684
0.915056
0.914478
0.913941
0.91344
0.912971
0.91253
0.912114
0.91172
0.911347
0.910993
0.910656
0.910334
0.910027
0.909734
0.909453
0.909184
0.908926
0.908679
0.908442
0.908214
0.907995
0.907785
0.907583
0.907388
0.907202
0.907022
0.906849
0.906682
0.906522
0.906368
0.906219
0.906076
0.905938
0.905804
0.905676
0.905552
0.905432
0.905317
0.905205
0.905097
0.904992
0.904891
0.904792
0.904696
0.904603
0.904513
0.904425
0.904338
0.904254
0.904172
0.904092
0.904013
0.903935
0.903859
0.903785
0.903711
0.903639
0.903568
0.903499
0.90343
0.903363
0.903297
0.903233
0.903171
0.90311
0.903051
0.902994
0.902939
0.902887
0.902837
0.902791
0.902748
0.902708
0.902671
0.902639
0.902611
0.902586
0.902567
0.902551
0.902541
0.902535
0.902534
0.902537
0.902546
0.902558
0.902575
0.902597
0.902622
0.902651
0.902684
0.902719
0.902758
0.902799
0.902842
0.902886
0.902933
0.90298
0.903028
0.903077
0.903126
0.903174
0.903223
0.903271
0.903318
0.903364
0.903409
0.903453
0.903496
0.903538
0.903578
0.903617
0.903654
0.90369
0.903725
0.903758
0.90379
0.903821
0.90385
0.903879
0.903906
0.903932
0.903957
0.903982
0.904006
0.904029
0.904051
0.904073
0.904094
0.904115
0.904135
0.904155
0.904175
0.904194
0.904213
0.904233
0.904252
0.904271
0.90429
0.904309
0.904328
0.904347
0.904366
0.904385
0.904404
0.904424
0.904443
0.904463
0.904483
0.904503
0.904523
0.904543
0.904564
0.904584
0.904605
0.904626
0.904647
0.904668
0.904689
0.904711
0.904732
0.904754
0.904775
0.904797
0.904818
0.90484
0.904861
0.904883
0.904905
0.904926
0.904948
0.90497
0.904991
0.905013
0.905034
0.905055
0.905077
0.905098
0.905119
0.90514
0.905161
0.905183
0.905204
0.905225
0.905246
0.905266
0.905287
0.905308
0.905329
0.90535
0.905371
0.905392
0.905414
0.905435
0.905456
0.905478
0.905499
0.905521
0.905543
0.905565
0.905587
0.90561
0.905632
0.905655
0.905678
0.905702
0.905726
0.90575
0.905774
0.905799
0.905824
0.905849
0.905875
0.905901
0.905927
0.905954
0.905981
0.906008
0.906036
0.906064
0.906092
0.906121
0.90615
0.906179
0.906209
0.906239
0.906269
0.9063
0.90633
0.906361
0.906393
0.906424
0.906455
0.906487
0.906519
0.906551
0.906583
0.906615
0.906647
0.90668
0.906712
0.906744
0.906776
0.906808
0.90684
0.906872
0.906903
0.906935
0.906966
0.906997
0.907028
0.907058
0.907089
0.907119
0.907148
0.907177
0.907206
0.907235
0.907263
0.907291
0.907319
0.907346
0.907372
0.907399
0.907424
0.90745
0.907475
0.9075
0.907524
0.907548
0.907571
0.907594
0.907617
0.907639
0.907662
0.907683
0.907705
0.907726
0.907747
0.907768
0.907789
0.90781
0.90783
0.90785
0.907871
0.907891
0.907912
0.907932
0.907953
0.907974
0.907995
0.908016
0.908038
0.90806
0.908083
0.908106
0.90813
0.908154
0.90818
0.908205
0.908232
0.90826
0.908289
0.908318
0.908349
0.908381
0.908414
0.908449
0.908485
0.908523
0.908562
0.908603
0.908646
0.90869
0.908737
0.908785
0.908836
0.908888
0.908943
0.909
0.90906
0.909122
0.909186
0.909252
0.909321
0.909393
0.909467
0.909543
0.909622
0.909703
0.909787
0.909873
0.909961
0.91005
0.910142
0.910236
0.91033
0.910427
0.910524
0.910622
0.91072
0.910818
0.910916
0.911013
0.911109
0.911204
0.911296
0.911386
0.911472
0.911555
0.911634
0.911707
0.911775
0.911837
0.911893
0.911941
0.911981
0.912012
0.912035
0.912047
0.91205
0.912041
0.912022
0.911991
0.911947
0.911891
0.911822
0.91174
0.911644
0.911533
0.911407
0.911265
0.911105
0.910925
0.910723
0.910492
0.910225
0.909912
0.909538
0.909052
0.908336
0.907278
0.906133
0.905447
0.901663
0.869559
0.774955
0
0
0.950901
0.943817
0.936241
0.931933
0.928233
0.925473
0.923412
0.921778
0.920419
0.919261
0.918257
0.917373
0.916584
0.915871
0.915221
0.914623
0.914071
0.913558
0.913078
0.912628
0.912204
0.911804
0.911425
0.911065
0.910723
0.910398
0.910087
0.90979
0.909506
0.909234
0.908974
0.908724
0.908485
0.908255
0.908034
0.907822
0.907618
0.907422
0.907234
0.907053
0.906878
0.906711
0.906549
0.906394
0.906244
0.906099
0.90596
0.905826
0.905697
0.905572
0.905452
0.905335
0.905223
0.905114
0.905009
0.904906
0.904807
0.904711
0.904618
0.904527
0.904438
0.904352
0.904268
0.904185
0.904104
0.904025
0.903948
0.903872
0.903797
0.903724
0.903652
0.903581
0.903512
0.903444
0.903377
0.903311
0.903247
0.903185
0.903124
0.903065
0.903008
0.902954
0.902901
0.902852
0.902805
0.902762
0.902722
0.902685
0.902652
0.902623
0.902598
0.902578
0.902562
0.902551
0.902544
0.902542
0.902544
0.902552
0.902563
0.902579
0.9026
0.902624
0.902652
0.902683
0.902718
0.902755
0.902796
0.902838
0.902882
0.902928
0.902975
0.903022
0.90307
0.903119
0.903167
0.903216
0.903264
0.903311
0.903357
0.903402
0.903446
0.903489
0.903531
0.903571
0.90361
0.903648
0.903684
0.903719
0.903753
0.903785
0.903816
0.903846
0.903874
0.903902
0.903928
0.903954
0.903979
0.904003
0.904026
0.904048
0.90407
0.904092
0.904113
0.904133
0.904153
0.904173
0.904193
0.904212
0.904232
0.904251
0.90427
0.904289
0.904308
0.904327
0.904346
0.904365
0.904385
0.904404
0.904423
0.904443
0.904463
0.904483
0.904503
0.904523
0.904543
0.904564
0.904584
0.904605
0.904626
0.904647
0.904668
0.904689
0.904711
0.904732
0.904754
0.904775
0.904797
0.904818
0.90484
0.904862
0.904883
0.904905
0.904927
0.904948
0.90497
0.904991
0.905013
0.905034
0.905056
0.905077
0.905098
0.90512
0.905141
0.905162
0.905183
0.905204
0.905225
0.905246
0.905267
0.905288
0.905309
0.90533
0.905351
0.905372
0.905393
0.905414
0.905435
0.905457
0.905478
0.9055
0.905521
0.905543
0.905565
0.905588
0.90561
0.905633
0.905656
0.905679
0.905702
0.905726
0.90575
0.905774
0.905799
0.905824
0.905849
0.905875
0.905901
0.905927
0.905953
0.90598
0.906008
0.906035
0.906063
0.906091
0.90612
0.906149
0.906178
0.906208
0.906238
0.906268
0.906298
0.906329
0.90636
0.906391
0.906422
0.906454
0.906485
0.906517
0.906549
0.906581
0.906613
0.906645
0.906677
0.906709
0.906741
0.906773
0.906805
0.906837
0.906869
0.9069
0.906931
0.906963
0.906994
0.907024
0.907055
0.907085
0.907115
0.907144
0.907174
0.907203
0.907231
0.907259
0.907287
0.907315
0.907342
0.907368
0.907395
0.907421
0.907446
0.907471
0.907496
0.90752
0.907544
0.907567
0.90759
0.907613
0.907636
0.907658
0.90768
0.907701
0.907723
0.907744
0.907765
0.907785
0.907806
0.907826
0.907847
0.907867
0.907888
0.907908
0.907929
0.907949
0.90797
0.907991
0.908013
0.908034
0.908057
0.908079
0.908102
0.908126
0.90815
0.908175
0.908201
0.908227
0.908255
0.908283
0.908313
0.908343
0.908375
0.908408
0.908442
0.908478
0.908515
0.908554
0.908594
0.908636
0.90868
0.908726
0.908774
0.908824
0.908875
0.908929
0.908986
0.909044
0.909105
0.909168
0.909233
0.909301
0.909371
0.909443
0.909518
0.909595
0.909675
0.909757
0.90984
0.909926
0.910014
0.910104
0.910195
0.910287
0.910381
0.910476
0.910571
0.910666
0.910762
0.910857
0.910951
0.911045
0.911136
0.911225
0.911312
0.911395
0.911475
0.91155
0.91162
0.911685
0.911743
0.911795
0.911839
0.911875
0.911902
0.91192
0.911928
0.911926
0.911912
0.911886
0.911848
0.911797
0.911733
0.911654
0.91156
0.911449
0.911322
0.911176
0.911009
0.910819
0.910602
0.910352
0.910061
0.909717
0.909296
0.908764
0.908075
0.907189
0.905971
0.903761
0.89883
0.890679
0.882991
0.871697
0
0
0.947347
0.938569
0.935431
0.931648
0.928225
0.92568
0.923675
0.922023
0.920637
0.919456
0.918431
0.917527
0.91672
0.915993
0.91533
0.914723
0.914162
0.91364
0.913154
0.912698
0.91227
0.911865
0.911482
0.911119
0.910774
0.910445
0.910132
0.909832
0.909546
0.909273
0.90901
0.908759
0.908518
0.908286
0.908064
0.907851
0.907646
0.907448
0.907259
0.907076
0.906901
0.906732
0.90657
0.906413
0.906263
0.906118
0.905978
0.905843
0.905713
0.905588
0.905467
0.90535
0.905237
0.905128
0.905022
0.904919
0.90482
0.904724
0.90463
0.904539
0.90445
0.904364
0.904279
0.904197
0.904116
0.904037
0.90396
0.903884
0.903809
0.903736
0.903664
0.903593
0.903524
0.903456
0.903389
0.903324
0.90326
0.903197
0.903137
0.903078
0.903021
0.902966
0.902914
0.902864
0.902817
0.902773
0.902732
0.902695
0.902661
0.902632
0.902606
0.902585
0.902568
0.902556
0.902548
0.902545
0.902547
0.902553
0.902564
0.902579
0.902598
0.902622
0.902649
0.90268
0.902714
0.902751
0.90279
0.902832
0.902876
0.902921
0.902968
0.903016
0.903064
0.903112
0.903161
0.903209
0.903257
0.903304
0.903351
0.903396
0.903441
0.903484
0.903526
0.903566
0.903606
0.903643
0.90368
0.903715
0.903749
0.903781
0.903813
0.903843
0.903872
0.903899
0.903926
0.903952
0.903977
0.904001
0.904025
0.904047
0.904069
0.904091
0.904112
0.904133
0.904153
0.904173
0.904193
0.904212
0.904231
0.904251
0.90427
0.904289
0.904308
0.904327
0.904346
0.904366
0.904385
0.904404
0.904424
0.904444
0.904463
0.904483
0.904503
0.904524
0.904544
0.904564
0.904585
0.904606
0.904627
0.904648
0.904669
0.90469
0.904712
0.904733
0.904754
0.904776
0.904798
0.904819
0.904841
0.904862
0.904884
0.904906
0.904928
0.904949
0.904971
0.904992
0.905014
0.905035
0.905057
0.905078
0.905099
0.905121
0.905142
0.905163
0.905184
0.905205
0.905226
0.905247
0.905268
0.905289
0.90531
0.905331
0.905352
0.905373
0.905394
0.905415
0.905437
0.905458
0.905479
0.905501
0.905523
0.905544
0.905566
0.905589
0.905611
0.905634
0.905657
0.90568
0.905703
0.905727
0.905751
0.905775
0.9058
0.905824
0.90585
0.905875
0.905901
0.905927
0.905954
0.90598
0.906008
0.906035
0.906063
0.906091
0.90612
0.906149
0.906178
0.906207
0.906237
0.906267
0.906297
0.906328
0.906359
0.906389
0.906421
0.906452
0.906484
0.906515
0.906547
0.906579
0.906611
0.906643
0.906675
0.906707
0.906739
0.906771
0.906802
0.906834
0.906866
0.906897
0.906929
0.90696
0.906991
0.907021
0.907052
0.907082
0.907112
0.907141
0.90717
0.907199
0.907228
0.907256
0.907284
0.907311
0.907338
0.907365
0.907391
0.907417
0.907442
0.907467
0.907492
0.907516
0.90754
0.907564
0.907587
0.90761
0.907632
0.907654
0.907676
0.907698
0.907719
0.90774
0.907761
0.907782
0.907803
0.907823
0.907843
0.907864
0.907884
0.907905
0.907925
0.907946
0.907967
0.907988
0.908009
0.908031
0.908053
0.908075
0.908098
0.908122
0.908146
0.90817
0.908196
0.908222
0.908249
0.908278
0.908307
0.908337
0.908368
0.908401
0.908435
0.90847
0.908507
0.908545
0.908585
0.908626
0.908669
0.908714
0.908761
0.90881
0.908861
0.908914
0.908969
0.909026
0.909086
0.909148
0.909212
0.909278
0.909347
0.909418
0.909491
0.909567
0.909644
0.909724
0.909806
0.90989
0.909976
0.910064
0.910153
0.910243
0.910335
0.910427
0.91052
0.910613
0.910706
0.910799
0.910891
0.910981
0.91107
0.911157
0.911241
0.911321
0.911398
0.91147
0.911538
0.9116
0.911655
0.911703
0.911744
0.911777
0.911801
0.911815
0.911819
0.911812
0.911793
0.911762
0.911718
0.911659
0.911587
0.911498
0.911393
0.91127
0.911128
0.910963
0.910775
0.910559
0.910309
0.91002
0.909679
0.909272
0.908779
0.908163
0.90736
0.906255
0.904728
0.902689
0.899479
0.893452
0.889943
0.895338
0
0
0.937627
0.935264
0.933229
0.930116
0.927615
0.925445
0.923577
0.922003
0.920663
0.919504
0.918488
0.917587
0.91678
0.916051
0.915386
0.914776
0.914212
0.913688
0.913199
0.912741
0.91231
0.911904
0.911519
0.911154
0.910807
0.910477
0.910162
0.909861
0.909574
0.909298
0.909035
0.908782
0.90854
0.908308
0.908085
0.90787
0.907664
0.907466
0.907276
0.907093
0.906917
0.906747
0.906584
0.906427
0.906276
0.906131
0.90599
0.905855
0.905725
0.905599
0.905478
0.90536
0.905247
0.905138
0.905032
0.904929
0.90483
0.904733
0.90464
0.904548
0.90446
0.904373
0.904289
0.904207
0.904126
0.904047
0.90397
0.903894
0.90382
0.903747
0.903675
0.903604
0.903535
0.903467
0.9034
0.903335
0.903271
0.903209
0.903148
0.903089
0.903031
0.902976
0.902923
0.902873
0.902826
0.902781
0.90274
0.902702
0.902667
0.902637
0.90261
0.902588
0.90257
0.902557
0.902548
0.902544
0.902545
0.90255
0.90256
0.902575
0.902593
0.902616
0.902643
0.902673
0.902707
0.902744
0.902783
0.902825
0.902869
0.902914
0.902961
0.903008
0.903057
0.903105
0.903154
0.903203
0.903251
0.903299
0.903345
0.903391
0.903436
0.90348
0.903522
0.903563
0.903602
0.903641
0.903677
0.903713
0.903747
0.90378
0.903811
0.903841
0.90387
0.903898
0.903925
0.903951
0.903977
0.904001
0.904024
0.904047
0.904069
0.904091
0.904112
0.904133
0.904153
0.904173
0.904193
0.904213
0.904232
0.904252
0.904271
0.90429
0.904309
0.904328
0.904347
0.904367
0.904386
0.904405
0.904425
0.904445
0.904465
0.904484
0.904505
0.904525
0.904545
0.904566
0.904586
0.904607
0.904628
0.904649
0.90467
0.904691
0.904713
0.904734
0.904756
0.904777
0.904799
0.90482
0.904842
0.904864
0.904885
0.904907
0.904929
0.90495
0.904972
0.904994
0.905015
0.905037
0.905058
0.905079
0.905101
0.905122
0.905143
0.905164
0.905186
0.905207
0.905228
0.905249
0.90527
0.905291
0.905312
0.905333
0.905354
0.905375
0.905396
0.905417
0.905438
0.905459
0.905481
0.905502
0.905524
0.905546
0.905568
0.90559
0.905613
0.905635
0.905658
0.905681
0.905705
0.905728
0.905752
0.905776
0.905801
0.905825
0.905851
0.905876
0.905902
0.905928
0.905954
0.905981
0.906008
0.906036
0.906063
0.906091
0.90612
0.906149
0.906178
0.906207
0.906237
0.906267
0.906297
0.906327
0.906358
0.906389
0.90642
0.906451
0.906482
0.906514
0.906546
0.906577
0.906609
0.906641
0.906673
0.906705
0.906737
0.906768
0.9068
0.906832
0.906863
0.906895
0.906926
0.906957
0.906988
0.907018
0.907049
0.907079
0.907109
0.907138
0.907167
0.907196
0.907225
0.907253
0.907281
0.907308
0.907335
0.907362
0.907388
0.907414
0.907439
0.907464
0.907489
0.907513
0.907537
0.907561
0.907584
0.907607
0.907629
0.907651
0.907673
0.907695
0.907716
0.907737
0.907758
0.907779
0.9078
0.90782
0.90784
0.907861
0.907881
0.907902
0.907922
0.907943
0.907963
0.907984
0.908006
0.908027
0.908049
0.908071
0.908094
0.908117
0.908141
0.908166
0.908191
0.908217
0.908244
0.908272
0.9083
0.90833
0.908361
0.908393
0.908427
0.908461
0.908497
0.908535
0.908574
0.908615
0.908657
0.908701
0.908747
0.908795
0.908845
0.908897
0.908951
0.909007
0.909066
0.909126
0.909189
0.909254
0.909321
0.909391
0.909462
0.909536
0.909613
0.909691
0.909771
0.909853
0.909937
0.910023
0.91011
0.910198
0.910288
0.910378
0.910469
0.91056
0.910651
0.910742
0.910831
0.91092
0.911006
0.911091
0.911172
0.911251
0.911325
0.911395
0.91146
0.91152
0.911573
0.911618
0.911657
0.911686
0.911707
0.911718
0.911718
0.911707
0.911684
0.911648
0.911598
0.911534
0.911454
0.911358
0.911243
0.91111
0.910954
0.910776
0.91057
0.910334
0.910061
0.909745
0.909374
0.908935
0.908403
0.907751
0.90694
0.90591
0.904506
0.902568
0.900487
0.898619
0.897032
0.899571
0
0
0.931818
0.93182
0.930286
0.928424
0.926596
0.924788
0.923177
0.921761
0.920513
0.919411
0.918431
0.917555
0.916764
0.916045
0.915388
0.914782
0.914222
0.9137
0.913213
0.912756
0.912326
0.911919
0.911534
0.911169
0.910822
0.910492
0.910176
0.909875
0.909587
0.909312
0.909048
0.908795
0.908552
0.908319
0.908096
0.907881
0.907674
0.907476
0.907285
0.907102
0.906925
0.906756
0.906592
0.906435
0.906284
0.906138
0.905997
0.905862
0.905732
0.905606
0.905484
0.905367
0.905254
0.905144
0.905039
0.904936
0.904837
0.90474
0.904647
0.904556
0.904467
0.904381
0.904297
0.904215
0.904135
0.904056
0.903979
0.903903
0.903829
0.903756
0.903685
0.903614
0.903545
0.903477
0.903411
0.903345
0.903281
0.903218
0.903157
0.903098
0.90304
0.902984
0.902931
0.90288
0.902832
0.902786
0.902744
0.902705
0.902669
0.902638
0.90261
0.902587
0.902568
0.902554
0.902544
0.902539
0.902539
0.902543
0.902553
0.902566
0.902585
0.902607
0.902634
0.902664
0.902697
0.902734
0.902774
0.902816
0.90286
0.902905
0.902952
0.903001
0.903049
0.903099
0.903148
0.903197
0.903246
0.903294
0.903341
0.903387
0.903433
0.903477
0.903519
0.903561
0.903601
0.903639
0.903676
0.903712
0.903746
0.903779
0.903811
0.903841
0.903871
0.903899
0.903926
0.903952
0.903977
0.904002
0.904025
0.904048
0.904071
0.904092
0.904114
0.904134
0.904155
0.904175
0.904195
0.904214
0.904234
0.904253
0.904273
0.904292
0.904311
0.90433
0.904349
0.904369
0.904388
0.904407
0.904427
0.904447
0.904466
0.904486
0.904506
0.904527
0.904547
0.904567
0.904588
0.904609
0.90463
0.904651
0.904672
0.904693
0.904715
0.904736
0.904757
0.904779
0.904801
0.904822
0.904844
0.904865
0.904887
0.904909
0.904931
0.904952
0.904974
0.904995
0.905017
0.905038
0.90506
0.905081
0.905103
0.905124
0.905145
0.905166
0.905188
0.905209
0.90523
0.905251
0.905272
0.905293
0.905314
0.905335
0.905356
0.905377
0.905398
0.905419
0.90544
0.905462
0.905483
0.905505
0.905526
0.905548
0.90557
0.905592
0.905615
0.905637
0.90566
0.905683
0.905706
0.90573
0.905754
0.905778
0.905802
0.905827
0.905852
0.905877
0.905903
0.905929
0.905955
0.905982
0.906009
0.906036
0.906064
0.906092
0.906121
0.906149
0.906178
0.906207
0.906237
0.906267
0.906297
0.906327
0.906358
0.906388
0.906419
0.90645
0.906482
0.906513
0.906545
0.906576
0.906608
0.90664
0.906671
0.906703
0.906735
0.906767
0.906798
0.90683
0.906861
0.906893
0.906924
0.906955
0.906986
0.907016
0.907046
0.907076
0.907106
0.907136
0.907165
0.907194
0.907222
0.90725
0.907278
0.907305
0.907332
0.907359
0.907385
0.907411
0.907437
0.907462
0.907486
0.907511
0.907535
0.907558
0.907581
0.907604
0.907627
0.907649
0.907671
0.907692
0.907714
0.907735
0.907756
0.907776
0.907797
0.907817
0.907838
0.907858
0.907878
0.907899
0.907919
0.90794
0.90796
0.907981
0.908002
0.908024
0.908045
0.908067
0.90809
0.908113
0.908137
0.908161
0.908186
0.908212
0.908238
0.908266
0.908294
0.908323
0.908354
0.908385
0.908418
0.908452
0.908487
0.908524
0.908563
0.908603
0.908644
0.908687
0.908733
0.90878
0.908828
0.908879
0.908932
0.908987
0.909044
0.909103
0.909165
0.909228
0.909294
0.909362
0.909432
0.909505
0.909579
0.909656
0.909735
0.909815
0.909897
0.909981
0.910066
0.910153
0.910241
0.910329
0.910418
0.910507
0.910597
0.910685
0.910773
0.91086
0.910944
0.911027
0.911107
0.911183
0.911256
0.911324
0.911387
0.911444
0.911495
0.911539
0.911575
0.911602
0.91162
0.911628
0.911626
0.911611
0.911585
0.911545
0.91149
0.911421
0.911335
0.911232
0.911111
0.910968
0.910804
0.910615
0.910398
0.91015
0.909865
0.909536
0.909155
0.90871
0.908185
0.907558
0.906797
0.905878
0.904799
0.903518
0.902142
0.90142
0.901191
0.901858
0
0
0.92849
0.928612
0.927768
0.926676
0.925305
0.923906
0.922576
0.92134
0.920214
0.919195
0.918274
0.917438
0.916676
0.915979
0.915337
0.914744
0.914192
0.913678
0.913196
0.912743
0.912316
0.911912
0.911529
0.911166
0.91082
0.91049
0.910176
0.909875
0.909588
0.909313
0.909049
0.908796
0.908554
0.908321
0.908097
0.907882
0.907676
0.907478
0.907287
0.907104
0.906927
0.906757
0.906594
0.906437
0.906285
0.90614
0.905999
0.905864
0.905734
0.905608
0.905487
0.90537
0.905257
0.905148
0.905042
0.90494
0.904841
0.904745
0.904651
0.904561
0.904473
0.904387
0.904303
0.904221
0.904141
0.904063
0.903987
0.903911
0.903837
0.903765
0.903694
0.903623
0.903554
0.903486
0.90342
0.903354
0.90329
0.903227
0.903165
0.903105
0.903047
0.90299
0.902936
0.902884
0.902835
0.902788
0.902745
0.902704
0.902668
0.902635
0.902606
0.902582
0.902562
0.902546
0.902535
0.902529
0.902528
0.902532
0.902541
0.902554
0.902572
0.902594
0.902621
0.902651
0.902685
0.902722
0.902762
0.902804
0.902849
0.902896
0.902943
0.902992
0.903042
0.903092
0.903142
0.903192
0.903241
0.90329
0.903338
0.903385
0.903431
0.903475
0.903518
0.90356
0.9036
0.903639
0.903677
0.903713
0.903747
0.90378
0.903812
0.903843
0.903872
0.903901
0.903928
0.903954
0.903979
0.904004
0.904028
0.904051
0.904073
0.904095
0.904116
0.904137
0.904157
0.904177
0.904197
0.904217
0.904237
0.904256
0.904275
0.904294
0.904313
0.904333
0.904352
0.904371
0.90439
0.90441
0.904429
0.904449
0.904469
0.904489
0.904509
0.904529
0.904549
0.90457
0.904591
0.904611
0.904632
0.904653
0.904674
0.904695
0.904717
0.904738
0.90476
0.904781
0.904803
0.904824
0.904846
0.904868
0.904889
0.904911
0.904933
0.904954
0.904976
0.904998
0.905019
0.905041
0.905062
0.905084
0.905105
0.905126
0.905148
0.905169
0.90519
0.905211
0.905232
0.905253
0.905274
0.905295
0.905316
0.905337
0.905358
0.905379
0.9054
0.905422
0.905443
0.905464
0.905486
0.905507
0.905529
0.905551
0.905573
0.905595
0.905617
0.90564
0.905662
0.905685
0.905709
0.905732
0.905756
0.90578
0.905804
0.905829
0.905854
0.905879
0.905905
0.905931
0.905957
0.905984
0.906011
0.906038
0.906065
0.906093
0.906122
0.90615
0.906179
0.906208
0.906238
0.906267
0.906297
0.906327
0.906358
0.906388
0.906419
0.90645
0.906481
0.906513
0.906544
0.906576
0.906607
0.906639
0.90667
0.906702
0.906734
0.906765
0.906797
0.906828
0.90686
0.906891
0.906922
0.906953
0.906984
0.907014
0.907044
0.907074
0.907104
0.907134
0.907163
0.907191
0.90722
0.907248
0.907276
0.907303
0.90733
0.907357
0.907383
0.907409
0.907434
0.907459
0.907484
0.907508
0.907532
0.907556
0.907579
0.907602
0.907624
0.907646
0.907668
0.90769
0.907711
0.907732
0.907753
0.907774
0.907795
0.907815
0.907835
0.907856
0.907876
0.907896
0.907917
0.907937
0.907958
0.907978
0.907999
0.90802
0.908042
0.908064
0.908086
0.908109
0.908132
0.908156
0.908181
0.908206
0.908232
0.908259
0.908287
0.908316
0.908346
0.908377
0.908409
0.908442
0.908477
0.908513
0.908551
0.90859
0.90863
0.908673
0.908717
0.908763
0.908811
0.90886
0.908912
0.908966
0.909022
0.909079
0.90914
0.909202
0.909266
0.909333
0.909401
0.909472
0.909545
0.90962
0.909697
0.909776
0.909857
0.909939
0.910022
0.910107
0.910193
0.91028
0.910368
0.910455
0.910543
0.91063
0.910716
0.910801
0.910884
0.910965
0.911043
0.911118
0.911189
0.911256
0.911317
0.911373
0.911422
0.911464
0.911498
0.911524
0.91154
0.911545
0.91154
0.911523
0.911493
0.91145
0.911392
0.911319
0.911229
0.911121
0.910994
0.910847
0.910677
0.910483
0.910261
0.910008
0.909721
0.909394
0.90902
0.908592
0.908099
0.907532
0.90688
0.906131
0.905307
0.904499
0.903754
0.903306
0.903449
0.903949
0
0
0.926048
0.926079
0.92568
0.924954
0.923977
0.922921
0.921839
0.920789
0.9198
0.91888
0.91803
0.917247
0.916525
0.915857
0.915238
0.914662
0.914125
0.913621
0.913148
0.912702
0.912281
0.911882
0.911503
0.911143
0.9108
0.910472
0.91016
0.909861
0.909575
0.909301
0.909038
0.908786
0.908544
0.908312
0.908089
0.907875
0.907669
0.907471
0.907281
0.907098
0.906922
0.906752
0.906589
0.906432
0.906281
0.906136
0.905996
0.905861
0.905731
0.905606
0.905485
0.905369
0.905256
0.905147
0.905042
0.90494
0.904842
0.904746
0.904654
0.904564
0.904476
0.904391
0.904307
0.904226
0.904147
0.904069
0.903993
0.903918
0.903844
0.903772
0.903701
0.903631
0.903562
0.903494
0.903427
0.903361
0.903297
0.903233
0.903171
0.90311
0.903051
0.902994
0.902939
0.902886
0.902835
0.902787
0.902742
0.902701
0.902663
0.902628
0.902598
0.902572
0.902551
0.902534
0.902522
0.902515
0.902514
0.902517
0.902525
0.902538
0.902556
0.902578
0.902605
0.902635
0.90267
0.902707
0.902748
0.902792
0.902837
0.902885
0.902934
0.902984
0.903034
0.903085
0.903136
0.903187
0.903237
0.903287
0.903336
0.903383
0.90343
0.903475
0.903519
0.903561
0.903602
0.903641
0.903679
0.903715
0.90375
0.903783
0.903815
0.903846
0.903875
0.903904
0.903931
0.903957
0.903983
0.904007
0.904031
0.904054
0.904076
0.904098
0.904119
0.90414
0.904161
0.904181
0.904201
0.90422
0.90424
0.904259
0.904278
0.904298
0.904317
0.904336
0.904355
0.904374
0.904394
0.904413
0.904433
0.904452
0.904472
0.904492
0.904512
0.904532
0.904552
0.904573
0.904593
0.904614
0.904635
0.904656
0.904677
0.904698
0.90472
0.904741
0.904762
0.904784
0.904806
0.904827
0.904849
0.90487
0.904892
0.904914
0.904935
0.904957
0.904979
0.905
0.905022
0.905043
0.905065
0.905086
0.905108
0.905129
0.90515
0.905171
0.905193
0.905214
0.905235
0.905256
0.905277
0.905298
0.905319
0.90534
0.905361
0.905382
0.905403
0.905425
0.905446
0.905467
0.905489
0.90551
0.905532
0.905554
0.905576
0.905598
0.90562
0.905642
0.905665
0.905688
0.905711
0.905735
0.905759
0.905783
0.905807
0.905832
0.905857
0.905882
0.905907
0.905933
0.905959
0.905986
0.906013
0.90604
0.906067
0.906095
0.906123
0.906152
0.90618
0.906209
0.906239
0.906268
0.906298
0.906328
0.906358
0.906389
0.90642
0.90645
0.906481
0.906513
0.906544
0.906575
0.906607
0.906638
0.90667
0.906701
0.906733
0.906764
0.906796
0.906827
0.906859
0.90689
0.906921
0.906952
0.906982
0.907013
0.907043
0.907073
0.907102
0.907132
0.907161
0.907189
0.907218
0.907246
0.907274
0.907301
0.907328
0.907355
0.907381
0.907407
0.907432
0.907457
0.907482
0.907506
0.90753
0.907554
0.907577
0.9076
0.907622
0.907645
0.907667
0.907688
0.90771
0.907731
0.907752
0.907772
0.907793
0.907813
0.907833
0.907854
0.907874
0.907894
0.907914
0.907935
0.907955
0.907976
0.907996
0.908017
0.908039
0.90806
0.908082
0.908105
0.908128
0.908152
0.908176
0.908201
0.908226
0.908253
0.90828
0.908308
0.908338
0.908368
0.9084
0.908432
0.908466
0.908501
0.908538
0.908576
0.908616
0.908657
0.908701
0.908745
0.908792
0.908841
0.908891
0.908944
0.908998
0.909055
0.909113
0.909174
0.909237
0.909302
0.909369
0.909439
0.90951
0.909584
0.909659
0.909736
0.909815
0.909896
0.909978
0.910061
0.910146
0.910231
0.910317
0.910403
0.910489
0.910575
0.91066
0.910743
0.910825
0.910905
0.910981
0.911055
0.911125
0.91119
0.91125
0.911305
0.911352
0.911393
0.911425
0.911449
0.911464
0.911467
0.91146
0.911441
0.911409
0.911363
0.911303
0.911227
0.911134
0.911024
0.910894
0.910744
0.910573
0.910377
0.910156
0.909906
0.909625
0.90931
0.908956
0.908559
0.908116
0.907623
0.907083
0.906508
0.905915
0.905372
0.904972
0.904755
0.904921
0.905459
0
0
0.924029
0.924092
0.923887
0.92339
0.922706
0.9219
0.921034
0.920159
0.919305
0.918487
0.917716
0.916993
0.916317
0.915685
0.915095
0.914541
0.914022
0.913533
0.913071
0.912635
0.912222
0.91183
0.911457
0.911101
0.910762
0.910438
0.910129
0.909833
0.909549
0.909277
0.909016
0.908765
0.908525
0.908294
0.908072
0.907858
0.907653
0.907456
0.907267
0.907085
0.906909
0.90674
0.906578
0.906422
0.906272
0.906127
0.905987
0.905853
0.905724
0.905599
0.905479
0.905363
0.905251
0.905143
0.905039
0.904938
0.90484
0.904745
0.904653
0.904564
0.904477
0.904392
0.90431
0.904229
0.90415
0.904073
0.903997
0.903923
0.90385
0.903778
0.903707
0.903637
0.903568
0.9035
0.903433
0.903367
0.903302
0.903238
0.903176
0.903114
0.903054
0.902996
0.902939
0.902885
0.902833
0.902784
0.902737
0.902694
0.902654
0.902618
0.902586
0.902559
0.902536
0.902518
0.902505
0.902497
0.902495
0.902497
0.902505
0.902518
0.902536
0.902558
0.902585
0.902617
0.902652
0.902691
0.902732
0.902777
0.902824
0.902873
0.902923
0.902974
0.903026
0.903079
0.903131
0.903183
0.903234
0.903285
0.903335
0.903383
0.90343
0.903476
0.90352
0.903563
0.903604
0.903644
0.903682
0.903718
0.903753
0.903787
0.903819
0.90385
0.90388
0.903908
0.903936
0.903962
0.903987
0.904012
0.904036
0.904058
0.904081
0.904103
0.904124
0.904145
0.904165
0.904185
0.904205
0.904225
0.904244
0.904263
0.904283
0.904302
0.904321
0.90434
0.904359
0.904378
0.904398
0.904417
0.904436
0.904456
0.904476
0.904496
0.904516
0.904536
0.904556
0.904576
0.904597
0.904618
0.904638
0.904659
0.90468
0.904702
0.904723
0.904744
0.904766
0.904787
0.904809
0.90483
0.904852
0.904874
0.904895
0.904917
0.904939
0.90496
0.904982
0.905003
0.905025
0.905047
0.905068
0.905089
0.905111
0.905132
0.905153
0.905175
0.905196
0.905217
0.905238
0.905259
0.90528
0.905301
0.905322
0.905343
0.905365
0.905386
0.905407
0.905428
0.905449
0.90547
0.905492
0.905513
0.905535
0.905557
0.905579
0.905601
0.905623
0.905646
0.905669
0.905691
0.905715
0.905738
0.905762
0.905786
0.90581
0.905835
0.905859
0.905885
0.90591
0.905936
0.905962
0.905988
0.906015
0.906042
0.906069
0.906097
0.906125
0.906153
0.906182
0.906211
0.90624
0.90627
0.906299
0.906329
0.906359
0.90639
0.90642
0.906451
0.906482
0.906513
0.906544
0.906575
0.906607
0.906638
0.90667
0.906701
0.906733
0.906764
0.906795
0.906827
0.906858
0.906889
0.90692
0.90695
0.906981
0.907011
0.907041
0.907071
0.907101
0.90713
0.907159
0.907188
0.907216
0.907244
0.907272
0.907299
0.907326
0.907353
0.907379
0.907405
0.907431
0.907456
0.90748
0.907505
0.907529
0.907552
0.907575
0.907598
0.907621
0.907643
0.907665
0.907687
0.907708
0.907729
0.90775
0.907771
0.907791
0.907812
0.907832
0.907852
0.907872
0.907892
0.907912
0.907932
0.907953
0.907973
0.907994
0.908015
0.908036
0.908057
0.908079
0.908101
0.908124
0.908147
0.908171
0.908195
0.908221
0.908246
0.908273
0.908301
0.90833
0.908359
0.90839
0.908422
0.908455
0.90849
0.908525
0.908563
0.908601
0.908642
0.908684
0.908728
0.908773
0.90882
0.90887
0.908921
0.908974
0.909029
0.909087
0.909146
0.909208
0.909271
0.909337
0.909405
0.909475
0.909547
0.909621
0.909696
0.909774
0.909853
0.909934
0.910016
0.910099
0.910182
0.910267
0.910352
0.910436
0.910521
0.910604
0.910686
0.910767
0.910845
0.910921
0.910994
0.911062
0.911126
0.911185
0.911239
0.911285
0.911325
0.911356
0.911378
0.911391
0.911394
0.911385
0.911365
0.911331
0.911284
0.911222
0.911144
0.91105
0.910938
0.910808
0.910658
0.910488
0.910295
0.910078
0.909837
0.909569
0.909272
0.908945
0.908588
0.9082
0.907784
0.907348
0.906907
0.906489
0.906129
0.905896
0.905835
0.906002
0.906466
0
0
0.922347
0.922456
0.922339
0.922006
0.921514
0.920898
0.92021
0.919487
0.918757
0.91804
0.917348
0.916688
0.916062
0.915471
0.914912
0.914385
0.913886
0.913415
0.912968
0.912544
0.91214
0.911757
0.911391
0.911042
0.910708
0.910389
0.910083
0.90979
0.909509
0.90924
0.908982
0.908733
0.908495
0.908265
0.908045
0.907833
0.90763
0.907434
0.907245
0.907064
0.90689
0.906722
0.906561
0.906405
0.906256
0.906112
0.905974
0.90584
0.905712
0.905588
0.905469
0.905354
0.905243
0.905136
0.905032
0.904932
0.904835