# vtk DataFile Version 2.0
LBE mesh
ASCII
DATASET STRUCTURED_POINTS
DIMENSIONS 402 102 1
ASPECT_RATIO 1 1 1
ORIGIN 0 0 0
POINT_DATA 41004
SCALARS rho double 1
LOOKUP_TABLE default
0
0
0
0
0
0
0
0
0
0
0
0
0
0
0
0
0
0
0
0
0
0
0
0
0
0
0
0
0
0
0
0
0
0
0
0
0
0
0
0
0
0
0
0
0
0
0
0
0
0
0
0
0
0
0
0
0
0
0
0
0
0
0
0
0
0
0
0
0
0
0
0
0
0
0
0
0
0
0
0
0
0
0
0
0
0
0
0
0
0
0
0
0
0
0
0
0
0
0
0
0
0
0
0
0
0
0
0
0
0
0
0
0
0
0
0
0
0
0
0
0
0
0
0
0
0
0
0
0
0
0
0
0
0
0
0
0
0
0
0
0
0
0
0
0
0
0
0
0
0
0
0
0
0
0
0
0
0
0
0
0
0
0
0
0
0
0
0
0
0
0
0
0
0
0
0
0
0
0
0
0
0
0
0
0
0
0
0
0
0
0
0
0
0
0
0
0
0
0
0
0
0
0
0
0
0
0
0
0
0
0
0
0
0
0
0
0
0
0
0
0
0
0
0
0
0
0
0
0
0
0
0
0
0
0
0
0
0
0
0
0
0
0
0
0
0
0
0
0
0
0
0
0
0
0
0
0
0
0
0
0
0
0
0
0
0
0
0
0
0
0
0
0
0
0
0
0
0
0
0
0
0
0
0
0
0
0
0
0
0
0
0
0
0
0
0
0
0
0
0
0
0
0
0
0
0
0
0
0
0
0
0
0
0
0
0
0
0
0
0
0
0
0
0
0
0
0
0
0
0
0
0
0
0
0
0
0
0
0
0
0
0
0
0
0
0
0
0
0
0
0
0
0
0
0
0
0
0
0
0
0
0
0
0
0
0
0
0
0
0
0
0
0
0
0
0
0
0
0
0
0
0
0
0
0
0
0
0
0
0
0
0
0
0
0
0
0
0
0
0
0
0
0
0.95508
1.02404
1.01091
1.00274
0.998933
0.996439
0.994387
0.992689
0.991275
0.990066
0.989009
0.988073
0.987237
0.986482
0.985799
0.985177
0.984608
0.984087
0.983609
0.98317
0.982766
0.982394
0.982052
0.981737
0.981448
0.981182
0.980938
0.980713
0.980508
0.980319
0.980146
0.979988
0.979843
0.979709
0.979586
0.979473
0.979368
0.97927
0.979178
0.979092
0.97901
0.978931
0.978856
0.978783
0.978711
0.978641
0.978571
0.978503
0.978434
0.978366
0.978299
0.978232
0.978165
0.978099
0.978034
0.97797
0.977908
0.977848
0.977789
0.977733
0.977679
0.977628
0.97758
0.977535
0.977493
0.977454
0.977418
0.977385
0.977354
0.977326
0.977301
0.977278
0.977257
0.977237
0.977219
0.977202
0.977186
0.977171
0.977157
0.977143
0.97713
0.977118
0.977105
0.977094
0.977083
0.977072
0.977063
0.977054
0.977046
0.97704
0.977035
0.977031
0.977029
0.977029
0.97703
0.977033
0.977037
0.977044
0.977052
0.977061
0.977072
0.977085
0.977098
0.977113
0.977129
0.977145
0.977162
0.977179
0.977197
0.977215
0.977232
0.97725
0.977268
0.977286
0.977304
0.977321
0.977339
0.977356
0.977374
0.977391
0.977409
0.977427
0.977445
0.977464
0.977483
0.977504
0.977525
0.977548
0.977571
0.977597
0.977624
0.977652
0.977683
0.977716
0.977752
0.97779
0.97783
0.977873
0.977919
0.977968
0.978019
0.978073
0.97813
0.978189
0.978251
0.978315
0.978381
0.978449
0.978518
0.97859
0.978662
0.978735
0.978809
0.978883
0.978958
0.979032
0.979105
0.979179
0.979251
0.979322
0.979392
0.979461
0.979528
0.979594
0.979658
0.97972
0.979781
0.97984
0.979898
0.979954
0.980009
0.980062
0.980114
0.980164
0.980214
0.980262
0.980309
0.980356
0.980401
0.980445
0.980489
0.980531
0.980572
0.980612
0.980651
0.980688
0.980724
0.980758
0.98079
0.980819
0.980846
0.980871
0.980892
0.980909
0.980924
0.980934
0.98094
0.980942
0.98094
0.980932
0.98092
0.980904
0.980882
0.980855
0.980824
0.980788
0.980747
0.980702
0.980654
0.980601
0.980545
0.980487
0.980425
0.980362
0.980297
0.980231
0.980165
0.980098
0.980031
0.979965
0.9799
0.979836
0.979773
0.979713
0.979654
0.979597
0.979542
0.979488
0.979437
0.979387
0.979337
0.979289
0.979242
0.979195
0.979147
0.979099
0.97905
0.979
0.978948
0.978895
0.978839
0.978781
0.97872
0.978657
0.978591
0.978524
0.978453
0.978381
0.978307
0.978232
0.978155
0.978078
0.978
0.977924
0.977847
0.977773
0.977699
0.977628
0.977558
0.977493
0.97743
0.977371
0.977314
0.977263
0.977214
0.97717
0.977128
0.977091
0.977056
0.977025
0.976996
0.976971
0.976946
0.976923
0.976901
0.97688
0.976858
0.976837
0.976814
0.976791
0.976765
0.976739
0.976709
0.976679
0.976645
0.97661
0.976573
0.976534
0.976493
0.976452
0.97641
0.976369
0.976327
0.976289
0.976252
0.976219
0.976189
0.976166
0.976147
0.976136
0.976132
0.976137
0.97615
0.976173
0.976205
0.976249
0.976302
0.976366
0.97644
0.976525
0.976619
0.976723
0.976835
0.976956
0.977083
0.977218
0.977356
0.9775
0.977646
0.977795
0.977943
0.978091
0.978237
0.978381
0.97852
0.978655
0.978782
0.978904
0.979016
0.979121
0.979216
0.979303
0.979378
0.979444
0.979499
0.979544
0.979578
0.979603
0.979617
0.979623
0.979619
0.979607
0.979587
0.979561
0.979527
0.979488
0.979444
0.979397
0.979345
0.979291
0.979234
0.979177
0.979118
0.97906
0.979002
0.978945
0.97889
0.978837
0.978785
0.978737
0.978691
0.978648
0.978609
0.978573
0.978541
0.978512
0.978487
0.978465
0.978446
0.978431
0.978419
0.978409
0.978402
0.978397
0.978392
0.97839
0.978387
0.978383
0.978378
0.978372
0.97836
0.978345
0.978322
0.97829
0.978246
0.978187
0.978109
0.978005
0.977868
0.977686
0.977447
0.977128
0.976674
0.975956
0.974849
0.973628
0.972877
0.968781
0.934253
0.832593
0
0
1.02495
1.01728
1.00906
1.00437
1.00033
0.997306
0.995035
0.993224
0.991713
0.990422
0.989302
0.988318
0.987442
0.986657
0.985948
0.985304
0.984717
0.984181
0.98369
0.98324
0.982826
0.982446
0.982097
0.981776
0.981481
0.98121
0.980962
0.980734
0.980525
0.980333
0.980158
0.979997
0.97985
0.979715
0.979591
0.979476
0.97937
0.979272
0.979179
0.979093
0.97901
0.978932
0.978856
0.978783
0.978712
0.978642
0.978573
0.978504
0.978437
0.978369
0.978302
0.978235
0.978169
0.978104
0.97804
0.977976
0.977914
0.977854
0.977796
0.97774
0.977687
0.977636
0.977588
0.977543
0.977501
0.977462
0.977426
0.977392
0.977362
0.977334
0.977309
0.977285
0.977264
0.977245
0.977227
0.97721
0.977194
0.97718
0.977166
0.977152
0.97714
0.977127
0.977115
0.977104
0.977093
0.977083
0.977074
0.977065
0.977058
0.977051
0.977046
0.977042
0.97704
0.977039
0.97704
0.977042
0.977047
0.977052
0.97706
0.977069
0.977079
0.977091
0.977104
0.977118
0.977133
0.977149
0.977165
0.977182
0.977199
0.977217
0.977235
0.977252
0.97727
0.977288
0.977305
0.977323
0.977341
0.977358
0.977376
0.977393
0.977411
0.977429
0.977448
0.977467
0.977487
0.977507
0.977528
0.977551
0.977575
0.9776
0.977628
0.977656
0.977687
0.97772
0.977756
0.977793
0.977834
0.977877
0.977922
0.977971
0.978022
0.978075
0.978132
0.97819
0.978252
0.978315
0.978381
0.978449
0.978518
0.978589
0.978661
0.978733
0.978807
0.978881
0.978955
0.979029
0.979102
0.979175
0.979247
0.979318
0.979388
0.979457
0.979524
0.97959
0.979654
0.979716
0.979777
0.979836
0.979894
0.97995
0.980005
0.980058
0.980109
0.98016
0.980209
0.980257
0.980305
0.980351
0.980396
0.98044
0.980483
0.980525
0.980566
0.980605
0.980644
0.98068
0.980716
0.980749
0.98078
0.98081
0.980836
0.98086
0.980881
0.980898
0.980912
0.980922
0.980928
0.98093
0.980927
0.98092
0.980908
0.980892
0.98087
0.980844
0.980812
0.980777
0.980737
0.980692
0.980644
0.980592
0.980537
0.980479
0.980418
0.980355
0.980291
0.980225
0.980159
0.980093
0.980026
0.979961
0.979895
0.979832
0.979769
0.979709
0.97965
0.979593
0.979538
0.979485
0.979432
0.979382
0.979333
0.979285
0.979237
0.97919
0.979142
0.979095
0.979045
0.978996
0.978944
0.978891
0.978835
0.978778
0.978717
0.978655
0.97859
0.978523
0.978453
0.978382
0.978308
0.978234
0.978157
0.978081
0.978003
0.977928
0.977851
0.977777
0.977703
0.977632
0.977562
0.977497
0.977433
0.977374
0.977317
0.977265
0.977215
0.977171
0.977128
0.977091
0.977055
0.977024
0.976994
0.976968
0.976942
0.97692
0.976897
0.976876
0.976854
0.976834
0.97681
0.976788
0.976762
0.976737
0.976707
0.976678
0.976645
0.976612
0.976574
0.976537
0.976497
0.976458
0.976416
0.976377
0.976336
0.976299
0.976262
0.976231
0.976201
0.976179
0.97616
0.97615
0.976145
0.97615
0.976162
0.976186
0.976217
0.97626
0.976311
0.976374
0.976446
0.97653
0.976621
0.976724
0.976834
0.976953
0.977077
0.97721
0.977346
0.977488
0.977631
0.977778
0.977924
0.978071
0.978215
0.978358
0.978495
0.978628
0.978755
0.978876
0.978987
0.979092
0.979187
0.979273
0.979348
0.979415
0.97947
0.979516
0.97955
0.979576
0.979591
0.979598
0.979595
0.979584
0.979565
0.97954
0.979507
0.979469
0.979426
0.979379
0.979327
0.979274
0.979217
0.97916
0.979101
0.979042
0.978983
0.978926
0.978869
0.978814
0.978761
0.978711
0.978662
0.978618
0.978575
0.978537
0.978501
0.978468
0.978439
0.978413
0.978389
0.978368
0.97835
0.978334
0.978319
0.978306
0.978293
0.978281
0.978267
0.978252
0.978234
0.978212
0.978184
0.978148
0.978103
0.978045
0.97797
0.977874
0.97775
0.977592
0.977386
0.977118
0.976759
0.97627
0.975597
0.974697
0.97342
0.971057
0.965751
0.956968
0.948677
0.936528
0
0
1.02104
1.01156
1.00814
1.00401
1.00027
0.997482
0.995271
0.993442
0.991903
0.990586
0.989443
0.988437
0.987542
0.98674
0.986017
0.985361
0.984764
0.984219
0.983721
0.983264
0.982845
0.98246
0.982106
0.981782
0.981484
0.98121
0.980959
0.980729
0.980518
0.980326
0.980149
0.979987
0.979839
0.979703
0.979579
0.979464
0.979357
0.979258
0.979166
0.97908
0.978998
0.978919
0.978844
0.978772
0.978701
0.978632
0.978564
0.978496
0.978429
0.978363
0.978296
0.978231
0.978166
0.978101
0.978037
0.977975
0.977914
0.977854
0.977797
0.977741
0.977688
0.977638
0.97759
0.977545
0.977503
0.977464
0.977428
0.977395
0.977364
0.977336
0.977311
0.977288
0.977266
0.977247
0.977229
0.977213
0.977197
0.977183
0.977169
0.977156
0.977143
0.977131
0.97712
0.977108
0.977098
0.977088
0.977079
0.97707
0.977063
0.977056
0.977051
0.977047
0.977044
0.977043
0.977044
0.977046
0.97705
0.977055
0.977062
0.977071
0.977081
0.977092
0.977105
0.977119
0.977133
0.977149
0.977165
0.977182
0.977199
0.977217
0.977235
0.977253
0.977271
0.977288
0.977306
0.977324
0.977342
0.97736
0.977378
0.977396
0.977414
0.977433
0.977451
0.977471
0.977491
0.977512
0.977533
0.977556
0.97758
0.977606
0.977633
0.977662
0.977693
0.977726
0.977761
0.977799
0.977839
0.977882
0.977927
0.977975
0.978026
0.978079
0.978135
0.978194
0.978255
0.978318
0.978383
0.97845
0.978519
0.978589
0.97866
0.978733
0.978806
0.978879
0.978953
0.979026
0.9791
0.979172
0.979244
0.979315
0.979384
0.979453
0.97952
0.979585
0.979649
0.979711
0.979772
0.979831
0.979889
0.979945
0.979999
0.980052
0.980103
0.980154
0.980203
0.980251
0.980297
0.980343
0.980388
0.980431
0.980474
0.980515
0.980555
0.980595
0.980632
0.980669
0.980703
0.980736
0.980767
0.980795
0.980821
0.980844
0.980864
0.980881
0.980895
0.980904
0.98091
0.980911
0.980908
0.980901
0.980889
0.980872
0.98085
0.980824
0.980793
0.980758
0.980718
0.980674
0.980626
0.980574
0.980519
0.980462
0.980402
0.98034
0.980276
0.980211
0.980145
0.980079
0.980014
0.979948
0.979884
0.979821
0.979759
0.979699
0.97964
0.979584
0.979528
0.979475
0.979424
0.979374
0.979325
0.979277
0.979229
0.979183
0.979135
0.979088
0.97904
0.978991
0.978939
0.978887
0.978832
0.978776
0.978716
0.978655
0.978591
0.978525
0.978456
0.978386
0.978313
0.97824
0.978165
0.97809
0.978013
0.977938
0.977862
0.977788
0.977714
0.977644
0.977574
0.977509
0.977445
0.977386
0.977328
0.977276
0.977225
0.97718
0.977137
0.977099
0.977062
0.97703
0.976999
0.976973
0.976946
0.976923
0.9769
0.976879
0.976856
0.976836
0.976812
0.97679
0.976765
0.97674
0.976711
0.976683
0.97665
0.976618
0.976582
0.976546
0.976507
0.976469
0.976429
0.97639
0.976351
0.976315
0.976279
0.976249
0.97622
0.976198
0.97618
0.97617
0.976165
0.97617
0.976182
0.976204
0.976234
0.976276
0.976326
0.976387
0.976457
0.976539
0.976628
0.976728
0.976836
0.976952
0.977074
0.977204
0.977338
0.977477
0.977618
0.977762
0.977906
0.978051
0.978193
0.978334
0.978469
0.978602
0.978727
0.978847
0.978958
0.979063
0.979157
0.979243
0.979319
0.979386
0.979442
0.979489
0.979524
0.979551
0.979568
0.979576
0.979574
0.979565
0.979547
0.979523
0.979491
0.979455
0.979412
0.979366
0.979315
0.979262
0.979206
0.979149
0.97909
0.979031
0.978972
0.978913
0.978855
0.978799
0.978744
0.978692
0.978642
0.978594
0.978549
0.978507
0.978468
0.978431
0.978397
0.978367
0.978338
0.978312
0.978287
0.978265
0.978243
0.978222
0.978201
0.978179
0.978155
0.978129
0.978098
0.978062
0.978018
0.977965
0.977899
0.977817
0.977715
0.977587
0.977426
0.977221
0.97696
0.976623
0.976184
0.975604
0.974808
0.973671
0.972061
0.969881
0.966422
0.959921
0.956121
0.9619
0
0
1.01049
1.00793
1.0057
1.0023
0.999558
0.997168
0.995105
0.993358
0.991867
0.990574
0.98944
0.988436
0.987541
0.986737
0.98601
0.985352
0.984752
0.984204
0.983703
0.983244
0.982823
0.982437
0.982082
0.981756
0.981457
0.981183
0.980932
0.980701
0.98049
0.980297
0.98012
0.979958
0.97981
0.979675
0.97955
0.979435
0.979329
0.979231
0.979139
0.979053
0.978972
0.978895
0.978821
0.978749
0.978679
0.978611
0.978544
0.978478
0.978412
0.978347
0.978282
0.978217
0.978153
0.97809
0.978028
0.977966
0.977906
0.977847
0.977791
0.977736
0.977684
0.977633
0.977586
0.977542
0.9775
0.977461
0.977425
0.977392
0.977362
0.977334
0.977309
0.977285
0.977264
0.977245
0.977227
0.97721
0.977195
0.97718
0.977167
0.977154
0.977142
0.97713
0.977118
0.977107
0.977097
0.977087
0.977078
0.977069
0.977062
0.977055
0.97705
0.977045
0.977043
0.977041
0.977041
0.977043
0.977047
0.977052
0.977059
0.977067
0.977077
0.977088
0.977101
0.977115
0.977129
0.977145
0.977162
0.977179
0.977196
0.977214
0.977233
0.977251
0.977269
0.977288
0.977307
0.977325
0.977343
0.977362
0.97738
0.977399
0.977418
0.977437
0.977456
0.977476
0.977496
0.977518
0.97754
0.977563
0.977587
0.977613
0.97764
0.97767
0.977701
0.977734
0.977769
0.977806
0.977846
0.977889
0.977934
0.977982
0.978032
0.978085
0.97814
0.978198
0.978259
0.978321
0.978386
0.978453
0.978521
0.97859
0.978661
0.978733
0.978806
0.978878
0.978952
0.979025
0.979097
0.979169
0.979241
0.979311
0.97938
0.979448
0.979515
0.97958
0.979644
0.979706
0.979766
0.979825
0.979882
0.979938
0.979992
0.980044
0.980096
0.980146
0.980194
0.980242
0.980288
0.980333
0.980377
0.98042
0.980462
0.980503
0.980542
0.98058
0.980617
0.980653
0.980686
0.980718
0.980748
0.980776
0.980801
0.980823
0.980842
0.980858
0.980871
0.98088
0.980885
0.980886
0.980882
0.980874
0.980862
0.980845
0.980823
0.980797
0.980766
0.98073
0.98069
0.980647
0.980599
0.980548
0.980494
0.980437
0.980377
0.980316
0.980253
0.980189
0.980124
0.980059
0.979993
0.979929
0.979865
0.979803
0.979741
0.979682
0.979624
0.979568
0.979513
0.979461
0.97941
0.979361
0.979312
0.979265
0.979218
0.979173
0.979126
0.97908
0.979032
0.978984
0.978934
0.978883
0.97883
0.978775
0.978717
0.978657
0.978594
0.97853
0.978463
0.978395
0.978323
0.978252
0.978178
0.978104
0.978028
0.977954
0.977879
0.977806
0.977733
0.977663
0.977594
0.977529
0.977465
0.977405
0.977347
0.977294
0.977243
0.977197
0.977153
0.977114
0.977077
0.977044
0.977012
0.976985
0.976957
0.976934
0.976909
0.976888
0.976865
0.976844
0.976821
0.976798
0.976773
0.976749
0.976721
0.976693
0.976662
0.97663
0.976595
0.97656
0.976523
0.976486
0.976447
0.97641
0.976372
0.976337
0.976302
0.976272
0.976245
0.976223
0.976206
0.976196
0.976191
0.976195
0.976207
0.976228
0.976257
0.976297
0.976346
0.976405
0.976473
0.976553
0.97664
0.976737
0.976842
0.976955
0.977075
0.977201
0.977332
0.977468
0.977607
0.977748
0.97789
0.978032
0.978172
0.978311
0.978445
0.978575
0.9787
0.978819
0.978929
0.979033
0.979128
0.979214
0.979291
0.979358
0.979415
0.979463
0.9795
0.979528
0.979546
0.979556
0.979556
0.979548
0.979532
0.97951
0.97948
0.979445
0.979404
0.979359
0.979309
0.979257
0.979202
0.979145
0.979086
0.979027
0.978967
0.978908
0.978849
0.978792
0.978735
0.978681
0.978629
0.978579
0.978531
0.978485
0.978442
0.978402
0.978364
0.978329
0.978295
0.978263
0.978233
0.978204
0.978176
0.978147
0.978118
0.978088
0.978054
0.978018
0.977976
0.977927
0.97787
0.977801
0.977718
0.977617
0.977494
0.977341
0.977152
0.976917
0.976621
0.976246
0.975764
0.975142
0.974336
0.973276
0.971796
0.969721
0.967472
0.96544
0.963709
0.966414
0
0
1.00416
1.00415
1.00247
1.00042
0.998399
0.996396
0.994605
0.993026
0.991631
0.990397
0.989302
0.988323
0.987444
0.986651
0.985932
0.985279
0.984683
0.984139
0.983641
0.983184
0.982765
0.98238
0.982026
0.981702
0.981404
0.981131
0.980881
0.980651
0.980441
0.980249
0.980073
0.979912
0.979765
0.97963
0.979507
0.979393
0.979288
0.97919
0.9791
0.979015
0.978935
0.978859
0.978786
0.978716
0.978647
0.978581
0.978515
0.97845
0.978386
0.978322
0.978259
0.978196
0.978134
0.978072
0.978011
0.977951
0.977892
0.977834
0.977779
0.977725
0.977673
0.977624
0.977577
0.977533
0.977492
0.977454
0.977418
0.977385
0.977355
0.977327
0.977302
0.977279
0.977257
0.977238
0.97722
0.977204
0.977188
0.977174
0.97716
0.977147
0.977135
0.977123
0.977112
0.977101
0.97709
0.97708
0.977071
0.977063
0.977055
0.977048
0.977043
0.977038
0.977035
0.977033
0.977033
0.977035
0.977038
0.977043
0.97705
0.977058
0.977068
0.97708
0.977092
0.977106
0.977122
0.977138
0.977155
0.977172
0.977191
0.977209
0.977228
0.977248
0.977267
0.977286
0.977306
0.977325
0.977344
0.977363
0.977383
0.977402
0.977422
0.977441
0.977461
0.977482
0.977503
0.977525
0.977547
0.977571
0.977596
0.977622
0.977649
0.977679
0.97771
0.977743
0.977778
0.977815
0.977855
0.977898
0.977942
0.97799
0.97804
0.978092
0.978147
0.978205
0.978265
0.978327
0.978391
0.978456
0.978524
0.978593
0.978663
0.978734
0.978806
0.978878
0.978951
0.979023
0.979095
0.979167
0.979238
0.979308
0.979377
0.979444
0.97951
0.979575
0.979638
0.9797
0.97976
0.979818
0.979875
0.97993
0.979984
0.980036
0.980086
0.980136
0.980184
0.98023
0.980276
0.98032
0.980364
0.980406
0.980447
0.980487
0.980525
0.980563
0.980599
0.980633
0.980666
0.980696
0.980725
0.980752
0.980775
0.980797
0.980815
0.98083
0.980842
0.980849
0.980853
0.980853
0.980849
0.980841
0.980828
0.98081
0.980788
0.980761
0.98073
0.980695
0.980655
0.980612
0.980564
0.980514
0.98046
0.980403
0.980344
0.980284
0.980221
0.980158
0.980094
0.98003
0.979966
0.979902
0.979839
0.979778
0.979717
0.979659
0.979602
0.979547
0.979493
0.979442
0.979392
0.979344
0.979296
0.97925
0.979204
0.97916
0.979114
0.97907
0.979023
0.978977
0.978928
0.978879
0.978827
0.978774
0.978718
0.978661
0.9786
0.978538
0.978473
0.978406
0.978337
0.978267
0.978195
0.978123
0.978049
0.977977
0.977903
0.977831
0.977759
0.97769
0.977621
0.977556
0.977492
0.977432
0.977374
0.97732
0.977269
0.977222
0.977177
0.977137
0.977098
0.977065
0.977032
0.977003
0.976975
0.97695
0.976925
0.976903
0.97688
0.976858
0.976835
0.976813
0.976788
0.976763
0.976736
0.976709
0.976678
0.976647
0.976614
0.97658
0.976544
0.976508
0.97647
0.976435
0.976398
0.976364
0.976331
0.976302
0.976275
0.976254
0.976237
0.976227
0.976222
0.976227
0.976237
0.976258
0.976286
0.976324
0.976371
0.976429
0.976494
0.976571
0.976656
0.97675
0.976852
0.976962
0.977078
0.977202
0.977329
0.977463
0.977598
0.977736
0.977875
0.978015
0.978152
0.978289
0.978421
0.97855
0.978673
0.978791
0.978901
0.979005
0.9791
0.979187
0.979263
0.979332
0.97939
0.979439
0.979478
0.979508
0.979528
0.97954
0.979542
0.979536
0.979522
0.979502
0.979474
0.979441
0.979402
0.979358
0.97931
0.979259
0.979204
0.979148
0.97909
0.979031
0.978971
0.978911
0.978851
0.978793
0.978735
0.978679
0.978624
0.978572
0.978521
0.978472
0.978426
0.978382
0.97834
0.9783
0.978261
0.978224
0.978189
0.978154
0.978119
0.978084
0.978047
0.978009
0.977967
0.977922
0.97787
0.977811
0.977743
0.977662
0.977566
0.977451
0.977312
0.977144
0.976939
0.976688
0.976378
0.975994
0.975517
0.974918
0.974161
0.973218
0.972084
0.970712
0.969221
0.968423
0.968152
0.968843
0
0
1.0005
1.00064
0.999706
0.998487
0.996953
0.995383
0.993889
0.992498
0.99123
0.990084
0.989048
0.988111
0.987263
0.986492
0.98579
0.98515
0.984565
0.984028
0.983537
0.983086
0.982672
0.982292
0.981942
0.981621
0.981327
0.981056
0.980809
0.980582
0.980374
0.980183
0.98001
0.97985
0.979705
0.979571
0.979449
0.979337
0.979233
0.979138
0.979048
0.978965
0.978887
0.978812
0.978741
0.978672
0.978606
0.978541
0.978477
0.978414
0.978352
0.97829
0.978228
0.978167
0.978107
0.978046
0.977987
0.977928
0.977871
0.977815
0.977761
0.977708
0.977658
0.977609
0.977564
0.97752
0.97748
0.977442
0.977406
0.977374
0.977344
0.977316
0.977291
0.977268
0.977247
0.977227
0.97721
0.977193
0.977178
0.977163
0.97715
0.977137
0.977124
0.977112
0.977101
0.97709
0.977079
0.977069
0.97706
0.977051
0.977043
0.977036
0.97703
0.977026
0.977022
0.977021
0.97702
0.977022
0.977025
0.97703
0.977036
0.977045
0.977055
0.977067
0.97708
0.977094
0.97711
0.977127
0.977145
0.977163
0.977182
0.977202
0.977222
0.977242
0.977263
0.977283
0.977304
0.977324
0.977345
0.977365
0.977385
0.977405
0.977426
0.977446
0.977467
0.977489
0.97751
0.977533
0.977556
0.97758
0.977605
0.977631
0.977659
0.977689
0.97772
0.977753
0.977789
0.977826
0.977866
0.977908
0.977952
0.977999
0.978049
0.978101
0.978156
0.978213
0.978272
0.978333
0.978396
0.978462
0.978529
0.978597
0.978666
0.978737
0.978808
0.978879
0.978951
0.979023
0.979094
0.979165
0.979235
0.979305
0.979373
0.97944
0.979505
0.97957
0.979632
0.979693
0.979753
0.97981
0.979866
0.979921
0.979974
0.980025
0.980075
0.980124
0.980171
0.980217
0.980262
0.980305
0.980348
0.980389
0.980429
0.980468
0.980505
0.980541
0.980576
0.980609
0.98064
0.98067
0.980697
0.980722
0.980745
0.980765
0.980782
0.980796
0.980806
0.980813
0.980816
0.980815
0.980809
0.9808
0.980786
0.980768
0.980745
0.980718
0.980687
0.980651
0.980612
0.980568
0.980521
0.980471
0.980418
0.980362
0.980304
0.980244
0.980182
0.98012
0.980057
0.979994
0.979931
0.979868
0.979807
0.979746
0.979687
0.97963
0.979574
0.97952
0.979468
0.979418
0.979369
0.979322
0.979276
0.979231
0.979187
0.979144
0.9791
0.979057
0.979013
0.978968
0.978922
0.978875
0.978825
0.978774
0.978721
0.978666
0.978607
0.978548
0.978485
0.978421
0.978355
0.978287
0.978217
0.978147
0.978076
0.978005
0.977933
0.977862
0.977791
0.977723
0.977655
0.97759
0.977526
0.977466
0.977408
0.977354
0.977302
0.977254
0.977208
0.977167
0.977128
0.977092
0.977059
0.977029
0.977
0.976974
0.976948
0.976925
0.976901
0.976879
0.976855
0.976833
0.976808
0.976784
0.976757
0.97673
0.9767
0.97667
0.976638
0.976605
0.97657
0.976536
0.9765
0.976465
0.97643
0.976397
0.976365
0.976337
0.976311
0.976291
0.976274
0.976264
0.97626
0.976263
0.976273
0.976293
0.976319
0.976356
0.976401
0.976457
0.97652
0.976594
0.976676
0.976767
0.976866
0.976973
0.977085
0.977206
0.97733
0.977459
0.977591
0.977727
0.977862
0.977999
0.978134
0.978269
0.978399
0.978527
0.978648
0.978765
0.978875
0.978978
0.979073
0.979161
0.979238
0.979308
0.979367
0.979418
0.979459
0.979491
0.979513
0.979527
0.979532
0.979529
0.979517
0.979499
0.979474
0.979443
0.979405
0.979364
0.979317
0.979267
0.979214
0.979159
0.979101
0.979042
0.978982
0.978922
0.978862
0.978802
0.978743
0.978685
0.978628
0.978574
0.97852
0.978469
0.978419
0.978371
0.978325
0.978281
0.978238
0.978196
0.978155
0.978115
0.978074
0.978033
0.97799
0.977945
0.977896
0.977843
0.977784
0.977717
0.97764
0.97755
0.977445
0.977322
0.977175
0.977
0.97679
0.976537
0.976232
0.975863
0.975416
0.974879
0.974236
0.973472
0.972608
0.971745
0.970935
0.970435
0.970565
0.971074
0
0
0.99781
0.997856
0.997411
0.996587
0.995475
0.99427
0.993035
0.991838
0.990711
0.989665
0.988702
0.987819
0.987011
0.986271
0.985593
0.984972
0.984402
0.983879
0.983398
0.982956
0.98255
0.982176
0.981833
0.981518
0.981228
0.980962
0.980718
0.980494
0.98029
0.980102
0.979931
0.979774
0.979631
0.9795
0.97938
0.979269
0.979168
0.979074
0.978987
0.978905
0.978828
0.978756
0.978687
0.97862
0.978555
0.978492
0.978431
0.97837
0.97831
0.97825
0.978191
0.978131
0.978073
0.978015
0.977957
0.9779
0.977845
0.97779
0.977738
0.977686
0.977637
0.97759
0.977545
0.977503
0.977463
0.977426
0.977391
0.977359
0.977329
0.977302
0.977277
0.977254
0.977233
0.977213
0.977195
0.977179
0.977164
0.977149
0.977135
0.977122
0.97711
0.977098
0.977086
0.977075
0.977065
0.977054
0.977045
0.977035
0.977027
0.97702
0.977014
0.977009
0.977005
0.977003
0.977003
0.977004
0.977007
0.977012
0.977018
0.977027
0.977037
0.977049
0.977063
0.977078
0.977095
0.977113
0.977132
0.977151
0.977172
0.977193
0.977214
0.977236
0.977257
0.977279
0.977301
0.977323
0.977344
0.977366
0.977388
0.977409
0.977431
0.977452
0.977474
0.977496
0.977518
0.977542
0.977565
0.97759
0.977616
0.977643
0.977671
0.977701
0.977732
0.977765
0.977801
0.977838
0.977878
0.97792
0.977964
0.978011
0.97806
0.978112
0.978166
0.978222
0.97828
0.978341
0.978404
0.978468
0.978535
0.978602
0.978671
0.97874
0.978811
0.978881
0.978952
0.979023
0.979094
0.979164
0.979234
0.979302
0.97937
0.979436
0.979501
0.979564
0.979626
0.979686
0.979745
0.979802
0.979857
0.979911
0.979963
0.980014
0.980063
0.980111
0.980157
0.980202
0.980246
0.980288
0.980329
0.980369
0.980408
0.980445
0.980482
0.980516
0.98055
0.980581
0.980611
0.980639
0.980665
0.980689
0.98071
0.980728
0.980743
0.980756
0.980765
0.98077
0.980772
0.980769
0.980763
0.980753
0.980738
0.980719
0.980696
0.980668
0.980636
0.980601
0.980561
0.980518
0.980471
0.980421
0.980368
0.980313
0.980255
0.980196
0.980136
0.980074
0.980012
0.979951
0.979889
0.979828
0.979767
0.979708
0.979651
0.979595
0.97954
0.979488
0.979437
0.979389
0.979342
0.979296
0.979252
0.979209
0.979167
0.979125
0.979084
0.979043
0.979
0.978958
0.978914
0.97887
0.978823
0.978775
0.978724
0.978672
0.978616
0.97856
0.9785
0.978439
0.978375
0.97831
0.978243
0.978176
0.978106
0.978037
0.977967
0.977898
0.977829
0.977762
0.977694
0.97763
0.977567
0.977507
0.977449
0.977394
0.977341
0.977293
0.977246
0.977204
0.977163
0.977127
0.977092
0.977061
0.977031
0.977004
0.976977
0.976953
0.976928
0.976905
0.976881
0.976859
0.976834
0.97681
0.976783
0.976757
0.976728
0.976699
0.976667
0.976636
0.976602
0.976569
0.976534
0.976501
0.976467
0.976435
0.976404
0.976377
0.976352
0.976333
0.976316
0.976307
0.976302
0.976305
0.976315
0.976333
0.976358
0.976394
0.976437
0.97649
0.976551
0.976622
0.9767
0.976788
0.976883
0.976987
0.977096
0.977213
0.977333
0.977459
0.977588
0.97772
0.977853
0.977986
0.978119
0.978251
0.978379
0.978505
0.978626
0.978742
0.978851
0.978954
0.979049
0.979137
0.979216
0.979287
0.979348
0.9794
0.979443
0.979478
0.979502
0.979519
0.979526
0.979526
0.979517
0.979502
0.979479
0.97945
0.979415
0.979376
0.979331
0.979283
0.979231
0.979177
0.97912
0.979062
0.979002
0.978942
0.978881
0.97882
0.97876
0.978701
0.978642
0.978585
0.978529
0.978475
0.978422
0.978371
0.978321
0.978273
0.978226
0.97818
0.978134
0.978089
0.978043
0.977996
0.977948
0.977897
0.977843
0.977784
0.977719
0.977646
0.977563
0.977468
0.977359
0.977231
0.977082
0.976908
0.976701
0.976458
0.976171
0.975833
0.975436
0.974975
0.974449
0.973868
0.973253
0.972676
0.97224
0.971993
0.972149
0.972698
0
0
0.995578
0.995669
0.995439
0.994866
0.994069
0.99313
0.992121
0.991104
0.990115
0.989173
0.988289
0.987466
0.986705
0.986001
0.985353
0.984755
0.984204
0.983697
0.98323
0.982799
0.982403
0.982039
0.981703
0.981394
0.981111
0.98085
0.980611
0.980392
0.980191
0.980008
0.97984
0.979686
0.979546
0.979417
0.979299
0.979191
0.979092
0.979
0.978915
0.978836
0.978762
0.978691
0.978624
0.97856
0.978497
0.978437
0.978377
0.978319
0.978261
0.978203
0.978146
0.97809
0.978033
0.977977
0.977922
0.977867
0.977814
0.977761
0.97771
0.97766
0.977613
0.977567
0.977523
0.977482
0.977443
0.977406
0.977372
0.97734
0.977311
0.977284
0.977259
0.977236
0.977215
0.977196
0.977178
0.977162
0.977147
0.977132
0.977118
0.977105
0.977093
0.97708
0.977069
0.977057
0.977046
0.977036
0.977026
0.977016
0.977008
0.977
0.976993
0.976988
0.976984
0.976982
0.976981
0.976982
0.976985
0.97699
0.976997
0.977006
0.977016
0.977029
0.977043
0.97706
0.977077
0.977096
0.977116
0.977137
0.977159
0.977181
0.977204
0.977227
0.977251
0.977274
0.977298
0.977321
0.977344
0.977367
0.97739
0.977413
0.977436
0.977458
0.977481
0.977504
0.977528
0.977552
0.977576
0.977601
0.977628
0.977655
0.977684
0.977714
0.977746
0.977779
0.977814
0.977852
0.977891
0.977933
0.977977
0.978024
0.978072
0.978124
0.978177
0.978233
0.978291
0.978351
0.978413
0.978477
0.978542
0.978609
0.978676
0.978745
0.978815
0.978885
0.978955
0.979025
0.979095
0.979164
0.979233
0.9793
0.979367
0.979432
0.979496
0.979559
0.97962
0.979679
0.979737
0.979793
0.979848
0.9799
0.979952
0.980001
0.980049
0.980096
0.980141
0.980185
0.980227
0.980268
0.980308
0.980347
0.980384
0.98042
0.980455
0.980488
0.980519
0.980549
0.980578
0.980604
0.980628
0.98065
0.980669
0.980686
0.980699
0.98071
0.980717
0.980721
0.980721
0.980718
0.98071
0.980698
0.980683
0.980663
0.980639
0.980611
0.980578
0.980542
0.980503
0.980459
0.980413
0.980363
0.980311
0.980256
0.9802
0.980142
0.980082
0.980022
0.979961
0.979901
0.97984
0.979781
0.979722
0.979665
0.979609
0.979554
0.979502
0.979451
0.979402
0.979355
0.97931
0.979267
0.979224
0.979183
0.979143
0.979104
0.979065
0.979026
0.978987
0.978947
0.978906
0.978864
0.97882
0.978775
0.978727
0.978678
0.978627
0.978573
0.978517
0.978459
0.978398
0.978337
0.978272
0.978208
0.978141
0.978074
0.978006
0.977939
0.977872
0.977806
0.97774
0.977676
0.977613
0.977554
0.977495
0.97744
0.977387
0.977338
0.97729
0.977247
0.977205
0.977168
0.977132
0.977099
0.977068
0.97704
0.977012
0.976987
0.976961
0.976938
0.976913
0.97689
0.976865
0.976841
0.976815
0.976789
0.976761
0.976732
0.976702
0.976671
0.976639
0.976607
0.976574
0.976541
0.976509
0.976479
0.976449
0.976423
0.976399
0.97638
0.976364
0.976354
0.976349
0.976352
0.976361
0.976378
0.976402
0.976435
0.976476
0.976527
0.976585
0.976653
0.976729
0.976814
0.976905
0.977005
0.977111
0.977223
0.97734
0.977462
0.977588
0.977716
0.977846
0.977976
0.978106
0.978236
0.978362
0.978486
0.978605
0.978721
0.978829
0.978932
0.979028
0.979116
0.979196
0.979269
0.979332
0.979386
0.979432
0.979468
0.979496
0.979515
0.979525
0.979528
0.979523
0.97951
0.97949
0.979464
0.979432
0.979395
0.979353
0.979307
0.979256
0.979203
0.979148
0.97909
0.979031
0.97897
0.978909
0.978848
0.978787
0.978726
0.978666
0.978607
0.978549
0.978492
0.978436
0.978382
0.978329
0.978277
0.978226
0.978176
0.978126
0.978077
0.978026
0.977975
0.977922
0.977867
0.977808
0.977745
0.977676
0.977599
0.977513
0.977416
0.977305
0.977178
0.977032
0.976863
0.976668
0.976442
0.97618
0.975881
0.97554
0.975159
0.974741
0.974305
0.973879
0.9735
0.973246
0.97317
0.973332
0.9738
0
0
0.993719
0.993867
0.993739
0.993349
0.992761
0.992024
0.991201
0.99034
0.989477
0.988636
0.987831
0.987071
0.986359
0.985695
0.985079
0.984507
0.983979
0.98349
0.983038
0.982622
0.982237
0.981883
0.981556
0.981255
0.980979
0.980725
0.980492
0.980277
0.980081
0.979902
0.979738
0.979588
0.97945
0.979325
0.97921
0.979105
0.979008
0.978919
0.978836
0.978759
0.978687
0.978619
0.978555
0.978493
0.978433
0.978375
0.978318
0.978262
0.978206
0.978151
0.978097
0.978042
0.977989
0.977935
0.977882
0.977829
0.977778
0.977727
0.977678
0.97763
0.977584
0.977539
0.977497
0.977457
0.977419
0.977383