# vtk DataFile Version 2.0
LBE mesh
ASCII
DATASET STRUCTURED_POINTS
DIMENSIONS 402 102 1
ASPECT_RATIO 1 1 1
ORIGIN 0 0 0
POINT_DATA 41004
SCALARS rho double 1
LOOKUP_TABLE default
0
0
0
0
0
0
0
0
0
0
0
0
0
0
0
0
0
0
0
0
0
0
0
0
0
0
0
0
0
0
0
0
0
0
0
0
0
0
0
0
0
0
0
0
0
0
0
0
0
0
0
0
0
0
0
0
0
0
0
0
0
0
0
0
0
0
0
0
0
0
0
0
0
0
0
0
0
0
0
0
0
0
0
0
0
0
0
0
0
0
0
0
0
0
0
0
0
0
0
0
0
0
0
0
0
0
0
0
0
0
0
0
0
0
0
0
0
0
0
0
0
0
0
0
0
0
0
0
0
0
0
0
0
0
0
0
0
0
0
0
0
0
0
0
0
0
0
0
0
0
0
0
0
0
0
0
0
0
0
0
0
0
0
0
0
0
0
0
0
0
0
0
0
0
0
0
0
0
0
0
0
0
0
0
0
0
0
0
0
0
0
0
0
0
0
0
0
0
0
0
0
0
0
0
0
0
0
0
0
0
0
0
0
0
0
0
0
0
0
0
0
0
0
0
0
0
0
0
0
0
0
0
0
0
0
0
0
0
0
0
0
0
0
0
0
0
0
0
0
0
0
0
0
0
0
0
0
0
0
0
0
0
0
0
0
0
0
0
0
0
0
0
0
0
0
0
0
0
0
0
0
0
0
0
0
0
0
0
0
0
0
0
0
0
0
0
0
0
0
0
0
0
0
0
0
0
0
0
0
0
0
0
0
0
0
0
0
0
0
0
0
0
0
0
0
0
0
0
0
0
0
0
0
0
0
0
0
0
0
0
0
0
0
0
0
0
0
0
0
0
0
0
0
0
0
0
0
0
0
0
0
0
0
0
0
0
0
0
0
0
0
0
0
0
0
0
0
0
0
0
0
0
0
0
0
0
0
0
0
0
0
0
0
0
0
0
0
0
0
0
0
0
0
0.880322
0.943929
0.931894
0.924416
0.920962
0.91872
0.916887
0.91538
0.914133
0.913071
0.912146
0.911328
0.910594
0.909931
0.909325
0.908769
0.908255
0.907778
0.907333
0.906917
0.906526
0.906158
0.90581
0.905482
0.905171
0.904876
0.904597
0.904331
0.904078
0.903837
0.903608
0.903389
0.903181
0.902982
0.902793
0.902612
0.90244
0.902275
0.902118
0.901968
0.901825
0.901689
0.901559
0.901434
0.901316
0.901202
0.901094
0.90099
0.900891
0.900797
0.900706
0.900619
0.900535
0.900455
0.900377
0.900303
0.900231
0.900161
0.900094
0.900028
0.899965
0.899902
0.899842
0.899782
0.899724
0.899666
0.89961
0.899554
0.899499
0.899444
0.89939
0.899337
0.899284
0.899232
0.899181
0.89913
0.89908
0.899031
0.898984
0.898937
0.898893
0.89885
0.898809
0.89877
0.898733
0.8987
0.898669
0.898642
0.898618
0.898597
0.898581
0.898569
0.898561
0.898558
0.898559
0.898564
0.898574
0.898589
0.898608
0.898631
0.898658
0.898689
0.898724
0.898762
0.898804
0.898848
0.898894
0.898942
0.898992
0.899044
0.899096
0.899149
0.899203
0.899256
0.89931
0.899362
0.899414
0.899466
0.899516
0.899564
0.899612
0.899657
0.899701
0.899744
0.899784
0.899823
0.89986
0.899895
0.899928
0.89996
0.899989
0.900017
0.900043
0.900067
0.90009
0.900111
0.90013
0.900148
0.900164
0.900179
0.900192
0.900204
0.900215
0.900224
0.900233
0.90024
0.900245
0.90025
0.900254
0.900257
0.900258
0.900259
0.900259
0.900258
0.900256
0.900253
0.900249
0.900245
0.90024
0.900234
0.900228
0.900221
0.900214
0.900206
0.900197
0.900188
0.900178
0.900168
0.900158
0.900148
0.900137
0.900125
0.900114
0.900102
0.90009
0.900078
0.900066
0.900054
0.900041
0.900029
0.900017
0.900004
0.899992
0.89998
0.899968
0.899956
0.899945
0.899933
0.899922
0.899911
0.899901
0.899891
0.899881
0.899871
0.899862
0.899854
0.899845
0.899837
0.89983
0.899823
0.899817
0.899811
0.899806
0.899801
0.899797
0.899793
0.89979
0.899787
0.899785
0.899784
0.899783
0.899782
0.899783
0.899783
0.899784
0.899786
0.899788
0.899791
0.899794
0.899798
0.899802
0.899807
0.899812
0.899817
0.899823
0.899829
0.899836
0.899842
0.89985
0.899857
0.899865
0.899873
0.899881
0.89989
0.899898
0.899907
0.899916
0.899926
0.899935
0.899944
0.899954
0.899963
0.899973
0.899983
0.899993
0.900002
0.900012
0.900022
0.900031
0.900041
0.900051
0.90006
0.90007
0.900079
0.900089
0.900098
0.900108
0.900117
0.900126
0.900135
0.900144
0.900153
0.900162
0.900171
0.900179
0.900188
0.900197
0.900205
0.900214
0.900222
0.900231
0.900239
0.900248
0.900256
0.900265
0.900273
0.900281
0.90029
0.900298
0.900307
0.900315
0.900324
0.900333
0.900341
0.90035
0.900359
0.900368
0.900377
0.900387
0.900396
0.900406
0.900415
0.900425
0.900436
0.900446
0.900456
0.900467
0.900478
0.90049
0.900502
0.900514
0.900526
0.900539
0.900552
0.900566
0.90058
0.900595
0.90061
0.900627
0.900643
0.900661
0.900679
0.900698
0.900718
0.90074
0.900762
0.900785
0.90081
0.900836
0.900863
0.900892
0.900922
0.900954
0.900987
0.901023
0.90106
0.9011
0.901141
0.901185
0.901231
0.90128
0.901331
0.901385
0.901441
0.9015
0.901561
0.901626
0.901693
0.901764
0.901837
0.901913
0.901993
0.902075
0.90216
0.902247
0.902338
0.90243
0.902526
0.902623
0.902723
0.902824
0.902927
0.903032
0.903137
0.903242
0.903348
0.903453
0.903558
0.903662
0.903763
0.903863
0.903959
0.904052
0.90414
0.904224
0.904303
0.904375
0.904441
0.904499
0.904548
0.90459
0.904621
0.904643
0.904654
0.904654
0.904642
0.904618
0.904581
0.904531
0.904467
0.90439
0.904298
0.904191
0.904068
0.903928
0.90377
0.903592
0.90339
0.90316
0.902893
0.902582
0.902208
0.901722
0.901009
0.899957
0.898819
0.898138
0.894384
0.862542
0.768704
0
0
0.944785
0.93775
0.930228
0.925954
0.922286
0.919551
0.917513
0.915901
0.914562
0.913425
0.912442
0.911579
0.910811
0.910119
0.909491
0.908917
0.908388
0.907898
0.907442
0.907017
0.906618
0.906243
0.90589
0.905556
0.905241
0.904942
0.904658
0.904389
0.904133
0.903889
0.903657
0.903436
0.903226
0.903025
0.902833
0.902651
0.902477
0.90231
0.902152
0.902001
0.901856
0.901718
0.901587
0.901461
0.901341
0.901227
0.901118
0.901013
0.900913
0.900817
0.900725
0.900638
0.900553
0.900472
0.900394
0.900319
0.900247
0.900176
0.900109
0.900043
0.899979
0.899916
0.899855
0.899795
0.899737
0.899679
0.899623
0.899567
0.899512
0.899457
0.899403
0.89935
0.899298
0.899246
0.899194
0.899144
0.899094
0.899046
0.898998
0.898952
0.898907
0.898864
0.898823
0.898784
0.898748
0.898714
0.898683
0.898655
0.898631
0.89861
0.898593
0.89858
0.898572
0.898567
0.898567
0.898572
0.898581
0.898594
0.898612
0.898634
0.89866
0.89869
0.898724
0.898761
0.898801
0.898844
0.89889
0.898937
0.898987
0.899037
0.899089
0.899142
0.899195
0.899248
0.899301
0.899353
0.899405
0.899456
0.899506
0.899555
0.899602
0.899648
0.899692
0.899735
0.899776
0.899815
0.899852
0.899887
0.899921
0.899952
0.899982
0.90001
0.900036
0.900061
0.900084
0.900105
0.900124
0.900142
0.900159
0.900174
0.900188
0.9002
0.900211
0.90022
0.900229
0.900236
0.900242
0.900247
0.900251
0.900253
0.900255
0.900256
0.900256
0.900255
0.900253
0.90025
0.900247
0.900243
0.900238
0.900232
0.900226
0.900219
0.900212
0.900204
0.900195
0.900186
0.900177
0.900167
0.900157
0.900146
0.900135
0.900124
0.900113
0.900101
0.900089
0.900077
0.900065
0.900053
0.900041
0.900028
0.900016
0.900004
0.899992
0.899979
0.899968
0.899956
0.899944
0.899933
0.899922
0.899911
0.8999
0.89989
0.89988
0.899871
0.899862
0.899853
0.899845
0.899837
0.89983
0.899823
0.899816
0.89981
0.899805
0.8998
0.899796
0.899792
0.899789
0.899786
0.899784
0.899783
0.899782
0.899781
0.899781
0.899782
0.899783
0.899785
0.899787
0.89979
0.899793
0.899796
0.8998
0.899805
0.89981
0.899815
0.899821
0.899827
0.899834
0.899841
0.899848
0.899855
0.899863
0.899871
0.899879
0.899888
0.899896
0.899905
0.899914
0.899923
0.899933
0.899942
0.899952
0.899961
0.899971
0.899981
0.89999
0.9
0.90001
0.900019
0.900029
0.900039
0.900048
0.900058
0.900068
0.900077
0.900086
0.900096
0.900105
0.900114
0.900123
0.900132
0.900142
0.90015
0.900159
0.900168
0.900177
0.900185
0.900194
0.900203
0.900211
0.90022
0.900228
0.900237
0.900245
0.900253
0.900262
0.90027
0.900279
0.900287
0.900295
0.900304
0.900312
0.900321
0.90033
0.900338
0.900347
0.900356
0.900365
0.900374
0.900384
0.900393
0.900403
0.900412
0.900422
0.900432
0.900443
0.900453
0.900464
0.900475
0.900486
0.900498
0.90051
0.900522
0.900535
0.900548
0.900562
0.900576
0.900591
0.900606
0.900622
0.900639
0.900656
0.900675
0.900694
0.900714
0.900735
0.900756
0.90078
0.900804
0.900829
0.900856
0.900885
0.900915
0.900946
0.900979
0.901014
0.901051
0.90109
0.901131
0.901174
0.901219
0.901267
0.901317
0.90137
0.901425
0.901483
0.901543
0.901606
0.901672
0.901741
0.901813
0.901888
0.901965
0.902045
0.902128
0.902214
0.902302
0.902393
0.902486
0.902581
0.902679
0.902777
0.902878
0.902979
0.903081
0.903184
0.903287
0.903389
0.903491
0.903591
0.90369
0.903786
0.903879
0.903968
0.904054
0.904134
0.904209
0.904278
0.904339
0.904393
0.904439
0.904476
0.904503
0.90452
0.904526
0.904521
0.904503
0.904472
0.904428
0.904369
0.904296
0.904207
0.904101
0.903977
0.903835
0.903671
0.903483
0.903268
0.90302
0.90273
0.902387
0.901968
0.901438
0.900752
0.899871
0.89866
0.896466
0.891574
0.88349
0.875866
0.864667
0
0
0.941259
0.932541
0.929429
0.925676
0.922282
0.919763
0.91778
0.91615
0.914785
0.913624
0.912619
0.911736
0.910951
0.910245
0.909605
0.90902
0.908482
0.907985
0.907523
0.907091
0.906687
0.906308
0.905951
0.905614
0.905295
0.904993
0.904707
0.904435
0.904177
0.903931
0.903697
0.903474
0.903262
0.903059
0.902866
0.902682
0.902507
0.902339
0.90218
0.902027
0.901882
0.901743
0.90161
0.901484
0.901363
0.901247
0.901137
0.901032
0.900931
0.900834
0.900742
0.900654
0.900569
0.900487
0.900409
0.900333
0.90026
0.90019
0.900122
0.900055
0.899991
0.899928
0.899867
0.899807
0.899749
0.899691
0.899635
0.899579
0.899524
0.899469
0.899416
0.899363
0.89931
0.899258
0.899207
0.899156
0.899107
0.899058
0.899011
0.898964
0.89892
0.898876
0.898835
0.898796
0.898759
0.898724
0.898693
0.898665
0.898639
0.898618
0.8986
0.898587
0.898577
0.898572
0.898571
0.898574
0.898582
0.898595
0.898612
0.898633
0.898658
0.898687
0.89872
0.898756
0.898796
0.898838
0.898883
0.89893
0.898979
0.899029
0.899081
0.899133
0.899186
0.899239
0.899292
0.899345
0.899397
0.899448
0.899498
0.899546
0.899594
0.89964
0.899684
0.899727
0.899768
0.899807
0.899845
0.89988
0.899914
0.899946
0.899976
0.900004
0.90003
0.900055
0.900078
0.9001
0.900119
0.900138
0.900154
0.900169
0.900183
0.900196
0.900207
0.900216
0.900225
0.900232
0.900238
0.900243
0.900247
0.90025
0.900252
0.900253
0.900253
0.900252
0.900251
0.900248
0.900245
0.900241
0.900236
0.90023
0.900224
0.900217
0.90021
0.900202
0.900194
0.900185
0.900175
0.900166
0.900155
0.900145
0.900134
0.900123
0.900112
0.9001
0.900088
0.900076
0.900064
0.900052
0.90004
0.900027
0.900015
0.900003
0.899991
0.899979
0.899967
0.899955
0.899943
0.899932
0.899921
0.89991
0.899899
0.899889
0.899879
0.89987
0.899861
0.899852
0.899844
0.899836
0.899828
0.899822
0.899815
0.899809
0.899804
0.899799
0.899795
0.899791
0.899788
0.899785
0.899783
0.899781
0.89978
0.89978
0.89978
0.89978
0.899781
0.899783
0.899785
0.899788
0.899791
0.899794
0.899798
0.899803
0.899808
0.899813
0.899819
0.899825
0.899831
0.899838
0.899845
0.899853
0.89986
0.899868
0.899877
0.899885
0.899894
0.899902
0.899911
0.899921
0.89993
0.899939
0.899949
0.899958
0.899968
0.899977
0.899987
0.899997
0.900006
0.900016
0.900026
0.900035
0.900045
0.900055
0.900064
0.900074
0.900083
0.900092
0.900102
0.900111
0.90012
0.900129
0.900138
0.900147
0.900156
0.900165
0.900173
0.900182
0.900191
0.900199
0.900208
0.900216
0.900224
0.900233
0.900241
0.90025
0.900258
0.900266
0.900275
0.900283
0.900292
0.9003
0.900309
0.900317
0.900326
0.900335
0.900343
0.900352
0.900361
0.90037
0.90038
0.900389
0.900398
0.900408
0.900418
0.900428
0.900438
0.900449
0.900459
0.90047
0.900482
0.900493
0.900505
0.900518
0.90053
0.900543
0.900557
0.900571
0.900586
0.900601
0.900617
0.900633
0.90065
0.900668
0.900687
0.900707
0.900727
0.900749
0.900772
0.900796
0.900821
0.900847
0.900875
0.900904
0.900935
0.900968
0.901002
0.901039
0.901077
0.901117
0.901159
0.901204
0.90125
0.901299
0.901351
0.901405
0.901462
0.901521
0.901583
0.901648
0.901715
0.901785
0.901858
0.901934
0.902013
0.902094
0.902178
0.902264
0.902353
0.902444
0.902537
0.902631
0.902728
0.902826
0.902925
0.903025
0.903125
0.903225
0.903325
0.903424
0.903522
0.903617
0.903711
0.903801
0.903888
0.90397
0.904048
0.904119
0.904185
0.904244
0.904294
0.904337
0.90437
0.904394
0.904407
0.904408
0.904397
0.904374
0.904337
0.904286
0.904219
0.904137
0.904037
0.903918
0.90378
0.903619
0.903434
0.90322
0.902973
0.902685
0.902347
0.901942
0.901451
0.900838
0.90004
0.898941
0.897424
0.8954
0.892216
0.886239
0.882761
0.888117
0
0
0.931609
0.929265
0.927248
0.924161
0.921684
0.919536
0.91769
0.916137
0.914817
0.913679
0.912683
0.911803
0.911017
0.91031
0.909667
0.90908
0.908539
0.908039
0.907574
0.90714
0.906734
0.906353
0.905994
0.905655
0.905334
0.905031
0.904743
0.90447
0.90421
0.903963
0.903727
0.903503
0.90329
0.903086
0.902892
0.902707
0.90253
0.902362
0.902201
0.902048
0.901901
0.901762
0.901628
0.901501
0.901379
0.901263
0.901153
0.901047
0.900945
0.900848
0.900756
0.900667
0.900581
0.900499
0.900421
0.900345
0.900272
0.900201
0.900133
0.900067
0.900002
0.899939
0.899878
0.899818
0.89976
0.899702
0.899646
0.89959
0.899535
0.899481
0.899427
0.899374
0.899322
0.89927
0.899218
0.899168
0.899118
0.899069
0.899022
0.898975
0.89893
0.898886
0.898844
0.898804
0.898767
0.898732
0.8987
0.89867
0.898644
0.898622
0.898603
0.898588
0.898578
0.898571
0.898569
0.898572
0.898579
0.89859
0.898606
0.898627
0.898651
0.89868
0.898712
0.898748
0.898787
0.898829
0.898873
0.89892
0.898969
0.899019
0.899071
0.899123
0.899176
0.89923
0.899283
0.899336
0.899388
0.899439
0.899489
0.899539
0.899586
0.899633
0.899677
0.89972
0.899762
0.899801
0.899839
0.899874
0.899908
0.89994
0.899971
0.899999
0.900026
0.900051
0.900074
0.900095
0.900115
0.900134
0.90015
0.900166
0.90018
0.900192
0.900203
0.900213
0.900222
0.900229
0.900235
0.90024
0.900245
0.900247
0.90025
0.900251
0.900251
0.90025
0.900248
0.900246
0.900242
0.900238
0.900234
0.900228
0.900222
0.900215
0.900208
0.9002
0.900192
0.900183
0.900174
0.900164
0.900154
0.900143
0.900133
0.900122
0.90011
0.900099
0.900087
0.900075
0.900063
0.900051
0.900038
0.900026
0.900014
0.900002
0.89999
0.899977
0.899966
0.899954
0.899942
0.899931
0.89992
0.899909
0.899898
0.899888
0.899878
0.899869
0.899859
0.899851
0.899842
0.899835
0.899827
0.89982
0.899814
0.899808
0.899802
0.899797
0.899793
0.899789
0.899786
0.899783
0.899781
0.899779
0.899778
0.899778
0.899778
0.899778
0.899779
0.899781
0.899783
0.899785
0.899788
0.899792
0.899796
0.8998
0.899805
0.89981
0.899816
0.899822
0.899828
0.899835
0.899842
0.899849
0.899857
0.899865
0.899873
0.899881
0.89989
0.899899
0.899908
0.899917
0.899926
0.899935
0.899945
0.899954
0.899964
0.899973
0.899983
0.899993
0.900002
0.900012
0.900022
0.900031
0.900041
0.90005
0.90006
0.900069
0.900079
0.900088
0.900097
0.900106
0.900116
0.900125
0.900134
0.900142
0.900151
0.90016
0.900169
0.900177
0.900186
0.900194
0.900203
0.900211
0.90022
0.900228
0.900237
0.900245
0.900253
0.900262
0.90027
0.900278
0.900287
0.900295
0.900304
0.900312
0.900321
0.90033
0.900338
0.900347
0.900356
0.900365
0.900374
0.900384
0.900393
0.900403
0.900412
0.900422
0.900433
0.900443
0.900454
0.900465
0.900476
0.900487
0.900499
0.900511
0.900524
0.900537
0.90055
0.900564
0.900578
0.900593
0.900609
0.900625
0.900642
0.90066
0.900678
0.900698
0.900718
0.900739
0.900762
0.900785
0.90081
0.900836
0.900863
0.900892
0.900922
0.900954
0.900988
0.901023
0.901061
0.9011
0.901141
0.901185
0.901231
0.901279
0.901329
0.901382
0.901437
0.901495
0.901556
0.901619
0.901685
0.901754
0.901825
0.901899
0.901976
0.902056
0.902138
0.902222
0.902309
0.902398
0.902489
0.902582
0.902676
0.902772
0.902869
0.902967
0.903065
0.903163
0.903261
0.903357
0.903453
0.903546
0.903637
0.903725
0.903809
0.903889
0.903965
0.904034
0.904097
0.904153
0.904201
0.904241
0.904271
0.904291
0.9043
0.904298
0.904283
0.904255
0.904213
0.904155
0.904082
0.903991
0.903882
0.903753
0.903602
0.903426
0.903224
0.902991
0.902721
0.902407
0.902039
0.901601
0.901072
0.900423
0.899617
0.898593
0.897199
0.895276
0.893211
0.891361
0.88979
0.892312
0
0
0.925846
0.925852
0.924333
0.92249
0.920681
0.918893
0.917302
0.915906
0.914678
0.913595
0.912636
0.91178
0.91101
0.910313
0.909678
0.909095
0.908558
0.90806
0.907597
0.907164
0.906758
0.906377
0.906018
0.905679
0.905358
0.905054
0.904765
0.904492
0.904231
0.903983
0.903747
0.903523
0.903309
0.903104
0.90291
0.902724
0.902547
0.902378
0.902216
0.902062
0.901915
0.901775
0.901641
0.901514
0.901392
0.901275
0.901164
0.901058
0.900956
0.900859
0.900766
0.900677
0.900591
0.900509
0.90043
0.900354
0.900281
0.900211
0.900142
0.900076
0.900012
0.899949
0.899888
0.899828
0.89977
0.899712
0.899656
0.8996
0.899545
0.899491
0.899438
0.899385
0.899332
0.89928
0.899229
0.899178
0.899128
0.899079
0.899031
0.898984
0.898938
0.898894
0.898851
0.89881
0.898772
0.898736
0.898703
0.898672
0.898645
0.898622
0.898602
0.898586
0.898574
0.898566
0.898563
0.898565
0.898571
0.898581
0.898597
0.898616
0.89864
0.898668
0.8987
0.898736
0.898775
0.898816
0.898861
0.898908
0.898957
0.899008
0.89906
0.899113
0.899166
0.89922
0.899273
0.899327
0.899379
0.899431
0.899482
0.899531
0.89958
0.899626
0.899671
0.899714
0.899756
0.899796
0.899834
0.89987
0.899904
0.899936
0.899966
0.899995
0.900022
0.900047
0.90007
0.900092
0.900112
0.90013
0.900147
0.900162
0.900176
0.900189
0.9002
0.90021
0.900219
0.900226
0.900233
0.900238
0.900242
0.900245
0.900247
0.900248
0.900248
0.900247
0.900246
0.900243
0.90024
0.900236
0.900232
0.900226
0.90022
0.900213
0.900206
0.900198
0.90019
0.900181
0.900172
0.900162
0.900152
0.900142
0.900131
0.90012
0.900109
0.900097
0.900085
0.900073
0.900061
0.900049
0.900037
0.900025
0.900013
0.9
0.899988
0.899976
0.899964
0.899952
0.899941
0.899929
0.899918
0.899907
0.899897
0.899887
0.899877
0.899867
0.899858
0.899849
0.899841
0.899833
0.899825
0.899818
0.899812
0.899806
0.899801
0.899796
0.899791
0.899787
0.899784
0.899781
0.899779
0.899777
0.899776
0.899775
0.899775
0.899775
0.899776
0.899778
0.89978
0.899782
0.899785
0.899789
0.899792
0.899797
0.899802
0.899807
0.899812
0.899818
0.899825
0.899831
0.899838
0.899845
0.899853
0.899861
0.899869
0.899877
0.899886
0.899894
0.899903
0.899912
0.899921
0.899931
0.89994
0.899949
0.899959
0.899969
0.899978
0.899988
0.899997
0.900007
0.900017
0.900026
0.900036
0.900045
0.900055
0.900064
0.900074
0.900083
0.900092
0.900101
0.90011
0.900119
0.900128
0.900137
0.900146
0.900155
0.900163
0.900172
0.900181
0.900189
0.900197
0.900206
0.900214
0.900223
0.900231
0.900239
0.900248
0.900256
0.900264
0.900273
0.900281
0.900289
0.900298
0.900306
0.900315
0.900324
0.900332
0.900341
0.90035
0.900359
0.900368
0.900377
0.900387
0.900396
0.900406
0.900416
0.900426
0.900436
0.900447
0.900457
0.900468
0.90048
0.900491
0.900503
0.900516
0.900529
0.900542
0.900555
0.90057
0.900584
0.9006
0.900616
0.900632
0.900649
0.900668
0.900687
0.900707
0.900727
0.900749
0.900772
0.900796
0.900822
0.900849
0.900877
0.900906
0.900938
0.90097
0.901005
0.901042
0.90108
0.90112
0.901163
0.901208
0.901254
0.901304
0.901355
0.90141
0.901466
0.901526
0.901587
0.901652
0.901719
0.901789
0.901862
0.901937
0.902015
0.902095
0.902178
0.902263
0.90235
0.902439
0.90253
0.902623
0.902717
0.902812
0.902907
0.903004
0.9031
0.903196
0.90329
0.903384
0.903475
0.903565
0.903651
0.903733
0.903811
0.903884
0.903951
0.904012
0.904066
0.904112
0.904149
0.904177
0.904194
0.904201
0.904195
0.904177
0.904144
0.904097
0.904035
0.903956
0.903858
0.903742
0.903605
0.903444
0.903259
0.903046
0.9028
0.902518
0.902191
0.901813
0.90137
0.900848
0.900224
0.899467
0.898554
0.897482
0.896211
0.894847
0.894132
0.893909
0.894574
0
0
0.92255
0.922676
0.921843
0.920765
0.91941
0.918028
0.916716
0.915498
0.914391
0.913392
0.912491
0.911676
0.910935
0.910259
0.909639
0.909068
0.908539
0.908048
0.90759
0.907161
0.906759
0.90638
0.906023
0.905685
0.905366
0.905062
0.904775
0.904501
0.904241
0.903993
0.903758
0.903533
0.903319
0.903114
0.902919
0.902733
0.902556
0.902387
0.902225
0.902071
0.901924
0.901783
0.901649
0.901521
0.901399
0.901283
0.901171
0.901065
0.900963
0.900866
0.900773
0.900684
0.900598
0.900516
0.900437
0.900362
0.900288
0.900218
0.90015
0.900084
0.90002
0.899957
0.899896
0.899837
0.899778
0.899721
0.899665
0.899609
0.899555
0.899501
0.899447
0.899394
0.899342
0.899289
0.899238
0.899187
0.899137
0.899087
0.899038
0.898991
0.898944
0.898899
0.898855
0.898814
0.898774
0.898737
0.898702
0.898671
0.898642
0.898617
0.898596
0.898579
0.898565
0.898557
0.898552
0.898553
0.898558
0.898568
0.898582
0.898601
0.898625
0.898652
0.898684
0.89872
0.898759
0.898801
0.898846
0.898894
0.898943
0.898995
0.899047
0.899101
0.899155
0.899209
0.899264
0.899318
0.899371
0.899423
0.899475
0.899525
0.899573
0.89962
0.899666
0.89971
0.899751
0.899791
0.89983
0.899866
0.8999
0.899933
0.899963
0.899992
0.900019
0.900044
0.900067
0.900089
0.900109
0.900127
0.900144
0.90016
0.900174
0.900186
0.900198
0.900208
0.900216
0.900224
0.90023
0.900235
0.900239
0.900243
0.900245
0.900246
0.900246
0.900245
0.900244
0.900241
0.900238
0.900234
0.900229
0.900224
0.900218
0.900211
0.900204
0.900197
0.900188
0.900179
0.90017
0.900161
0.900151
0.90014
0.900129
0.900118
0.900107
0.900095
0.900084
0.900072
0.90006
0.900048
0.900035
0.900023
0.900011
0.899999
0.899987
0.899975
0.899963
0.899951
0.899939
0.899928
0.899917
0.899906
0.899895
0.899885
0.899875
0.899865
0.899856
0.899847
0.899839
0.899831
0.899823
0.899816
0.89981
0.899804
0.899798
0.899793
0.899789
0.899785
0.899781
0.899778
0.899776
0.899774
0.899773
0.899772
0.899772
0.899772
0.899773
0.899774
0.899776
0.899779
0.899782
0.899785
0.899789
0.899793
0.899798
0.899803
0.899808
0.899814
0.89982
0.899827
0.899834
0.899841
0.899848
0.899856
0.899864
0.899872
0.899881
0.899889
0.899898
0.899907
0.899916
0.899925
0.899935
0.899944
0.899953
0.899963
0.899972
0.899982
0.899992
0.900001
0.900011
0.90002
0.90003
0.900039
0.900049
0.900058
0.900067
0.900077
0.900086
0.900095
0.900104
0.900113
0.900122
0.900131
0.90014
0.900148
0.900157
0.900166
0.900174
0.900183
0.900191
0.900199
0.900208
0.900216
0.900224
0.900233
0.900241
0.900249
0.900258
0.900266
0.900274
0.900283
0.900291
0.900299
0.900308
0.900316
0.900325
0.900334
0.900343
0.900352
0.900361
0.90037
0.900379
0.900388
0.900398
0.900408
0.900418
0.900428
0.900438
0.900449
0.90046
0.900471
0.900483
0.900494
0.900506
0.900519
0.900532
0.900545
0.900559
0.900574
0.900589
0.900604
0.900621
0.900637
0.900655
0.900674
0.900693
0.900713
0.900735
0.900757
0.900781
0.900806
0.900832
0.900859
0.900888
0.900918
0.90095
0.900984
0.90102
0.901057
0.901097
0.901138
0.901182
0.901227
0.901276
0.901326
0.901379
0.901434
0.901492
0.901553
0.901616
0.901681
0.90175
0.901821
0.901894
0.901971
0.902049
0.90213
0.902214
0.902299
0.902387
0.902476
0.902567
0.902659
0.902753
0.902847
0.902941
0.903036
0.90313
0.903223
0.903315
0.903405
0.903492
0.903577
0.903658
0.903734
0.903806
0.903871
0.90393
0.903982
0.904027
0.904062
0.904087
0.904102
0.904106
0.904098
0.904076
0.904041
0.90399
0.903924
0.90384
0.903738
0.903617
0.903474
0.903308
0.903117
0.902899
0.902649
0.902364
0.902039
0.901668
0.901242
0.900751
0.900187
0.899539
0.898794
0.897976
0.897174
0.896436
0.895993
0.896138
0.896638
0
0
0.920138
0.920174
0.919783
0.919068
0.918104
0.917063
0.915998
0.914965
0.913994
0.913093
0.912262
0.911499
0.910798
0.910151
0.909554
0.909
0.908485
0.908005
0.907556
0.907134
0.906737
0.906363
0.906009
0.905675
0.905358
0.905057
0.904771
0.904498
0.904239
0.903993
0.903758
0.903534
0.90332
0.903116
0.902921
0.902736
0.902558
0.902389
0.902228
0.902074
0.901927
0.901786
0.901652
0.901524
0.901402
0.901286
0.901174
0.901068
0.900967
0.900869
0.900777
0.900688
0.900602
0.90052
0.900442
0.900366
0.900294
0.900223
0.900155
0.90009
0.900026
0.899964
0.899903
0.899844
0.899786
0.899729
0.899673
0.899618
0.899563
0.899509
0.899456
0.899403
0.89935
0.899298
0.899246
0.899195
0.899144
0.899094
0.899044
0.898996
0.898948
0.898902
0.898857
0.898814
0.898773
0.898735
0.898698
0.898665
0.898635
0.898609
0.898586
0.898567
0.898552
0.898542
0.898537
0.898536
0.89854
0.898549
0.898563
0.898582
0.898605
0.898633
0.898665
0.898701
0.89874
0.898783
0.898829
0.898877
0.898928
0.89898
0.899034
0.899088
0.899143
0.899198
0.899254
0.899309
0.899363
0.899416
0.899468
0.899519
0.899568
0.899616
0.899662
0.899706
0.899748
0.899788
0.899827
0.899863
0.899898
0.89993
0.899961
0.89999
0.900017
0.900042
0.900065
0.900087
0.900107
0.900125
0.900142
0.900158
0.900172
0.900184
0.900196
0.900205
0.900214
0.900222
0.900228
0.900233
0.900237
0.90024
0.900242
0.900243
0.900244
0.900243
0.900241
0.900239
0.900236
0.900232
0.900227
0.900222
0.900216
0.900209
0.900202
0.900194
0.900186
0.900177
0.900168
0.900159
0.900149
0.900138
0.900127
0.900116
0.900105
0.900094
0.900082
0.90007
0.900058
0.900046
0.900034
0.900021
0.900009
0.899997
0.899985
0.899973
0.899961
0.899949
0.899937
0.899926
0.899915
0.899904
0.899893
0.899883
0.899873
0.899863
0.899854
0.899845
0.899837
0.899829
0.899821
0.899814
0.899807
0.899801
0.899796
0.89979
0.899786
0.899782
0.899778
0.899775
0.899773
0.899771
0.89977
0.899769
0.899768
0.899769
0.899769
0.899771
0.899772
0.899775
0.899777
0.899781
0.899784
0.899788
0.899793
0.899798
0.899803
0.899809
0.899815
0.899822
0.899828
0.899835
0.899843
0.89985
0.899858
0.899866
0.899875
0.899883
0.899892
0.899901
0.89991
0.899919
0.899928
0.899938
0.899947
0.899956
0.899966
0.899975
0.899985
0.899994
0.900004
0.900013
0.900023
0.900032
0.900042
0.900051
0.90006
0.90007
0.900079
0.900088
0.900097
0.900106
0.900115
0.900123
0.900132
0.900141
0.90015
0.900158
0.900167
0.900175
0.900184
0.900192
0.9002
0.900209
0.900217
0.900225
0.900233
0.900242
0.90025
0.900258
0.900266
0.900275
0.900283
0.900291
0.9003
0.900308
0.900317
0.900326
0.900334
0.900343
0.900352
0.900361
0.90037
0.90038
0.900389
0.900399
0.900409
0.900419
0.900429
0.900439
0.90045
0.900461
0.900472
0.900484
0.900496
0.900508
0.900521
0.900534
0.900547
0.900561
0.900576
0.900591
0.900607
0.900624
0.900641
0.900659
0.900678
0.900698
0.900718
0.90074
0.900763
0.900787
0.900813
0.900839
0.900867
0.900897
0.900928
0.900961
0.900996
0.901032
0.90107
0.901111
0.901153
0.901198
0.901245
0.901294
0.901345
0.901399
0.901456
0.901515
0.901577
0.901641
0.901708
0.901777
0.901849
0.901924
0.902001
0.90208
0.902162
0.902246
0.902332
0.90242
0.902509
0.9026
0.902692
0.902784
0.902877
0.90297
0.903063
0.903155
0.903245
0.903334
0.90342
0.903503
0.903583
0.903658
0.903728
0.903792
0.90385
0.903901
0.903943
0.903977
0.904
0.904014
0.904015
0.904005
0.903981
0.903943
0.90389
0.903821
0.903734
0.903629
0.903505
0.90336
0.903192
0.903
0.902782
0.902535
0.902256
0.901943
0.901591
0.901196
0.900755
0.900264
0.899727
0.899154
0.898565
0.898027
0.897631
0.897418
0.897584
0.898121
0
0
0.918147
0.918215
0.918017
0.91753
0.916857
0.916065
0.915214
0.914355
0.913518
0.912719
0.911966
0.911263
0.910607
0.909996
0.909427
0.908896
0.908398
0.907933
0.907495
0.907082
0.906694
0.906326
0.905978
0.905648
0.905334
0.905037
0.904753
0.904484
0.904226
0.903981
0.903748
0.903525
0.903312
0.903109
0.902915
0.90273
0.902554
0.902385
0.902224
0.90207
0.901924
0.901784
0.90165
0.901523
0.901401
0.901285
0.901174
0.901068
0.900966
0.90087
0.900777
0.900688
0.900603
0.900522
0.900444
0.900369
0.900296
0.900226
0.900159
0.900094
0.90003
0.899969
0.899908
0.89985
0.899792
0.899735
0.89968
0.899625
0.89957
0.899516
0.899463
0.89941
0.899357
0.899305
0.899253
0.899201
0.89915
0.899099
0.899048
0.898999
0.89895
0.898903
0.898857
0.898812
0.89877
0.898729
0.898691
0.898656
0.898624
0.898596
0.898572
0.898551
0.898535
0.898523
0.898517
0.898515
0.898518
0.898526
0.89854
0.898558
0.898581
0.898609
0.898642
0.898678
0.898718
0.898762
0.898809
0.898858
0.89891
0.898964
0.899019
0.899074
0.899131
0.899187
0.899244
0.8993
0.899355
0.899409
0.899462
0.899514
0.899564
0.899612
0.899658
0.899703
0.899745
0.899786
0.899825
0.899861
0.899896
0.899929
0.899959
0.899988
0.900015
0.90004
0.900064
0.900085
0.900106
0.900124
0.900141
0.900156
0.90017
0.900183
0.900194
0.900204
0.900212
0.90022
0.900226
0.900231
0.900235
0.900238
0.90024
0.900241
0.900242
0.900241
0.900239
0.900237
0.900234
0.90023
0.900225
0.90022
0.900214
0.900207
0.9002
0.900192
0.900184
0.900175
0.900166
0.900157
0.900147
0.900136
0.900125
0.900114
0.900103
0.900092
0.90008
0.900068
0.900056
0.900044
0.900032
0.900019
0.900007
0.899995
0.899983
0.899971
0.899959
0.899947
0.899935
0.899924
0.899913
0.899902
0.899891
0.899881
0.899871
0.899861
0.899852
0.899843
0.899834
0.899826
0.899818
0.899811
0.899804
0.899798
0.899793
0.899787
0.899783
0.899778
0.899775
0.899772
0.899769
0.899767
0.899766
0.899765
0.899764
0.899764
0.899765
0.899766
0.899768
0.89977
0.899773
0.899776
0.899779
0.899783
0.899788
0.899792
0.899798
0.899803
0.899809
0.899816
0.899822
0.899829
0.899837
0.899844
0.899852
0.89986
0.899868
0.899877
0.899885
0.899894
0.899903
0.899912
0.899921
0.89993
0.89994
0.899949
0.899958
0.899968
0.899977
0.899987
0.899996
0.900006
0.900015
0.900024
0.900034
0.900043
0.900052
0.900062
0.900071
0.90008
0.900089
0.900098
0.900107
0.900115
0.900124
0.900133
0.900141
0.90015
0.900158
0.900167
0.900175
0.900183
0.900192
0.9002
0.900208
0.900217
0.900225
0.900233
0.900241
0.900249
0.900258
0.900266
0.900274
0.900283
0.900291
0.900299
0.900308
0.900316
0.900325
0.900334
0.900343
0.900352
0.900361
0.90037
0.900379
0.900389
0.900398
0.900408
0.900418
0.900428
0.900439
0.90045
0.900461
0.900472
0.900484
0.900496
0.900508
0.900521
0.900534
0.900548
0.900562
0.900577
0.900592
0.900608
0.900625
0.900642
0.900661
0.90068
0.9007
0.900721
0.900744
0.900767
0.900791
0.900817
0.900845
0.900873
0.900904
0.900935
0.900969
0.901004
0.901042
0.901081
0.901122
0.901166
0.901211
0.901259
0.901309
0.901362
0.901417
0.901475
0.901535
0.901598
0.901663
0.901731
0.901802
0.901875
0.90195
0.902028
0.902109
0.902191
0.902275
0.902362
0.90245
0.902539
0.902629
0.90272
0.902812
0.902904
0.902995
0.903086
0.903175
0.903262
0.903347
0.903429
0.903507
0.903581
0.90365
0.903713
0.90377
0.903819
0.903861
0.903893
0.903915
0.903927
0.903927
0.903915
0.90389
0.90385
0.903795
0.903724
0.903636
0.90353
0.903405
0.90326
0.903093
0.902904
0.90269
0.902451
0.902185
0.90189
0.901565
0.901209
0.900822
0.900408
0.899973
0.899535
0.89912
0.898762
0.898531
0.898473
0.898641
0.899104
0
0
0.916494
0.916608
0.916497
0.916173
0.915692
0.915088
0.914414
0.913705
0.912992
0.912292
0.911619
0.910978
0.910372
0.909801
0.909263
0.908758
0.908281
0.907833
0.907409
0.907008
0.906629
0.90627
0.905929
0.905605
0.905296
0.905003
0.904723
0.904457
0.904202
0.90396
0.903728
0.903507
0.903296
0.903094
0.902901
0.902718
0.902542
0.902374
0.902214
0.902061
0.901915
0.901776
0.901643
0.901516
0.901395
0.901279
0.901169
0.901063
0.900962
0.900866
0.900774
0.900686
0.900602
0.900521
0.900443
0.900369
0.900297
0.900228
0.900161
0.900096
0.900033
0.899972