# vtk DataFile Version 2.0
LBE mesh
ASCII
DATASET STRUCTURED_POINTS
DIMENSIONS 402 102 1
ASPECT_RATIO 1 1 1
ORIGIN 0 0 0
POINT_DATA 41004
SCALARS rho double 1
LOOKUP_TABLE default
0
0
0
0
0
0
0
0
0
0
0
0
0
0
0
0
0
0
0
0
0
0
0
0
0
0
0
0
0
0
0
0
0
0
0
0
0
0
0
0
0
0
0
0
0
0
0
0
0
0
0
0
0
0
0
0
0
0
0
0
0
0
0
0
0
0
0
0
0
0
0
0
0
0
0
0
0
0
0
0
0
0
0
0
0
0
0
0
0
0
0
0
0
0
0
0
0
0
0
0
0
0
0
0
0
0
0
0
0
0
0
0
0
0
0
0
0
0
0
0
0
0
0
0
0
0
0
0
0
0
0
0
0
0
0
0
0
0
0
0
0
0
0
0
0
0
0
0
0
0
0
0
0
0
0
0
0
0
0
0
0
0
0
0
0
0
0
0
0
0
0
0
0
0
0
0
0
0
0
0
0
0
0
0
0
0
0
0
0
0
0
0
0
0
0
0
0
0
0
0
0
0
0
0
0
0
0
0
0
0
0
0
0
0
0
0
0
0
0
0
0
0
0
0
0
0
0
0
0
0
0
0
0
0
0
0
0
0
0
0
0
0
0
0
0
0
0
0
0
0
0
0
0
0
0
0
0
0
0
0
0
0
0
0
0
0
0
0
0
0
0
0
0
0
0
0
0
0
0
0
0
0
0
0
0
0
0
0
0
0
0
0
0
0
0
0
0
0
0
0
0
0
0
0
0
0
0
0
0
0
0
0
0
0
0
0
0
0
0
0
0
0
0
0
0
0
0
0
0
0
0
0
0
0
0
0
0
0
0
0
0
0
0
0
0
0
0
0
0
0
0
0
0
0
0
0
0
0
0
0
0
0
0
0
0
0
0
0
0
0
0
0
0
0
0
0
0
0
0
0
0
0
0
0
0
0
0
0
0
0
0
0
0
0
0
0
0
0
0
0
0
0
0
0.922211
0.988853
0.976257
0.968427
0.964808
0.962455
0.960528
0.958941
0.957625
0.956503
0.955525
0.95466
0.953886
0.953188
0.952554
0.951975
0.951446
0.950959
0.950511
0.950098
0.949717
0.949365
0.949041
0.948742
0.948467
0.948214
0.947982
0.94777
0.947576
0.9474
0.94724
0.947096
0.946967
0.946852
0.94675
0.946661
0.946583
0.946517
0.946461
0.946414
0.946377
0.946349
0.946328
0.946314
0.946308
0.946307
0.946313
0.946323
0.946338
0.946357
0.94638
0.946406
0.946434
0.946465
0.946498
0.946532
0.946568
0.946604
0.94664
0.946677
0.946714
0.94675
0.946785
0.94682
0.946853
0.946886
0.946917
0.946947
0.946975
0.947002
0.947028
0.947052
0.947075
0.947097
0.947117
0.947137
0.947155
0.947174
0.947192
0.94721
0.947227
0.947246
0.947265
0.947285
0.947307
0.94733
0.947355
0.947383
0.947413
0.947446
0.947481
0.947521
0.947563
0.94761
0.947659
0.947713
0.947771
0.947832
0.947897
0.947966
0.948038
0.948114
0.948193
0.948275
0.948359
0.948446
0.948535
0.948626
0.948718
0.948811
0.948905
0.949
0.949095
0.949189
0.949283
0.949377
0.94947
0.949561
0.949652
0.94974
0.949827
0.949912
0.949995
0.950076
0.950155
0.950232
0.950305
0.950377
0.950446
0.950513
0.950576
0.950638
0.950696
0.950752
0.950806
0.950856
0.950905
0.95095
0.950994
0.951035
0.951073
0.951109
0.951143
0.951175
0.951205
0.951233
0.951259
0.951283
0.951306
0.951328
0.951347
0.951366
0.951384
0.9514
0.951416
0.951431
0.951445
0.951458
0.951471
0.951484
0.951497
0.951509
0.951521
0.951533
0.951545
0.951558
0.95157
0.951582
0.951595
0.951608
0.951621
0.951635
0.951648
0.951662
0.951677
0.951692
0.951707
0.951722
0.951738
0.951754
0.95177
0.951787
0.951804
0.951821
0.951839
0.951857
0.951875
0.951893
0.951911
0.95193
0.951949
0.951969
0.951988
0.952008
0.952028
0.952048
0.952069
0.95209
0.952111
0.952132
0.952153
0.952175
0.952196
0.952219
0.952241
0.952263
0.952286
0.952309
0.952332
0.952355
0.952379
0.952403
0.952427
0.952451
0.952476
0.952501
0.952526
0.952551
0.952577
0.952603
0.952629
0.952655
0.952682
0.952709
0.952736
0.952764
0.952792
0.95282
0.952849
0.952878
0.952907
0.952937
0.952967
0.952997
0.953027
0.953058
0.953089
0.953121
0.953153
0.953185
0.953217
0.953249
0.953282
0.953315
0.953348
0.953381
0.953414
0.953448
0.953481
0.953515
0.953548
0.953582
0.953616
0.95365
0.953684
0.953717
0.953751
0.953785
0.953819
0.953854
0.953888
0.953922
0.953957
0.953991
0.954026
0.954062
0.954097
0.954133
0.954169
0.954206
0.954243
0.954281
0.954319
0.954359
0.954398
0.954439
0.95448
0.954523
0.954566
0.95461
0.954655
0.954701
0.954748
0.954797
0.954846
0.954897
0.954948
0.955001
0.955055
0.95511
0.955166
0.955223
0.955281
0.95534
0.9554
0.955461
0.955523
0.955586
0.955649
0.955713
0.955778
0.955843
0.955909
0.955975
0.956042
0.956109
0.956176
0.956243
0.95631
0.956378
0.956445
0.956512
0.956579
0.956646
0.956712
0.956778
0.956844
0.956909
0.956973
0.957038
0.957101
0.957164
0.957227
0.957289
0.95735
0.957411
0.957471
0.95753
0.957589
0.957647
0.957705
0.957762
0.957818
0.957874
0.957929
0.957984
0.958038
0.958091
0.958144
0.958197
0.958249
0.9583
0.958351
0.958402
0.958452
0.958502
0.958551
0.958599
0.958647
0.958695
0.958741
0.958788
0.958833
0.958877
0.958921
0.958964
0.959005
0.959046
0.959085
0.959123
0.959159
0.959193
0.959226
0.959256
0.959285
0.95931
0.959334
0.959354
0.959371
0.959384
0.959394
0.9594
0.959402
0.959399
0.959392
0.959378
0.959359
0.959334
0.959303
0.959263
0.959216
0.959159
0.959093
0.959015
0.958923
0.958816
0.958689
0.958539
0.958357
0.958135
0.957861
0.957515
0.957043
0.95632
0.955227
0.954031
0.953307
0.949312
0.9155
0.815894
0
0
0.989757
0.982391
0.974516
0.970042
0.966199
0.963331
0.96119
0.959493
0.958082
0.956882
0.955844
0.954932
0.954122
0.953395
0.952737
0.952139
0.951593
0.951092
0.950632
0.950209
0.949819
0.949459
0.949128
0.948822
0.948541
0.948283
0.948046
0.947829
0.947631
0.947451
0.947288
0.947141
0.947008
0.94689
0.946786
0.946694
0.946614
0.946545
0.946487
0.946439
0.946399
0.946369
0.946347
0.946332
0.946324
0.946322
0.946326
0.946335
0.946349
0.946367
0.946389
0.946414
0.946442
0.946472
0.946504
0.946538
0.946573
0.946609
0.946645
0.946682
0.946718
0.946754
0.946789
0.946824
0.946857
0.94689
0.946921
0.946951
0.94698
0.947007
0.947033
0.947058
0.947081
0.947103
0.947123
0.947144
0.947163
0.947181
0.947199
0.947218
0.947236
0.947255
0.947274
0.947294
0.947316
0.947339
0.947364
0.947392
0.947421
0.947454
0.947489
0.947528
0.94757
0.947616
0.947665
0.947718
0.947775
0.947835
0.947899
0.947967
0.948039
0.948114
0.948191
0.948273
0.948356
0.948442
0.94853
0.94862
0.948711
0.948804
0.948897
0.948992
0.949086
0.94918
0.949274
0.949367
0.94946
0.949551
0.949641
0.94973
0.949817
0.949902
0.949985
0.950066
0.950144
0.950221
0.950295
0.950367
0.950436
0.950503
0.950566
0.950628
0.950687
0.950743
0.950797
0.950848
0.950896
0.950942
0.950986
0.951027
0.951066
0.951102
0.951136
0.951169
0.951199
0.951227
0.951254
0.951279
0.951301
0.951323
0.951343
0.951363
0.95138
0.951397
0.951413
0.951428
0.951442
0.951457
0.95147
0.951483
0.951495
0.951508
0.95152
0.951533
0.951545
0.951557
0.951569
0.951582
0.951595
0.951608
0.951621
0.951635
0.951649
0.951663
0.951677
0.951692
0.951707
0.951723
0.951738
0.951755
0.951771
0.951788
0.951805
0.951822
0.951839
0.951857
0.951875
0.951894
0.951912
0.951931
0.95195
0.95197
0.951989
0.952009
0.952029
0.952049
0.952069
0.95209
0.952111
0.952132
0.952153
0.952175
0.952197
0.952219
0.952241
0.952263
0.952286
0.952309
0.952332
0.952355
0.952379
0.952403
0.952426
0.952451
0.952475
0.9525
0.952525
0.95255
0.952576
0.952602
0.952628
0.952654
0.952681
0.952708
0.952735
0.952763
0.952791
0.952819
0.952847
0.952876
0.952906
0.952935
0.952965
0.952995
0.953026
0.953056
0.953087
0.953119
0.95315
0.953182
0.953215
0.953247
0.953279
0.953312
0.953345
0.953378
0.953411
0.953445
0.953478
0.953512
0.953545
0.953579
0.953613
0.953647
0.95368
0.953714
0.953748
0.953782
0.953816
0.95385
0.953884
0.953919
0.953953
0.953988
0.954023
0.954058
0.954094
0.95413
0.954166
0.954203
0.95424
0.954278
0.954316
0.954355
0.954395
0.954435
0.954477
0.954519
0.954562
0.954606
0.954651
0.954697
0.954744
0.954792
0.954842
0.954892
0.954943
0.954996
0.95505
0.955104
0.95516
0.955217
0.955275
0.955334
0.955394
0.955454
0.955516
0.955578
0.955642
0.955705
0.95577
0.955835
0.9559
0.955966
0.956033
0.956099
0.956166
0.956233
0.9563
0.956367
0.956433
0.9565
0.956567
0.956633
0.956699
0.956765
0.95683
0.956895
0.956959
0.957023
0.957086
0.957149
0.957211
0.957272
0.957333
0.957393
0.957453
0.957512
0.95757
0.957627
0.957684
0.957741
0.957796
0.957852
0.957906
0.95796
0.958013
0.958066
0.958118
0.95817
0.958221
0.958271
0.958321
0.958371
0.95842
0.958468
0.958516
0.958564
0.95861
0.958656
0.958701
0.958746
0.95879
0.958833
0.958875
0.958915
0.958955
0.958994
0.959031
0.959066
0.9591
0.959132
0.959162
0.959189
0.959215
0.959237
0.959257
0.959273
0.959286
0.959296
0.959301
0.959302
0.959298
0.959289
0.959274
0.959254
0.959226
0.959191
0.959148
0.959096
0.959034
0.958961
0.958875
0.958773
0.958653
0.958511
0.958342
0.95814
0.957893
0.957587
0.957198
0.956685
0.956
0.955099
0.953838
0.951522
0.946331
0.937742
0.929636
0.917742
0
0
0.986078
0.976943
0.973684
0.969753
0.966197
0.963554
0.961472
0.959757
0.958319
0.957095
0.956034
0.955102
0.954273
0.95353
0.95286
0.95225
0.951694
0.951185
0.950717
0.950287
0.949891
0.949526
0.94919
0.94888
0.948595
0.948333
0.948092
0.947872
0.947672
0.947489
0.947323
0.947173
0.947039
0.946919
0.946812
0.946718
0.946637
0.946566
0.946507
0.946457
0.946416
0.946385
0.946361
0.946345
0.946336
0.946334
0.946336
0.946345
0.946358
0.946376
0.946397
0.946421
0.946448
0.946478
0.94651
0.946543
0.946578
0.946614
0.946649
0.946686
0.946722
0.946758
0.946793
0.946828
0.946862
0.946895
0.946926
0.946956
0.946985
0.947013
0.947039
0.947064
0.947087
0.947109
0.94713
0.947151
0.94717
0.947189
0.947207
0.947226
0.947244
0.947263
0.947282
0.947303
0.947324
0.947347
0.947372
0.947399
0.947428
0.94746
0.947495
0.947533
0.947575
0.94762
0.947668
0.94772
0.947776
0.947836
0.947899
0.947967
0.948037
0.948111
0.948188
0.948268
0.948351
0.948437
0.948524
0.948614
0.948704
0.948797
0.94889
0.948984
0.949077
0.949171
0.949265
0.949358
0.94945
0.949542
0.949631
0.94972
0.949807
0.949892
0.949975
0.950056
0.950134
0.950211
0.950285
0.950357
0.950426
0.950493
0.950557
0.950619
0.950677
0.950734
0.950787
0.950839
0.950887
0.950934
0.950977
0.951019
0.951058
0.951095
0.951129
0.951162
0.951192
0.951221
0.951248
0.951273
0.951296
0.951318
0.951339
0.951358
0.951376
0.951393
0.951409
0.951425
0.95144
0.951454
0.951467
0.951481
0.951493
0.951506
0.951519
0.951531
0.951544
0.951556
0.951569
0.951582
0.951594
0.951608
0.951621
0.951635
0.951649
0.951663
0.951677
0.951692
0.951707
0.951723
0.951739
0.951755
0.951771
0.951788
0.951805
0.951822
0.95184
0.951858
0.951876
0.951894
0.951912
0.951931
0.95195
0.95197
0.951989
0.952009
0.952028
0.952049
0.952069
0.95209
0.95211
0.952131
0.952153
0.952174
0.952196
0.952218
0.95224
0.952262
0.952285
0.952307
0.95233
0.952354
0.952377
0.952401
0.952425
0.952449
0.952473
0.952498
0.952523
0.952548
0.952574
0.9526
0.952625
0.952652
0.952678
0.952705
0.952733
0.95276
0.952788
0.952816
0.952845
0.952874
0.952903
0.952932
0.952962
0.952992
0.953023
0.953054
0.953084
0.953116
0.953147
0.953179
0.953211
0.953244
0.953276
0.953309
0.953342
0.953375
0.953408
0.953441
0.953475
0.953508
0.953542
0.953575
0.953609
0.953643
0.953676
0.95371
0.953744
0.953778
0.953812
0.953846
0.95388
0.953915
0.953949
0.953984
0.954019
0.954054
0.95409
0.954125
0.954162
0.954198
0.954236
0.954273
0.954312
0.954351
0.95439
0.954431
0.954472
0.954514
0.954557
0.954601
0.954646
0.954692
0.954739
0.954787
0.954836
0.954886
0.954937
0.95499
0.955043
0.955098
0.955153
0.95521
0.955267
0.955326
0.955385
0.955446
0.955507
0.955569
0.955632
0.955696
0.95576
0.955824
0.955889
0.955955
0.956021
0.956087
0.956153
0.95622
0.956286
0.956353
0.956419
0.956486
0.956552
0.956618
0.956683
0.956749
0.956813
0.956878
0.956942
0.957005
0.957068
0.95713
0.957192
0.957253
0.957313
0.957373
0.957432
0.95749
0.957548
0.957605
0.957661
0.957717
0.957772
0.957826
0.95788
0.957933
0.957986
0.958038
0.958089
0.95814
0.95819
0.95824
0.958289
0.958337
0.958385
0.958433
0.95848
0.958526
0.958571
0.958616
0.95866
0.958703
0.958745
0.958787
0.958827
0.958866
0.958904
0.958941
0.958976
0.959009
0.959041
0.959071
0.959098
0.959123
0.959146
0.959166
0.959182
0.959195
0.959205
0.95921
0.959211
0.959207
0.959198
0.959184
0.959163
0.959135
0.959099
0.959056
0.959003
0.958939
0.958864
0.958775
0.95867
0.958548
0.958403
0.958232
0.958027
0.957781
0.957481
0.957109
0.956642
0.956041
0.955236
0.954104
0.952517
0.950381
0.947002
0.940649
0.936943
0.942617
0
0
0.975972
0.973513
0.971399
0.968165
0.965568
0.963315
0.961376
0.959742
0.958352
0.95715
0.956098
0.955169
0.95434
0.953595
0.952922
0.952309
0.951749
0.951237
0.950766
0.950333
0.949934
0.949566
0.949227
0.948915
0.948628
0.948364
0.948121
0.9479
0.947697
0.947513
0.947345
0.947194
0.947058
0.946937
0.946829
0.946735
0.946652
0.94658
0.94652
0.946469
0.946428
0.946396
0.946371
0.946355
0.946345
0.946342
0.946344
0.946352
0.946365
0.946382
0.946403
0.946427
0.946454
0.946483
0.946515
0.946548
0.946582
0.946618
0.946654
0.94669
0.946726
0.946762
0.946798
0.946833
0.946866
0.946899
0.946931
0.946961
0.94699
0.947018
0.947045
0.94707
0.947093
0.947116
0.947137
0.947158
0.947177
0.947196
0.947215
0.947233
0.947251
0.94727
0.947289
0.94731
0.947331
0.947354
0.947378
0.947405
0.947433
0.947465
0.947499
0.947536
0.947577
0.947621
0.947669
0.94772
0.947775
0.947834
0.947897
0.947963
0.948033
0.948107
0.948183
0.948263
0.948345
0.94843
0.948517
0.948606
0.948697
0.948789
0.948882
0.948975
0.949069
0.949163
0.949256
0.949349
0.949441
0.949533
0.949622
0.949711
0.949797
0.949883
0.949965
0.950046
0.950125
0.950202
0.950276
0.950347
0.950416
0.950483
0.950547
0.950609
0.950668
0.950725
0.950778
0.95083
0.950879
0.950925
0.950969
0.951011
0.95105
0.951087
0.951122
0.951154
0.951185
0.951214
0.951241
0.951266
0.95129
0.951312
0.951333
0.951353
0.951371
0.951389
0.951405
0.951421
0.951436
0.951451
0.951464
0.951478
0.951491
0.951504
0.951517
0.951529
0.951542
0.951555
0.951567
0.95158
0.951593
0.951607
0.95162
0.951634
0.951648
0.951663
0.951677
0.951692
0.951707
0.951723
0.951738
0.951755
0.951771
0.951788
0.951805
0.951822
0.951839
0.951857
0.951875
0.951894
0.951912
0.951931
0.95195
0.951969
0.951988
0.952008
0.952028
0.952048
0.952068
0.952088
0.952109
0.95213
0.952151
0.952172
0.952194
0.952216
0.952238
0.95226
0.952282
0.952305
0.952328
0.952351
0.952374
0.952398
0.952422
0.952446
0.95247
0.952495
0.95252
0.952545
0.95257
0.952596
0.952622
0.952648
0.952675
0.952702
0.952729
0.952756
0.952784
0.952812
0.952841
0.95287
0.952899
0.952928
0.952958
0.952988
0.953019
0.953049
0.95308
0.953112
0.953143
0.953175
0.953207
0.953239
0.953272
0.953305
0.953337
0.95337
0.953404
0.953437
0.95347
0.953504
0.953537
0.953571
0.953604
0.953638
0.953672
0.953706
0.95374
0.953774
0.953808
0.953842
0.953876
0.95391
0.953945
0.953979
0.954014
0.954049
0.954085
0.954121
0.954157
0.954194
0.954231
0.954268
0.954307
0.954345
0.954385
0.954425
0.954466
0.954508
0.954551
0.954595
0.95464
0.954686
0.954732
0.95478
0.954829
0.954879
0.95493
0.954982
0.955035
0.955089
0.955144
0.955201
0.955258
0.955316
0.955375
0.955435
0.955496
0.955558
0.95562
0.955684
0.955747
0.955812
0.955876
0.955941
0.956007
0.956073
0.956138
0.956205
0.956271
0.956337
0.956403
0.956469
0.956534
0.9566
0.956665
0.95673
0.956794
0.956858
0.956921
0.956984
0.957047
0.957108
0.957169
0.95723
0.95729
0.957349
0.957407
0.957465
0.957522
0.957579
0.957635
0.95769
0.957744
0.957798
0.957851
0.957904
0.957956
0.958007
0.958057
0.958108
0.958157
0.958206
0.958254
0.958302
0.958349
0.958395
0.958441
0.958486
0.958531
0.958574
0.958617
0.958659
0.9587
0.95874
0.958779
0.958817
0.958853
0.958888
0.958922
0.958953
0.958983
0.959011
0.959036
0.959059
0.959079
0.959096
0.95911
0.95912
0.959127
0.959129
0.959126
0.959118
0.959104
0.959084
0.959058
0.959024
0.958981
0.95893
0.958868
0.958794
0.958708
0.958606
0.958487
0.958347
0.958183
0.95799
0.95776
0.957485
0.957152
0.956745
0.956237
0.955596
0.954783
0.953728
0.952271
0.95024
0.948048
0.946074
0.944394
0.947058
0
0
0.96993
0.969933
0.96834
0.966407
0.96451
0.962633
0.960961
0.959491
0.958196
0.957054
0.95604
0.955136
0.954324
0.953589
0.952923
0.952315
0.951758
0.951247
0.950778
0.950345
0.949947
0.949579
0.94924
0.948927
0.94864
0.948375
0.948133
0.94791
0.947707
0.947522
0.947355
0.947203
0.947067
0.946945
0.946837
0.946742
0.946659
0.946588
0.946527
0.946476
0.946434
0.946402
0.946377
0.94636
0.94635
0.946347
0.946349
0.946357
0.946369
0.946386
0.946407
0.946431
0.946458
0.946487
0.946519
0.946552
0.946586
0.946622
0.946658
0.946694
0.94673
0.946767
0.946802
0.946837
0.946871
0.946904
0.946936
0.946967
0.946996
0.947024
0.947051
0.947076
0.9471
0.947123
0.947144
0.947165
0.947185
0.947204
0.947222
0.94724
0.947258
0.947277
0.947296
0.947316
0.947336
0.947359
0.947382
0.947408
0.947436
0.947467
0.9475
0.947537
0.947577
0.94762
0.947667
0.947718
0.947772
0.94783
0.947892
0.947958
0.948027
0.9481
0.948176
0.948256
0.948338
0.948423
0.948509
0.948598
0.948689
0.948781
0.948873
0.948967
0.949061
0.949155
0.949248
0.949341
0.949433
0.949524
0.949614
0.949703
0.949789
0.949874
0.949957
0.950038
0.950116
0.950193
0.950267
0.950338
0.950407
0.950474
0.950538
0.9506
0.950659
0.950715
0.950769
0.950821
0.950869
0.950916
0.95096
0.951002
0.951041
0.951078
0.951113
0.951146
0.951177
0.951207
0.951234
0.951259
0.951283
0.951306
0.951327
0.951347
0.951366
0.951384
0.9514
0.951417
0.951432
0.951447
0.951461
0.951474
0.951488
0.951501
0.951514
0.951527
0.95154
0.951553
0.951566
0.951579
0.951592
0.951605
0.951619
0.951633
0.951647
0.951662
0.951676
0.951691
0.951706
0.951722
0.951738
0.951754
0.95177
0.951787
0.951804
0.951821
0.951839
0.951856
0.951874
0.951893
0.951911
0.95193
0.951948
0.951968
0.951987
0.952006
0.952026
0.952046
0.952066
0.952086
0.952107
0.952128
0.952148
0.95217
0.952191
0.952213
0.952234
0.952256
0.952279
0.952301
0.952324
0.952347
0.95237
0.952394
0.952417
0.952441
0.952466
0.95249
0.952515
0.95254
0.952565
0.952591
0.952617
0.952643
0.95267
0.952697
0.952724
0.952751
0.952779
0.952807
0.952836
0.952865
0.952894
0.952923
0.952953
0.952983
0.953013
0.953044
0.953075
0.953107
0.953138
0.95317
0.953202
0.953234
0.953267
0.953299
0.953332
0.953365
0.953398
0.953432
0.953465
0.953499
0.953532
0.953566
0.953599
0.953633
0.953667
0.953701
0.953734
0.953768
0.953802
0.953836
0.953871
0.953905
0.953939
0.953974
0.954009
0.954044
0.954079
0.954115
0.954151
0.954188
0.954225
0.954263
0.954301
0.954339
0.954379
0.954419
0.95446
0.954502
0.954545
0.954588
0.954633
0.954678
0.954725
0.954772
0.954821
0.95487
0.954921
0.954973
0.955025
0.955079
0.955134
0.95519
0.955247
0.955305
0.955364
0.955423
0.955484
0.955545
0.955607
0.95567
0.955733
0.955797
0.955861
0.955926
0.955991
0.956056
0.956121
0.956187
0.956253
0.956318
0.956384
0.956449
0.956514
0.956579
0.956644
0.956708
0.956772
0.956836
0.956899
0.956961
0.957023
0.957084
0.957145
0.957205
0.957264
0.957323
0.957381
0.957438
0.957494
0.95755
0.957606
0.95766
0.957714
0.957767
0.95782
0.957872
0.957923
0.957974
0.958024
0.958073
0.958122
0.95817
0.958217
0.958264
0.95831
0.958356
0.958401
0.958445
0.958489
0.958531
0.958573
0.958614
0.958654
0.958693
0.958731
0.958767
0.958802
0.958836
0.958868
0.958898
0.958927
0.958953
0.958976
0.958997
0.959015
0.95903
0.959041
0.959049
0.959053
0.959051
0.959045
0.959034
0.959016
0.958992
0.958961
0.958921
0.958873
0.958815
0.958746
0.958665
0.958569
0.958458
0.958328
0.958177
0.958
0.957793
0.957549
0.95726
0.956916
0.956502
0.956
0.955385
0.954622
0.953684
0.952567
0.951227
0.949779
0.949012
0.948763
0.949455
0
0
0.966466
0.966596
0.965721
0.964589
0.963166
0.961713
0.960333
0.959049
0.957881
0.956826
0.955873
0.955011
0.954228
0.953516
0.952865
0.952269
0.951722
0.951218
0.950754
0.950326
0.94993
0.949565
0.949228
0.948918
0.948632
0.948368
0.948127
0.947905
0.947703
0.947519
0.947352
0.947201
0.947066
0.946944
0.946837
0.946742
0.946659
0.946588
0.946527
0.946477
0.946436
0.946403
0.946379
0.946362
0.946352
0.946349
0.946352
0.946359
0.946372
0.946389
0.94641
0.946434
0.946461
0.94649
0.946522
0.946555
0.94659
0.946625
0.946661
0.946698
0.946735
0.946771
0.946807
0.946842
0.946876
0.94691
0.946942
0.946973
0.947002
0.947031
0.947057
0.947083
0.947107
0.94713
0.947151
0.947172
0.947192
0.947211
0.947229
0.947247
0.947265
0.947283
0.947301
0.947321
0.947341
0.947362
0.947385
0.947411
0.947438
0.947468
0.9475
0.947536
0.947575
0.947617
0.947663
0.947713
0.947766
0.947824
0.947885
0.947951
0.948019
0.948092
0.948168
0.948247
0.948329
0.948414
0.948501
0.94859
0.94868
0.948772
0.948865
0.948959
0.949053
0.949147
0.94924
0.949333
0.949425
0.949517
0.949606
0.949695
0.949781
0.949866
0.949949
0.95003
0.950108
0.950185
0.950258
0.95033
0.950399
0.950465
0.950529
0.950591
0.950649
0.950706
0.95076
0.950811
0.95086
0.950907
0.950951
0.950993
0.951032
0.951069
0.951104
0.951138
0.951169
0.951198
0.951226
0.951252
0.951276
0.951299
0.95132
0.951341
0.95136
0.951378
0.951395
0.951411
0.951427
0.951442
0.951456
0.95147
0.951484
0.951498
0.951511
0.951524
0.951537
0.95155
0.951563
0.951577
0.95159
0.951604
0.951617
0.951631
0.951646
0.95166
0.951675
0.95169
0.951705
0.951721
0.951737
0.951753
0.951769
0.951786
0.951803
0.95182
0.951837
0.951855
0.951873
0.951891
0.951909
0.951928
0.951946
0.951966
0.951985
0.952004
0.952023
0.952043
0.952063
0.952083
0.952104
0.952124
0.952145
0.952166
0.952187
0.952209
0.95223
0.952252
0.952274
0.952296
0.952319
0.952342
0.952365
0.952388
0.952412
0.952436
0.95246
0.952484
0.952509
0.952534
0.952559
0.952585
0.952611
0.952637
0.952663
0.95269
0.952717
0.952745
0.952773
0.952801
0.952829
0.952858
0.952887
0.952917
0.952947
0.952977
0.953007
0.953038
0.953069
0.9531
0.953132
0.953164
0.953196
0.953228
0.953261
0.953293
0.953326
0.953359
0.953392
0.953426
0.953459
0.953493
0.953526
0.95356
0.953593
0.953627
0.953661
0.953695
0.953728
0.953762
0.953796
0.95383
0.953865
0.953899
0.953933
0.953968
0.954003
0.954038
0.954073
0.954109
0.954145
0.954181
0.954218
0.954256
0.954294
0.954333
0.954372
0.954412
0.954453
0.954494
0.954537
0.95458
0.954624
0.95467
0.954716
0.954763
0.954811
0.954861
0.954911
0.954962
0.955015
0.955068
0.955123
0.955178
0.955235
0.955292
0.95535
0.95541
0.95547
0.95553
0.955592
0.955654
0.955717
0.95578
0.955844
0.955908
0.955972
0.956037
0.956102
0.956167
0.956232
0.956297
0.956362
0.956427
0.956492
0.956556
0.956621
0.956684
0.956748
0.956811
0.956873
0.956935
0.956996
0.957057
0.957117
0.957177
0.957236
0.957294
0.957351
0.957408
0.957464
0.957519
0.957574
0.957628
0.957681
0.957734
0.957786
0.957837
0.957888
0.957938
0.957988
0.958036
0.958084
0.958132
0.958179
0.958225
0.95827
0.958315
0.95836
0.958403
0.958446
0.958488
0.958529
0.958569
0.958608
0.958646
0.958683
0.958718
0.958752
0.958785
0.958815
0.958844
0.958871
0.958896
0.958918
0.958937
0.958954
0.958967
0.958976
0.958982
0.958983
0.958979
0.95897
0.958956
0.958935
0.958907
0.958872
0.958829
0.958776
0.958713
0.958639
0.958552
0.95845
0.958333
0.958196
0.958039
0.957856
0.957643
0.957397
0.957109
0.956771
0.956373
0.955904
0.955352
0.954702
0.953942
0.953093
0.952252
0.95147
0.950994
0.951138
0.951653
0
0
0.963923
0.963961
0.96355
0.962798
0.961784
0.960686
0.959562
0.958472
0.957445
0.956491
0.955612
0.954804
0.954063
0.953381
0.952754
0.952176
0.951643
0.951151
0.950696
0.950275
0.949886
0.949526
0.949194
0.948887
0.948604
0.948344
0.948104
0.947885
0.947685
0.947503
0.947338
0.947188
0.947054
0.946934
0.946828
0.946734
0.946652
0.946582
0.946522
0.946472
0.946432
0.9464
0.946377
0.946361
0.946351
0.946348
0.946351
0.94636
0.946373
0.94639
0.946411
0.946435
0.946463
0.946493
0.946524
0.946558
0.946593
0.946629
0.946665
0.946702
0.946738
0.946775
0.946811
0.946847
0.946881
0.946915
0.946947
0.946979
0.947008
0.947037
0.947064
0.94709
0.947114
0.947137
0.947158
0.947179
0.947198
0.947217
0.947235
0.947253
0.94727
0.947288
0.947306
0.947325
0.947344
0.947365
0.947387
0.947411
0.947437
0.947466
0.947498
0.947532
0.94757
0.947612
0.947657
0.947706
0.947759
0.947816
0.947876
0.947941
0.94801
0.948082
0.948158
0.948237
0.948319
0.948404
0.948491
0.94858
0.948671
0.948764
0.948857
0.948951
0.949045
0.949139
0.949233
0.949326
0.949418
0.94951
0.949599
0.949688
0.949774
0.949859
0.949942
0.950022
0.950101
0.950177
0.95025
0.950322
0.95039
0.950457
0.95052
0.950582
0.95064
0.950697
0.95075
0.950802
0.95085
0.950897
0.950941
0.950983
0.951022
0.95106
0.951095
0.951129
0.95116
0.95119
0.951217
0.951244
0.951268
0.951291
0.951313
0.951334
0.951353
0.951372
0.951389
0.951406
0.951421
0.951437
0.951451
0.951466
0.95148
0.951494
0.951507
0.951521
0.951534
0.951547
0.95156
0.951574
0.951588
0.951601
0.951615
0.951629
0.951644
0.951658
0.951673
0.951688
0.951704
0.951719
0.951735
0.951751
0.951768
0.951784
0.951801
0.951818
0.951836
0.951853
0.951871
0.951889
0.951907
0.951926
0.951944
0.951963
0.951982
0.952001
0.95202
0.95204
0.95206
0.95208
0.9521
0.95212
0.952141
0.952161
0.952182
0.952204
0.952225
0.952247
0.952268
0.952291
0.952313
0.952336
0.952358
0.952382
0.952405
0.952429
0.952453
0.952477
0.952502
0.952527
0.952552
0.952577
0.952603
0.952629
0.952656
0.952682
0.95271
0.952737
0.952765
0.952793
0.952822
0.952851
0.95288
0.952909
0.952939
0.952969
0.953
0.953031
0.953062
0.953093
0.953125
0.953157
0.953189
0.953221
0.953254
0.953287
0.953319
0.953353
0.953386
0.953419
0.953452
0.953486
0.953519
0.953553
0.953587
0.953621
0.953654
0.953688
0.953722
0.953756
0.95379
0.953824
0.953858
0.953892
0.953927
0.953961
0.953996
0.954031
0.954066
0.954102
0.954138
0.954174
0.954211
0.954248
0.954286
0.954325
0.954364
0.954404
0.954444
0.954486
0.954528
0.954571
0.954615
0.95466
0.954706
0.954753
0.954801
0.95485
0.9549
0.954951
0.955003
0.955056
0.95511
0.955165
0.955221
0.955278
0.955335
0.955394
0.955454
0.955514
0.955575
0.955636
0.955699
0.955761
0.955824
0.955888
0.955952
0.956016
0.956081
0.956145
0.95621
0.956274
0.956339
0.956403
0.956467
0.956531
0.956595
0.956658
0.956721
0.956783
0.956845
0.956907
0.956968
0.957028
0.957087
0.957146
0.957205
0.957262
0.957319
0.957376
0.957431
0.957486
0.95754
0.957594
0.957647
0.957699
0.95775
0.957801
0.957851
0.957901
0.95795
0.957998
0.958046
0.958092
0.958139
0.958184
0.958229
0.958274
0.958317
0.95836
0.958402
0.958443
0.958484
0.958523
0.958561
0.958599
0.958635
0.958669
0.958702
0.958734
0.958764
0.958792
0.958818
0.958841
0.958862
0.95888
0.958895
0.958907
0.958914
0.958918
0.958918
0.958912
0.958901
0.958884
0.958861
0.958831
0.958793
0.958746
0.958691
0.958624
0.958547
0.958456
0.958352
0.958231
0.958092
0.957933
0.95775
0.957541
0.9573
0.957023
0.956706
0.956341
0.955923
0.955447
0.954915
0.954337
0.953732
0.953171
0.952754
0.952525
0.952693
0.953248
0
0
0.961819
0.961893
0.961685
0.961172
0.960461
0.959623
0.958722
0.957812
0.956924
0.956076
0.955277
0.954531
0.953838
0.953193
0.952595
0.952041
0.951526
0.951049
0.950607
0.950196
0.949816
0.949464
0.949138
0.948836
0.948558
0.948302
0.948067
0.947851
0.947654
0.947475
0.947312
0.947165
0.947033
0.946915
0.946811
0.946719
0.946639
0.94657
0.946512
0.946463
0.946424
0.946393
0.946371
0.946355
0.946347
0.946345
0.946349
0.946357
0.946371
0.946389
0.946411
0.946435
0.946463
0.946494
0.946526
0.94656
0.946595
0.946631
0.946668
0.946705
0.946742
0.946779
0.946815
0.946851
0.946886
0.94692
0.946953
0.946984
0.947014
0.947043
0.94707
0.947096
0.94712
0.947144
0.947165
0.947186
0.947205
0.947224
0.947241
0.947259
0.947275
0.947293
0.94731
0.947327
0.947346
0.947366
0.947387
0.94741
0.947435
0.947463
0.947493
0.947527
0.947564
0.947604
0.947648
0.947697
0.947749
0.947805
0.947865
0.94793
0.947998
0.948071
0.948146
0.948226
0.948308
0.948393
0.948481
0.94857
0.948662
0.948755
0.948848
0.948943
0.949037
0.949132
0.949226
0.94932
0.949412
0.949504
0.949593
0.949682
0.949768
0.949853
0.949935
0.950016
0.950094
0.95017
0.950243
0.950314
0.950382
0.950448
0.950512
0.950573
0.950631
0.950687
0.950741
0.950792
0.950841
0.950887
0.950931
0.950973
0.951013
0.95105
0.951086
0.951119
0.951151
0.951181
0.951208
0.951235
0.95126
0.951283
0.951305
0.951326
0.951346
0.951365
0.951382
0.951399
0.951415
0.951431
0.951446
0.951461
0.951475
0.951489
0.951503
0.951517
0.95153
0.951544
0.951557
0.951571
0.951585
0.951599
0.951613
0.951627
0.951642
0.951656
0.951671
0.951687
0.951702
0.951718
0.951733
0.95175
0.951766
0.951783
0.951799
0.951816
0.951834
0.951851
0.951869
0.951887
0.951905
0.951923
0.951941
0.95196
0.951979
0.951998
0.952017
0.952036
0.952055
0.952075
0.952095
0.952115
0.952135
0.952156
0.952177
0.952198
0.952219
0.95224
0.952262
0.952284
0.952306
0.952328
0.952351
0.952374
0.952397
0.952421
0.952445
0.952469
0.952493
0.952518
0.952543
0.952569
0.952594
0.95262
0.952647
0.952674
0.952701
0.952728
0.952756
0.952784
0.952813
0.952842
0.952871
0.952901
0.95293
0.952961
0.952991
0.953022
0.953053
0.953085
0.953117
0.953149
0.953181
0.953213
0.953246
0.953279
0.953312
0.953345
0.953378
0.953412
0.953445
0.953479
0.953512
0.953546
0.953579
0.953613
0.953647
0.953681
0.953715
0.953749
0.953782
0.953817
0.953851
0.953885
0.953919
0.953954
0.953988
0.954023
0.954059
0.954094
0.95413
0.954166
0.954203
0.95424
0.954278
0.954316
0.954355
0.954395
0.954435
0.954476
0.954518
0.954561
0.954605
0.954649
0.954695
0.954741
0.954789
0.954837
0.954887
0.954937
0.954989
0.955042
0.955095
0.95515
0.955205
0.955262
0.955319
0.955377
0.955436
0.955496
0.955556
0.955617
0.955679
0.955741
0.955803
0.955866
0.95593
0.955993
0.956057
0.956121
0.956185
0.956249
0.956313
0.956377
0.956441
0.956504
0.956567
0.95663
0.956692
0.956754
0.956815
0.956876
0.956937
0.956996
0.957056
0.957114
0.957172
0.957229
0.957286
0.957342
0.957397
0.957451
0.957505
0.957558
0.95761
0.957662
0.957713
0.957763
0.957813
0.957862
0.957911
0.957958
0.958005
0.958052
0.958098
0.958143
0.958187
0.958231
0.958274
0.958317
0.958358
0.958399
0.958439
0.958477
0.958515
0.958552
0.958587
0.958621
0.958654
0.958685
0.958714
0.958741
0.958766
0.958789
0.958809
0.958826
0.95884
0.95885
0.958857
0.958859
0.958857
0.95885
0.958838
0.958819
0.958794
0.958762
0.958723
0.958674
0.958617
0.958549
0.95847
0.958378
0.958273
0.958152
0.958015
0.957858
0.95768
0.957479
0.957251
0.956994
0.956704
0.956379
0.956019
0.955623
0.955199
0.954763
0.954344
0.953977
0.953737
0.953674
0.953846
0.954324
0
0
0.960067
0.960191
0.960077
0.959735
0.959224
0.958582
0.957864
0.957109
0.956349
0.955604
0.954887
0.954206
0.953564
0.95296
0.952396
0.951868
0.951376
0.950917
0.95049
0.950092
0.949723
0.94938
0.949062
0.948768
0.948496
0.948246
0.948016
0.947804
0.947612
0.947436
0.947277
0.947133
0.947004
0.946888
0.946787
0.946697
0.946619
0.946552
0.946496
0.946449
0.946411
0.946382
0.946361
0.946347
0.94634
0.946339
0.946343
0.946353
0.946368
0.946386
0.946409
0.946434
0.946463
0.946494
0.946526
0.946561
0.946597
0.946633
0.94667
0.946708