# vtk DataFile Version 2.0
LBE mesh
ASCII
DATASET STRUCTURED_POINTS
DIMENSIONS 402 102 1
ASPECT_RATIO 1 1 1
ORIGIN 0 0 0
POINT_DATA 41004
SCALARS rho double 1
LOOKUP_TABLE default
0
0
0
0
0
0
0
0
0
0
0
0
0
0
0
0
0
0
0
0
0
0
0
0
0
0
0
0
0
0
0
0
0
0
0
0
0
0
0
0
0
0
0
0
0
0
0
0
0
0
0
0
0
0
0
0
0
0
0
0
0
0
0
0
0
0
0
0
0
0
0
0
0
0
0
0
0
0
0
0
0
0
0
0
0
0
0
0
0
0
0
0
0
0
0
0
0
0
0
0
0
0
0
0
0
0
0
0
0
0
0
0
0
0
0
0
0
0
0
0
0
0
0
0
0
0
0
0
0
0
0
0
0
0
0
0
0
0
0
0
0
0
0
0
0
0
0
0
0
0
0
0
0
0
0
0
0
0
0
0
0
0
0
0
0
0
0
0
0
0
0
0
0
0
0
0
0
0
0
0
0
0
0
0
0
0
0
0
0
0
0
0
0
0
0
0
0
0
0
0
0
0
0
0
0
0
0
0
0
0
0
0
0
0
0
0
0
0
0
0
0
0
0
0
0
0
0
0
0
0
0
0
0
0
0
0
0
0
0
0
0
0
0
0
0
0
0
0
0
0
0
0
0
0
0
0
0
0
0
0
0
0
0
0
0
0
0
0
0
0
0
0
0
0
0
0
0
0
0
0
0
0
0
0
0
0
0
0
0
0
0
0
0
0
0
0
0
0
0
0
0
0
0
0
0
0
0
0
0
0
0
0
0
0
0
0
0
0
0
0
0
0
0
0
0
0
0
0
0
0
0
0
0
0
0
0
0
0
0
0
0
0
0
0
0
0
0
0
0
0
0
0
0
0
0
0
0
0
0
0
0
0
0
0
0
0
0
0
0
0
0
0
0
0
0
0
0
0
0
0
0
0
0
0
0
0
0
0
0
0
0
0
0
0
0
0
0
0
0
0
0
0
0
0.853643
0.915311
0.903625
0.896364
0.893007
0.890827
0.889043
0.887577
0.886364
0.885332
0.884433
0.883637
0.882924
0.88228
0.881692
0.881151
0.880652
0.880188
0.879754
0.879348
0.878966
0.878605
0.878264
0.87794
0.877632
0.877338
0.877057
0.876789
0.876532
0.876286
0.876049
0.875822
0.875603
0.875392
0.875189
0.874993
0.874804
0.874621
0.874444
0.874273
0.874108
0.873948
0.873793
0.873643
0.873498
0.873356
0.87322
0.873087
0.872958
0.872833
0.872711
0.872593
0.872478
0.872366
0.872256
0.87215
0.872046
0.871945
0.871846
0.87175
0.871655
0.871563
0.871472
0.871384
0.871297
0.871212
0.871128
0.871047
0.870966
0.870888
0.870811
0.870736
0.870662
0.87059
0.870521
0.870453
0.870387
0.870323
0.870263
0.870204
0.870149
0.870097
0.870048
0.870003
0.869962
0.869925
0.869893
0.869865
0.869842
0.869825
0.869813
0.869806
0.869806
0.869811
0.869822
0.869839
0.869862
0.869891
0.869925
0.869965
0.87001
0.870061
0.870116
0.870175
0.870239
0.870307
0.870377
0.870451
0.870528
0.870606
0.870687
0.870768
0.870851
0.870935
0.871019
0.871102
0.871186
0.871269
0.871352
0.871434
0.871514
0.871594
0.871672
0.871749
0.871824
0.871898
0.87197
0.872041
0.87211
0.872178
0.872244
0.872308
0.872371
0.872432
0.872492
0.872551
0.872608
0.872664
0.872719
0.872772
0.872824
0.872875
0.872925
0.872975
0.873023
0.87307
0.873116
0.873162
0.873206
0.87325
0.873294
0.873336
0.873378
0.87342
0.87346
0.873501
0.873541
0.87358
0.873619
0.873658
0.873696
0.873734
0.873771
0.873808
0.873845
0.873882
0.873919
0.873955
0.873991
0.874027
0.874063
0.874098
0.874134
0.874169
0.874204
0.874239
0.874274
0.874309
0.874344
0.874378
0.874413
0.874447
0.874482
0.874516
0.874551
0.874585
0.874619
0.874653
0.874687
0.874721
0.874755
0.874789
0.874823
0.874857
0.87489
0.874924
0.874958
0.874991
0.875024
0.875058
0.875091
0.875124
0.875157
0.87519
0.875223
0.875255
0.875288
0.87532
0.875352
0.875384
0.875416
0.875448
0.87548
0.875511
0.875543
0.875574
0.875605
0.875635
0.875666
0.875696
0.875727
0.875757
0.875787
0.875816
0.875846
0.875875
0.875904
0.875933
0.875962
0.87599
0.876018
0.876046
0.876074
0.876102
0.87613
0.876157
0.876184
0.876211
0.876238
0.876264
0.87629
0.876317
0.876343
0.876368
0.876394
0.87642
0.876445
0.87647
0.876495
0.87652
0.876544
0.876569
0.876593
0.876618
0.876642
0.876666
0.87669
0.876713
0.876737
0.87676
0.876784
0.876807
0.87683
0.876853
0.876876
0.876899
0.876922
0.876945
0.876967
0.87699
0.877012
0.877035
0.877057
0.87708
0.877102
0.877124
0.877147
0.877169
0.877191
0.877214
0.877236
0.877259
0.877281
0.877304
0.877326
0.877349
0.877372
0.877395
0.877419
0.877442
0.877466
0.87749
0.877514
0.877538
0.877563
0.877589
0.877614
0.87764
0.877667
0.877694
0.877722
0.87775
0.877779
0.877809
0.877839
0.877871
0.877903
0.877936
0.877971
0.878006
0.878042
0.87808
0.878119
0.87816
0.878202
0.878245
0.87829
0.878337
0.878386
0.878436
0.878489
0.878544
0.8786
0.878659
0.878721
0.878785
0.878851
0.87892
0.878992
0.879066
0.879143
0.879224
0.879307
0.879393
0.879482
0.879574
0.879669
0.879768
0.879869
0.879974
0.880082
0.880192
0.880306
0.880422
0.880542
0.880663
0.880787
0.880914
0.881042
0.881172
0.881303
0.881435
0.881569
0.881702
0.881836
0.881969
0.882101
0.882231
0.88236
0.882485
0.882608
0.882727
0.882841
0.88295
0.883053
0.883149
0.883238
0.883319
0.883392
0.883455
0.883508
0.88355
0.883581
0.883599
0.883606
0.883599
0.883579
0.883544
0.883496
0.883432
0.883353
0.883259
0.883149
0.883022
0.882878
0.882715
0.882532
0.882325
0.88209
0.88182
0.881505
0.881131
0.880649
0.879946
0.878913
0.877797
0.877128
0.873459
0.842357
0.750708
0
0
0.916138
0.909308
0.902004
0.897852
0.894287
0.891629
0.889648
0.888079
0.886778
0.885672
0.884716
0.883877
0.88313
0.882459
0.881849
0.88129
0.880776
0.880299
0.879856
0.879441
0.879051
0.878684
0.878337
0.878008
0.877695
0.877398
0.877114
0.876842
0.876583
0.876334
0.876095
0.875865
0.875645
0.875432
0.875227
0.87503
0.874839
0.874655
0.874477
0.874305
0.874138
0.873977
0.873822
0.873671
0.873524
0.873382
0.873245
0.873111
0.872982
0.872856
0.872733
0.872615
0.872499
0.872386
0.872277
0.87217
0.872066
0.871964
0.871865
0.871768
0.871674
0.871581
0.87149
0.871402
0.871315
0.87123
0.871146
0.871065
0.870984
0.870906
0.870829
0.870754
0.870681
0.870609
0.870539
0.870471
0.870406
0.870343
0.870282
0.870224
0.870168
0.870116
0.870067
0.870022
0.869981
0.869944
0.869911
0.869883
0.86986
0.869842
0.869829
0.869822
0.86982
0.869824
0.869834
0.86985
0.869872
0.869899
0.869933
0.869971
0.870015
0.870064
0.870118
0.870177
0.87024
0.870306
0.870376
0.870449
0.870524
0.870602
0.870682
0.870763
0.870845
0.870928
0.871012
0.871095
0.871179
0.871262
0.871344
0.871426
0.871507
0.871586
0.871664
0.871741
0.871817
0.871891
0.871963
0.872034
0.872103
0.872171
0.872237
0.872302
0.872365
0.872427
0.872487
0.872546
0.872603
0.872659
0.872714
0.872767
0.87282
0.872871
0.872921
0.87297
0.873019
0.873066
0.873112
0.873158
0.873203
0.873247
0.87329
0.873333
0.873375
0.873416
0.873457
0.873498
0.873538
0.873577
0.873616
0.873655
0.873693
0.873731
0.873769
0.873806
0.873843
0.87388
0.873916
0.873953
0.873989
0.874025
0.87406
0.874096
0.874131
0.874167
0.874202
0.874237
0.874272
0.874307
0.874341
0.874376
0.874411
0.874445
0.87448
0.874514
0.874548
0.874583
0.874617
0.874651
0.874685
0.874719
0.874753
0.874787
0.874821
0.874855
0.874888
0.874922
0.874955
0.874989
0.875022
0.875056
0.875089
0.875122
0.875155
0.875188
0.87522
0.875253
0.875286
0.875318
0.87535
0.875382
0.875414
0.875446
0.875478
0.875509
0.87554
0.875572
0.875603
0.875633
0.875664
0.875694
0.875725
0.875755
0.875785
0.875814
0.875844
0.875873
0.875902
0.875931
0.87596
0.875988
0.876017
0.876045
0.876073
0.8761
0.876128
0.876155
0.876182
0.876209
0.876236
0.876262
0.876289
0.876315
0.876341
0.876367
0.876393
0.876418
0.876443
0.876468
0.876493
0.876518
0.876543
0.876568
0.876592
0.876616
0.87664
0.876664
0.876688
0.876712
0.876736
0.876759
0.876782
0.876806
0.876829
0.876852
0.876875
0.876898
0.876921
0.876943
0.876966
0.876989
0.877011
0.877034
0.877056
0.877079
0.877101
0.877123
0.877146
0.877168
0.87719
0.877213
0.877235
0.877258
0.87728
0.877303
0.877326
0.877348
0.877371
0.877394
0.877418
0.877441
0.877465
0.877489
0.877513
0.877538
0.877562
0.877588
0.877613
0.877639
0.877666
0.877693
0.877721
0.877749
0.877778
0.877807
0.877838
0.877869
0.877901
0.877934
0.877968
0.878003
0.87804
0.878077
0.878116
0.878156
0.878198
0.878241
0.878286
0.878332
0.87838
0.878431
0.878483
0.878537
0.878593
0.878651
0.878712
0.878775
0.878841
0.878909
0.87898
0.879053
0.879129
0.879208
0.87929
0.879375
0.879463
0.879554
0.879648
0.879745
0.879845
0.879948
0.880054
0.880162
0.880274
0.880388
0.880505
0.880625
0.880747
0.88087
0.880996
0.881123
0.881252
0.881382
0.881512
0.881643
0.881774
0.881904
0.882033
0.88216
0.882285
0.882408
0.882527
0.882643
0.882753
0.882859
0.882959
0.883051
0.883137
0.883215
0.883283
0.883343
0.883392
0.88343
0.883456
0.88347
0.883472
0.883459
0.883433
0.883392
0.883335
0.883262
0.883173
0.883066
0.88294
0.882794
0.882627
0.882436
0.882217
0.881965
0.881672
0.881328
0.880909
0.880383
0.879705
0.878837
0.877649
0.875501
0.870721
0.862822
0.855374
0.844433
0
0
0.912703
0.904245
0.901221
0.897575
0.894278
0.891829
0.889901
0.888316
0.886989
0.88586
0.884883
0.884025
0.883262
0.882576
0.881954
0.881386
0.880863
0.880379
0.879929
0.879508
0.879114
0.878743
0.878392
0.87806
0.877744
0.877444
0.877158
0.876885
0.876623
0.876372
0.876132
0.875901
0.875678
0.875465
0.875258
0.87506
0.874868
0.874683
0.874504
0.874331
0.874164
0.874002
0.873845
0.873694
0.873547
0.873404
0.873266
0.873132
0.873002
0.872876
0.872753
0.872634
0.872518
0.872405
0.872295
0.872188
0.872083
0.871982
0.871882
0.871785
0.87169
0.871598
0.871507
0.871418
0.871331
0.871246
0.871163
0.871081
0.871001
0.870923
0.870846
0.870771
0.870698
0.870626
0.870557
0.870489
0.870423
0.87036
0.870299
0.870241
0.870185
0.870133
0.870084
0.870038
0.869997
0.869959
0.869926
0.869897
0.869873
0.869854
0.86984
0.869832
0.869829
0.869833
0.869842
0.869856
0.869877
0.869903
0.869936
0.869973
0.870016
0.870064
0.870117
0.870175
0.870237
0.870303
0.870372
0.870444
0.870519
0.870597
0.870676
0.870757
0.870839
0.870922
0.871005
0.871089
0.871172
0.871255
0.871338
0.871419
0.8715
0.87158
0.871658
0.871735
0.871811
0.871885
0.871958
0.872029
0.872098
0.872166
0.872233
0.872298
0.872361
0.872423
0.872483
0.872542
0.872599
0.872655
0.87271
0.872764
0.872817
0.872868
0.872918
0.872968
0.873016
0.873063
0.87311
0.873155
0.8732
0.873244
0.873288
0.873331
0.873373
0.873414
0.873455
0.873496
0.873536
0.873575
0.873614
0.873653
0.873691
0.873729
0.873767
0.873804
0.873841
0.873878
0.873914
0.87395
0.873987
0.874022
0.874058
0.874094
0.874129
0.874164
0.8742
0.874235
0.87427
0.874304
0.874339
0.874374
0.874408
0.874443
0.874477
0.874512
0.874546
0.87458
0.874615
0.874649
0.874683
0.874717
0.874751
0.874785
0.874818
0.874852
0.874886
0.874919
0.874953
0.874986
0.87502
0.875053
0.875086
0.875119
0.875152
0.875185
0.875218
0.87525
0.875283
0.875315
0.875348
0.87538
0.875412
0.875443
0.875475
0.875507
0.875538
0.875569
0.8756
0.875631
0.875661
0.875692
0.875722
0.875752
0.875782
0.875812
0.875841
0.875871
0.8759
0.875929
0.875957
0.875986
0.876014
0.876042
0.87607
0.876098
0.876125
0.876153
0.87618
0.876207
0.876234
0.87626
0.876287
0.876313
0.876339
0.876365
0.87639
0.876416
0.876441
0.876466
0.876491
0.876516
0.876541
0.876565
0.87659
0.876614
0.876638
0.876662
0.876686
0.87671
0.876734
0.876757
0.876781
0.876804
0.876827
0.87685
0.876873
0.876896
0.876919
0.876942
0.876964
0.876987
0.877009
0.877032
0.877054
0.877077
0.877099
0.877122
0.877144
0.877166
0.877189
0.877211
0.877234
0.877256
0.877279
0.877301
0.877324
0.877347
0.87737
0.877393
0.877416
0.877439
0.877463
0.877487
0.877511
0.877535
0.87756
0.877585
0.877611
0.877637
0.877663
0.87769
0.877718
0.877746
0.877775
0.877804
0.877834
0.877865
0.877897
0.87793
0.877964
0.877999
0.878035
0.878072
0.878111
0.87815
0.878192
0.878234
0.878279
0.878325
0.878372
0.878422
0.878473
0.878527
0.878582
0.87864
0.8787
0.878762
0.878827
0.878894
0.878964
0.879036
0.879112
0.879189
0.87927
0.879354
0.87944
0.87953
0.879622
0.879718
0.879816
0.879917
0.880021
0.880128
0.880238
0.880351
0.880466
0.880583
0.880703
0.880824
0.880948
0.881073
0.881199
0.881327
0.881454
0.881583
0.881711
0.881838
0.881965
0.882089
0.882212
0.882332
0.882448
0.882561
0.882669
0.882772
0.882869
0.882959
0.883042
0.883116
0.883182
0.883238
0.883284
0.883318
0.883341
0.883351
0.883348
0.88333
0.883298
0.883251
0.883187
0.883105
0.883006
0.882887
0.882747
0.882584
0.882396
0.882179
0.88193
0.88164
0.8813
0.880895
0.880406
0.879799
0.879011
0.877931
0.876444
0.874463
0.87135
0.865512
0.862114
0.867344
0
0
0.903332
0.901057
0.899097
0.896099
0.893691
0.891603
0.889808
0.888298
0.887015
0.885907
0.884939
0.884084
0.883321
0.882633
0.882009
0.881438
0.880913
0.880427
0.879974
0.879552
0.879155
0.878782
0.87843
0.878096
0.877779
0.877477
0.87719
0.876915
0.876653
0.876401
0.87616
0.875927
0.875704
0.87549
0.875283
0.875083
0.874891
0.874705
0.874526
0.874352
0.874184
0.874022
0.873865
0.873713
0.873565
0.873422
0.873284
0.873149
0.873019
0.872892
0.872769
0.87265
0.872533
0.87242
0.87231
0.872203
0.872099
0.871997
0.871897
0.8718
0.871706
0.871613
0.871522
0.871434
0.871347
0.871262
0.871178
0.871097
0.871017
0.870939
0.870862
0.870787
0.870714
0.870642
0.870573
0.870505
0.870439
0.870376
0.870315
0.870256
0.8702
0.870147
0.870098
0.870051
0.870009
0.86997
0.869936
0.869907
0.869882
0.869862
0.869847
0.869838
0.869834
0.869836
0.869844
0.869858
0.869877
0.869903
0.869934
0.869971
0.870013
0.87006
0.870113
0.87017
0.870231
0.870297
0.870366
0.870438
0.870513
0.87059
0.870669
0.87075
0.870832
0.870915
0.870999
0.871083
0.871166
0.87125
0.871333
0.871414
0.871496
0.871575
0.871654
0.871731
0.871807
0.871882
0.871954
0.872026
0.872095
0.872163
0.87223
0.872295
0.872358
0.87242
0.872481
0.872539
0.872597
0.872653
0.872708
0.872762
0.872815
0.872866
0.872916
0.872966
0.873014
0.873061
0.873108
0.873154
0.873199
0.873243
0.873286
0.873329
0.873371
0.873412
0.873453
0.873494
0.873534
0.873573
0.873612
0.873651
0.873689
0.873727
0.873765
0.873802
0.873839
0.873876
0.873912
0.873949
0.873985
0.87402
0.874056
0.874092
0.874127
0.874162
0.874198
0.874232
0.874267
0.874302
0.874337
0.874372
0.874406
0.874441
0.874475
0.874509
0.874544
0.874578
0.874612
0.874646
0.87468
0.874714
0.874748
0.874782
0.874816
0.874849
0.874883
0.874917
0.87495
0.874984
0.875017
0.87505
0.875083
0.875116
0.875149
0.875182
0.875215
0.875247
0.87528
0.875312
0.875344
0.875377
0.875409
0.87544
0.875472
0.875503
0.875535
0.875566
0.875597
0.875628
0.875658
0.875689
0.875719
0.875749
0.875779
0.875809
0.875838
0.875867
0.875896
0.875925
0.875954
0.875983
0.876011
0.876039
0.876067
0.876095
0.876122
0.87615
0.876177
0.876204
0.876231
0.876257
0.876284
0.87631
0.876336
0.876362
0.876387
0.876413
0.876438
0.876464
0.876489
0.876513
0.876538
0.876563
0.876587
0.876612
0.876636
0.87666
0.876684
0.876707
0.876731
0.876755
0.876778
0.876801
0.876825
0.876848
0.876871
0.876894
0.876916
0.876939
0.876962
0.876984
0.877007
0.87703
0.877052
0.877074
0.877097
0.877119
0.877142
0.877164
0.877186
0.877209
0.877231
0.877253
0.877276
0.877299
0.877321
0.877344
0.877367
0.87739
0.877413
0.877436
0.87746
0.877484
0.877508
0.877532
0.877557
0.877582
0.877607
0.877633
0.87766
0.877686
0.877714
0.877742
0.87777
0.877799
0.877829
0.87786
0.877892
0.877924
0.877958
0.877993
0.878028
0.878065
0.878103
0.878142
0.878183
0.878225
0.878269
0.878315
0.878362
0.878411
0.878461
0.878514
0.878569
0.878626
0.878685
0.878746
0.87881
0.878876
0.878945
0.879016
0.87909
0.879167
0.879246
0.879329
0.879414
0.879502
0.879593
0.879687
0.879784
0.879883
0.879986
0.880091
0.880199
0.88031
0.880423
0.880538
0.880656
0.880775
0.880897
0.88102
0.881144
0.881269
0.881395
0.881521
0.881647
0.881772
0.881897
0.882019
0.88214
0.882257
0.882372
0.882482
0.882588
0.882689
0.882783
0.882871
0.882951
0.883024
0.883087
0.88314
0.883183
0.883215
0.883234
0.883241
0.883233
0.883212
0.883175
0.883121
0.883051
0.882962
0.882854
0.882724
0.882573
0.882396
0.882192
0.881956
0.881684
0.881369
0.881
0.880564
0.880039
0.879396
0.878601
0.877594
0.876227
0.874345
0.872327
0.870518
0.868985
0.871448
0
0
0.897733
0.897738
0.896262
0.89447
0.892711
0.890973
0.889426
0.888067
0.886873
0.88582
0.884888
0.884056
0.883308
0.882631
0.882014
0.881448
0.880926
0.880442
0.879992
0.87957
0.879174
0.878802
0.878449
0.878116
0.877799
0.877497
0.87721
0.876935
0.876672
0.87642
0.876178
0.875946
0.875722
0.875507
0.8753
0.8751
0.874908
0.874721
0.874542
0.874368
0.8742
0.874037
0.87388
0.873727
0.873579
0.873436
0.873298
0.873163
0.873032
0.872905
0.872782
0.872663
0.872546
0.872433
0.872323
0.872216
0.872112
0.87201
0.87191
0.871813
0.871719
0.871626
0.871536
0.871447
0.871361
0.871276
0.871193
0.871111
0.871031
0.870953
0.870877
0.870802
0.870728
0.870657
0.870587
0.870519
0.870453
0.870389
0.870328
0.870269
0.870212
0.870159
0.870108
0.870061
0.870018
0.869978
0.869943
0.869912
0.869886
0.869865
0.869849
0.869839
0.869834
0.869835
0.869841
0.869854
0.869873
0.869897
0.869928
0.869964
0.870005
0.870052
0.870104
0.870161
0.870223
0.870288
0.870357
0.870429
0.870505
0.870582
0.870662
0.870743
0.870826
0.870909
0.870993
0.871077
0.871162
0.871245
0.871329
0.871411
0.871492
0.871573
0.871652
0.871729
0.871805
0.87188
0.871953
0.872024
0.872094
0.872162
0.872229
0.872294
0.872357
0.872419
0.87248
0.872539
0.872596
0.872653
0.872708
0.872761
0.872814
0.872865
0.872916
0.872965
0.873013
0.873061
0.873107
0.873153
0.873198
0.873242
0.873285
0.873328
0.87337
0.873411
0.873452
0.873493
0.873533
0.873572
0.873611
0.87365
0.873688
0.873726
0.873763
0.873801
0.873838
0.873874
0.873911
0.873947
0.873983
0.874019
0.874054
0.87409
0.874125
0.87416
0.874195
0.87423
0.874265
0.8743
0.874335
0.874369
0.874404
0.874438
0.874473
0.874507
0.874541
0.874575
0.874609
0.874643
0.874677
0.874711
0.874745
0.874779
0.874813
0.874846
0.87488
0.874914
0.874947
0.87498
0.875014
0.875047
0.87508
0.875113
0.875146
0.875179
0.875211
0.875244
0.875276
0.875309
0.875341
0.875373
0.875405
0.875437
0.875468
0.8755
0.875531
0.875562
0.875593
0.875624
0.875655
0.875685
0.875715
0.875745
0.875775
0.875805
0.875834
0.875864
0.875893
0.875922
0.87595
0.875979
0.876007
0.876035
0.876063
0.876091
0.876119
0.876146
0.876173
0.8762
0.876227
0.876254
0.87628
0.876306
0.876332
0.876358
0.876384
0.87641
0.876435
0.87646
0.876485
0.87651
0.876535
0.876559
0.876584
0.876608
0.876632
0.876656
0.87668
0.876704
0.876728
0.876751
0.876775
0.876798
0.876821
0.876844
0.876868
0.87689
0.876913
0.876936
0.876959
0.876981
0.877004
0.877026
0.877049
0.877071
0.877094
0.877116
0.877138
0.877161
0.877183
0.877205
0.877228
0.87725
0.877273
0.877295
0.877318
0.87734
0.877363
0.877386
0.877409
0.877433
0.877456
0.87748
0.877504
0.877528
0.877553
0.877577
0.877603
0.877628
0.877655
0.877681
0.877708
0.877736
0.877764
0.877793
0.877823
0.877853
0.877885
0.877917
0.87795
0.877984
0.878019
0.878056
0.878093
0.878132
0.878172
0.878214
0.878257
0.878302
0.878348
0.878397
0.878447
0.878499
0.878553
0.878609
0.878667
0.878727
0.87879
0.878855
0.878923
0.878993
0.879066
0.879141
0.879219
0.8793
0.879384
0.879471
0.87956
0.879653
0.879748
0.879846
0.879947
0.88005
0.880156
0.880265
0.880377
0.88049
0.880606
0.880724
0.880844
0.880965
0.881087
0.88121
0.881334
0.881458
0.881582
0.881706
0.881828
0.881949
0.882067
0.882183
0.882296
0.882405
0.882509
0.882608
0.8827
0.882786
0.882865
0.882935
0.882996
0.883047
0.883088
0.883117
0.883134
0.883137
0.883127
0.883101
0.88306
0.883002
0.882926
0.882831
0.882716
0.882579
0.882419
0.882232
0.882018
0.881771
0.881487
0.88116
0.880781
0.88034
0.879821
0.879203
0.878456
0.877558
0.876507
0.875261
0.873927
0.873229
0.873011
0.873661
0
0
0.894528
0.894649
0.893839
0.89279
0.891471
0.890127
0.888851
0.887666
0.886589
0.885618
0.884742
0.883949
0.883229
0.882573
0.881971
0.881417
0.880903
0.880426
0.879981
0.879564
0.879171
0.878801
0.878451
0.87812
0.877804
0.877504
0.877217
0.876943
0.876681
0.876429
0.876188
0.875955
0.875732
0.875517
0.87531
0.87511
0.874918
0.874732
0.874552
0.874378
0.87421
0.874047
0.87389
0.873737
0.873589
0.873446
0.873307
0.873173
0.873042
0.872915
0.872792
0.872673
0.872556
0.872443
0.872333
0.872226
0.872122
0.87202
0.871921
0.871825
0.87173
0.871638
0.871548
0.871459
0.871373
0.871288
0.871205
0.871124
0.871044
0.870966
0.87089
0.870815
0.870741
0.87067
0.8706
0.870531
0.870465
0.870401
0.870339
0.870279
0.870222
0.870168
0.870116
0.870068
0.870024
0.869983
0.869946
0.869914
0.869887
0.869864
0.869847
0.869835
0.869829
0.869828
0.869834
0.869846
0.869863
0.869887
0.869917
0.869952
0.869994
0.87004
0.870093
0.870149
0.870211
0.870277
0.870346
0.870419
0.870495
0.870573
0.870654
0.870736
0.870819
0.870903
0.870988
0.871073
0.871158
0.871242
0.871326
0.871409
0.871491
0.871571
0.871651
0.871729
0.871805
0.87188
0.871953
0.872025
0.872095
0.872163
0.87223
0.872295
0.872358
0.87242
0.872481
0.87254
0.872597
0.872653
0.872708
0.872762
0.872815
0.872866
0.872916
0.872965
0.873014
0.873061
0.873107
0.873153
0.873198
0.873242
0.873285
0.873328
0.87337
0.873411
0.873452
0.873492
0.873532
0.873571
0.87361
0.873649
0.873687
0.873725
0.873762
0.873799
0.873836
0.873873
0.873909
0.873945
0.873981
0.874017
0.874053
0.874088
0.874123
0.874158
0.874194
0.874228
0.874263
0.874298
0.874332
0.874367
0.874401
0.874436
0.87447
0.874504
0.874538
0.874572
0.874607
0.87464
0.874674
0.874708
0.874742
0.874776
0.87481
0.874843
0.874877
0.87491
0.874944
0.874977
0.87501
0.875043
0.875076
0.875109
0.875142
0.875175
0.875208
0.87524
0.875272
0.875305
0.875337
0.875369
0.875401
0.875433
0.875464
0.875496
0.875527
0.875558
0.875589
0.87562
0.87565
0.875681
0.875711
0.875741
0.875771
0.875801
0.87583
0.875859
0.875888
0.875917
0.875946
0.875975
0.876003
0.876031
0.876059
0.876087
0.876114
0.876142
0.876169
0.876196
0.876223
0.876249
0.876276
0.876302
0.876328
0.876354
0.87638
0.876405
0.876431
0.876456
0.876481
0.876506
0.876531
0.876556
0.87658
0.876604
0.876629
0.876653
0.876677
0.8767
0.876724
0.876748
0.876771
0.876794
0.876818
0.876841
0.876864
0.876887
0.87691
0.876932
0.876955
0.876978
0.877
0.877023
0.877045
0.877068
0.87709
0.877112
0.877135
0.877157
0.877179
0.877201
0.877224
0.877246
0.877268
0.877291
0.877313
0.877336
0.877359
0.877382
0.877405
0.877428
0.877451
0.877475
0.877499
0.877523
0.877547
0.877572
0.877597
0.877622
0.877648
0.877675
0.877701
0.877729
0.877757
0.877785
0.877815
0.877845
0.877876
0.877908
0.87794
0.877974
0.878009
0.878045
0.878082
0.87812
0.87816
0.878201
0.878243
0.878287
0.878333
0.87838
0.878429
0.87848
0.878534
0.878589
0.878646
0.878705
0.878767
0.878831
0.878897
0.878966
0.879038
0.879112
0.879189
0.879269
0.879351
0.879436
0.879524
0.879615
0.879709
0.879805
0.879904
0.880006
0.880111
0.880218
0.880328
0.88044
0.880554
0.88067
0.880788
0.880907
0.881028
0.881149
0.881272
0.881394
0.881516
0.881638
0.881759
0.881878
0.881995
0.88211
0.882221
0.882328
0.88243
0.882528
0.882619
0.882704
0.88278
0.882849
0.882909
0.882958
0.882997
0.883024
0.883038
0.883039
0.883026
0.882998
0.882953
0.882892
0.882812
0.882712
0.882593
0.882451
0.882285
0.882094
0.881874
0.881623
0.881337
0.881012
0.88064
0.880215
0.879728
0.879169
0.878528
0.877795
0.876991
0.876205
0.875482
0.875049
0.87519
0.87568
0
0
0.892181
0.892215
0.891834
0.891137
0.890199
0.889185
0.888148
0.887143
0.886198
0.885321
0.884514
0.883772
0.883091
0.882463
0.881883
0.881346
0.880847
0.88038
0.879944
0.879534
0.879147
0.878782
0.878436
0.878107
0.877795
0.877496
0.877212
0.876939
0.876678
0.876428
0.876188
0.875956
0.875734
0.87552
0.875313
0.875114
0.874921
0.874735
0.874556
0.874382
0.874214
0.874052
0.873895
0.873742
0.873595
0.873452
0.873313
0.873179
0.873048
0.872922
0.872799
0.872679
0.872563
0.872451
0.872341
0.872234
0.87213
0.872029
0.87193
0.871834
0.871739
0.871647
0.871558
0.871469
0.871383
0.871299
0.871216
0.871135
0.871056
0.870978
0.870901
0.870826
0.870753
0.870681
0.870611
0.870542
0.870476
0.870411
0.870348
0.870287
0.870229
0.870174
0.870121
0.870072
0.870026
0.869984
0.869946
0.869912
0.869883
0.869859
0.86984
0.869827
0.869819
0.869817
0.869822
0.869832
0.869849
0.869872
0.869901
0.869937
0.869978
0.870025
0.870077
0.870134
0.870196
0.870263
0.870333
0.870407
0.870484
0.870563
0.870644
0.870728
0.870812
0.870897
0.870983
0.871069
0.871155
0.87124
0.871324
0.871408
0.87149
0.871572
0.871652
0.87173
0.871807
0.871882
0.871955
0.872027
0.872097
0.872165
0.872232
0.872297
0.872361
0.872423
0.872483
0.872542
0.8726
0.872656
0.872711
0.872764
0.872816
0.872868
0.872918
0.872967
0.873015
0.873062
0.873109
0.873154
0.873199
0.873242
0.873286
0.873328
0.87337
0.873411
0.873452
0.873492
0.873532
0.873571
0.87361
0.873648
0.873687
0.873724
0.873762
0.873799
0.873835
0.873872
0.873908
0.873944
0.87398
0.874016
0.874051
0.874087
0.874122
0.874157
0.874192
0.874226
0.874261
0.874296
0.87433
0.874365
0.874399
0.874433
0.874467
0.874501
0.874536
0.87457
0.874604
0.874637
0.874671
0.874705
0.874739
0.874772
0.874806
0.87484
0.874873
0.874906
0.87494
0.874973
0.875006
0.875039
0.875072
0.875105
0.875138
0.875171
0.875203
0.875236
0.875268
0.8753
0.875332
0.875364
0.875396
0.875428
0.87546
0.875491
0.875522
0.875553
0.875584
0.875615
0.875645
0.875676
0.875706
0.875736
0.875766
0.875796
0.875825
0.875854
0.875884
0.875912
0.875941
0.87597
0.875998
0.876026
0.876054
0.876082
0.87611
0.876137
0.876164
0.876191
0.876218
0.876245
0.876271
0.876297
0.876323
0.876349
0.876375
0.876401
0.876426
0.876451
0.876477
0.876501
0.876526
0.876551
0.876575
0.8766
0.876624
0.876648
0.876672
0.876696
0.87672
0.876743
0.876767
0.87679
0.876813
0.876836
0.876859
0.876882
0.876905
0.876928
0.876951
0.876973
0.876996
0.877018
0.877041
0.877063
0.877085
0.877108
0.87713
0.877152
0.877174
0.877197
0.877219
0.877241
0.877264
0.877286
0.877308
0.877331
0.877353
0.877376
0.877399
0.877422
0.877445
0.877469
0.877492
0.877516
0.87754
0.877565
0.87759
0.877615
0.877641
0.877667
0.877693
0.87772
0.877748
0.877776
0.877805
0.877835
0.877865
0.877897
0.877929
0.877962
0.877996
0.878032
0.878068
0.878106
0.878145
0.878185
0.878227
0.87827
0.878315
0.878361
0.87841
0.87846
0.878512
0.878566
0.878622
0.878681
0.878741
0.878804
0.878869
0.878937
0.879007
0.87908
0.879156
0.879234
0.879315
0.879399
0.879485
0.879574
0.879666
0.879761
0.879859
0.879959
0.880062
0.880168
0.880276
0.880386
0.880499
0.880613
0.880729
0.880847
0.880966
0.881086
0.881207
0.881328
0.881449
0.881569
0.881688
0.881806
0.881922
0.882035
0.882145
0.882251
0.882352
0.882448
0.882538
0.882622
0.882697
0.882765
0.882823
0.882871
0.882908
0.882933
0.882946
0.882945
0.88293
0.882899
0.882852
0.882788
0.882706
0.882604
0.882481
0.882337
0.88217
0.881977
0.881758
0.88151
0.881231
0.880916
0.880564
0.88017
0.879731
0.879244
0.878713
0.878148
0.877568
0.877039
0.87665
0.876441
0.876604
0.877129
0
0
0.890243
0.890309
0.890114
0.889639
0.888983
0.888211
0.887382
0.886546
0.885731
0.884953
0.884222
0.883538
0.882901
0.882308
0.881756
0.88124
0.880758
0.880306
0.879881
0.87948
0.879102
0.878743
0.878403
0.878079
0.877771
0.877476
0.877194
0.876924
0.876666
0.876417
0.876178
0.875949
0.875727
0.875514
0.875308
0.87511
0.874918
0.874733
0.874554
0.874381
0.874214
0.874052
0.873895
0.873743
0.873596
0.873453
0.873315
0.873181
0.873051
0.872924
0.872802
0.872683
0.872567
0.872455
0.872346
0.872239
0.872136
0.872035
0.871936
0.87184
0.871747
0.871655
0.871566
0.871478
0.871392
0.871308
0.871226
0.871145
0.871066
0.870988
0.870911
0.870836
0.870763
0.870691
0.87062
0.870551
0.870484
0.870418
0.870355
0.870293
0.870234
0.870177
0.870123
0.870073
0.870025
0.869981
0.869942
0.869906
0.869875
0.869849
0.869829
0.869814
0.869805
0.869801
0.869805
0.869814
0.86983
0.869853
0.869881
0.869917
0.869958
0.870005
0.870058
0.870116
0.870179
0.870246
0.870318
0.870393
0.870471
0.870552
0.870635
0.870719
0.870805
0.870891
0.870979
0.871066
0.871152
0.871239
0.871324
0.871409
0.871492
0.871574
0.871654
0.871733
0.87181
0.871885
0.871959
0.872031
0.872101
0.87217
0.872236
0.872301
0.872365
0.872427
0.872487
0.872546
0.872603
0.872659
0.872714
0.872767
0.872819
0.872871
0.872921
0.872969
0.873017
0.873064
0.873111
0.873156
0.8732
0.873244
0.873287
0.873329
0.873371
0.873412
0.873453
0.873493
0.873532
0.873572
0.87361
0.873649
0.873686
0.873724
0.873761
0.873798
0.873835
0.873871
0.873907
0.873943
0.873979
0.874014
0.87405
0.874085
0.87412
0.874155
0.87419
0.874224
0.874259
0.874293
0.874328
0.874362
0.874396
0.874431
0.874465
0.874499
0.874533
0.874567
0.8746
0.874634
0.874668
0.874702
0.874735
0.874769
0.874802
0.874836
0.874869
0.874902
0.874936
0.874969
0.875002
0.875035
0.875068
0.875101
0.875133
0.875166
0.875199
0.875231
0.875263
0.875295
0.875328
0.875359
0.875391
0.875423
0.875454
0.875486
0.875517
0.875548
0.875579
0.87561
0.87564
0.87567
0.875701
0.875731
0.875761
0.87579
0.87582
0.875849
0.875878
0.875907
0.875936
0.875964
0.875993
0.876021
0.876049
0.876076
0.876104
0.876131
0.876159
0.876186
0.876213
0.876239
0.876266
0.876292
0.876318
0.876344
0.87637
0.876395
0.876421
0.876446
0.876471
0.876496
0.876521
0.876546
0.87657
0.876595
0.876619
0.876643
0.876667
0.876691
0.876714
0.876738
0.876762
0.876785
0.876808
0.876831
0.876854
0.876877
0.8769
0.876923
0.876945
0.876968
0.876991
0.877013
0.877035
0.877058
0.87708
0.877102
0.877125
0.877147
0.877169
0.877191
0.877213
0.877236
0.877258
0.87728
0.877302
0.877325
0.877347
0.87737
0.877393
0.877415
0.877438
0.877462
0.877485
0.877509
0.877533
0.877557
0.877582
0.877606
0.877632
0.877658
0.877684
0.877711
0.877738
0.877766
0.877794
0.877824
0.877854
0.877884
0.877916
0.877949
0.877982
0.878017
0.878053
0.87809
0.878128
0.878167
0.878208
0.878251
0.878295
0.878341
0.878388
0.878437
0.878488
0.878541
0.878596
0.878654
0.878713
0.878775
0.878839
0.878905
0.878974
0.879046
0.87912
0.879197
0.879276
0.879358
0.879443
0.879531
0.879622
0.879715
0.879811
0.87991
0.880011
0.880115
0.880221
0.88033
0.880441
0.880554
0.880668
0.880785
0.880902
0.881021
0.88114
0.88126
0.881379
0.881498
0.881616
0.881733
0.881847
0.881959
0.882068
0.882173
0.882273
0.882368
0.882457
0.882539
0.882614
0.88268
0.882737
0.882784
0.88282
0.882844
0.882855
0.882853
0.882837
0.882804
0.882756
0.88269
0.882606
0.882504
0.882381
0.882237
0.88207
0.881881
0.881666
0.881426
0.881159
0.880863
0.880537
0.880181
0.879796
0.879384
0.878953
0.878519
0.878109
0.877757
0.877529
0.877471
0.877635
0.878087
0
0
0.888633
0.888743
0.888634
0.888317
0.887847
0.887258
0.886601
0.88591
0.885215
0.884535
0.88388
0.883257
0.882668
0.882114
0.881593
0.881103
0.880641
0.880206
0.879795
0.879406
0.879037
0.878687
0.878354
0.878036
0.877733
0.877442
0.877165
0.876898
0.876642
0.876396
0.87616
0.875932
0.875712
0.875501
0.875296
0.875099
0.874909
0.874724
0.874546
0.874374
0.874208
0.874046
0.87389
0.873739
0.873592
0.87345
0.873312
0.873179
0.873049
0.872924
0.872802
0.872683
0.872568
0.872456
0.872347
0.872241
0.872138
0.872038
0.87194