# vtk DataFile Version 2.0
LBE mesh
ASCII
DATASET STRUCTURED_POINTS
DIMENSIONS 402 102 1
ASPECT_RATIO 1 1 1
ORIGIN 0 0 0
POINT_DATA 41004
SCALARS rho double 1
LOOKUP_TABLE default
0
0
0
0
0
0
0
0
0
0
0
0
0
0
0
0
0
0
0
0
0
0
0
0
0
0
0
0
0
0
0
0
0
0
0
0
0
0
0
0
0
0
0
0
0
0
0
0
0
0
0
0
0
0
0
0
0
0
0
0
0
0
0
0
0
0
0
0
0
0
0
0
0
0
0
0
0
0
0
0
0
0
0
0
0
0
0
0
0
0
0
0
0
0
0
0
0
0
0
0
0
0
0
0
0
0
0
0
0
0
0
0
0
0
0
0
0
0
0
0
0
0
0
0
0
0
0
0
0
0
0
0
0
0
0
0
0
0
0
0
0
0
0
0
0
0
0
0
0
0
0
0
0
0
0
0
0
0
0
0
0
0
0
0
0
0
0
0
0
0
0
0
0
0
0
0
0
0
0
0
0
0
0
0
0
0
0
0
0
0
0
0
0
0
0
0
0
0
0
0
0
0
0
0
0
0
0
0
0
0
0
0
0
0
0
0
0
0
0
0
0
0
0
0
0
0
0
0
0
0
0
0
0
0
0
0
0
0
0
0
0
0
0
0
0
0
0
0
0
0
0
0
0
0
0
0
0
0
0
0
0
0
0
0
0
0
0
0
0
0
0
0
0
0
0
0
0
0
0
0
0
0
0
0
0
0
0
0
0
0
0
0
0
0
0
0
0
0
0
0
0
0
0
0
0
0
0
0
0
0
0
0
0
0
0
0
0
0
0
0
0
0
0
0
0
0
0
0
0
0
0
0
0
0
0
0
0
0
0
0
0
0
0
0
0
0
0
0
0
0
0
0
0
0
0
0
0
0
0
0
0
0
0
0
0
0
0
0
0
0
0
0
0
0
0
0
0
0
0
0
0
0
0
0
0
0
0
0
0
0
0
0
0
0
0
0
0
0
0
0
0
0
0
0.917561
0.983862
0.971324
0.963534
0.95994
0.957609
0.955704
0.95414
0.952847
0.95175
0.950797
0.949957
0.949209
0.948536
0.947928
0.947376
0.946871
0.946409
0.945985
0.945596
0.945238
0.944908
0.944604
0.944325
0.944067
0.943831
0.943613
0.943414
0.943231
0.943064
0.942912
0.942773
0.942646
0.942532
0.942428
0.942335
0.942251
0.942177
0.94211
0.942051
0.941999
0.941953
0.941914
0.94188
0.941851
0.941827
0.941806
0.94179
0.941778
0.941768
0.941761
0.941758
0.941756
0.941756
0.941758
0.941761
0.941766
0.941771
0.941778
0.941785
0.941792
0.9418
0.941808
0.941816
0.941823
0.941831
0.941838
0.941844
0.941849
0.941854
0.941859
0.941862
0.941865
0.941866
0.941867
0.941868
0.941867
0.941867
0.941865
0.941864
0.941862
0.94186
0.941858
0.941857
0.941856
0.941857
0.941858
0.94186
0.941864
0.94187
0.941877
0.941886
0.941898
0.941911
0.941927
0.941945
0.941966
0.941989
0.942014
0.942042
0.942071
0.942103
0.942136
0.942171
0.942206
0.942243
0.942281
0.942319
0.942358
0.942396
0.942434
0.942472
0.942509
0.942544
0.942579
0.942612
0.942644
0.942673
0.942701
0.942728
0.942752
0.942774
0.942793
0.942811
0.942827
0.94284
0.942852
0.942861
0.942868
0.942874
0.942877
0.942879
0.942878
0.942877
0.942873
0.942868
0.942862
0.942855
0.942846
0.942837
0.942827
0.942816
0.942804
0.942792
0.94278
0.942768
0.942755
0.942743
0.942732
0.94272
0.94271
0.9427
0.942692
0.942685
0.942678
0.942674
0.942671
0.942669
0.94267
0.942672
0.942677
0.942683
0.942692
0.942703
0.942716
0.942732
0.94275
0.942771
0.942794
0.942819
0.942847
0.942877
0.94291
0.942944
0.942981
0.943021
0.943062
0.943105
0.94315
0.943197
0.943245
0.943295
0.943346
0.943399
0.943453
0.943508
0.943564
0.94362
0.943677
0.943735
0.943793
0.943852
0.943911
0.94397
0.944028
0.944087
0.944146
0.944204
0.944262
0.94432
0.944378
0.944434
0.944491
0.944547
0.944602
0.944657
0.944712
0.944766
0.944819
0.944872
0.944924
0.944976
0.945028
0.945079
0.945131
0.945181
0.945232
0.945283
0.945333
0.945384
0.945434
0.945485
0.945536
0.945588
0.945639
0.945691
0.945744
0.945797
0.94585
0.945905
0.94596
0.946015
0.946072
0.946129
0.946187
0.946246
0.946306
0.946367
0.946429
0.946492
0.946556
0.946621
0.946687
0.946754
0.946822
0.946891
0.94696
0.947031
0.947102
0.947174
0.947247
0.947321
0.947395
0.94747
0.947545
0.947621
0.947697
0.947774
0.94785
0.947927
0.948004
0.948081
0.948157
0.948234
0.94831
0.948386
0.948461
0.948536
0.948611
0.948685
0.948758
0.948831
0.948903
0.948974
0.949044
0.949114
0.949182
0.94925
0.949317
0.949384
0.949449
0.949513
0.949577
0.94964
0.949702
0.949763
0.949824
0.949884
0.949943
0.950002
0.95006
0.950117
0.950174
0.950231
0.950287
0.950343
0.950398
0.950453
0.950508
0.950563
0.950617
0.950671
0.950726
0.95078
0.950834
0.950888
0.950942
0.950996
0.95105
0.951104
0.951158
0.951212
0.951266
0.95132
0.951375
0.951429
0.951484
0.951538
0.951593
0.951648
0.951703
0.951757
0.951812
0.951868
0.951923
0.951978
0.952033
0.952089
0.952144
0.9522
0.952255
0.952311
0.952366
0.952422
0.952478
0.952533
0.952589
0.952645
0.952701
0.952756
0.952812
0.952868
0.952923
0.952979
0.953034
0.953089
0.953144
0.953198
0.953252
0.953306
0.953359
0.953412
0.953464
0.953515
0.953565
0.953614
0.953662
0.953709
0.953754
0.953797
0.953839
0.953878
0.953915
0.95395
0.953981
0.95401
0.954035
0.954057
0.954075
0.954088
0.954097
0.954102
0.954101
0.954095
0.954083
0.954064
0.954039
0.954007
0.953967
0.95392
0.953863
0.953797
0.95372
0.953631
0.953528
0.953409
0.953271
0.953109
0.952917
0.952685
0.952401
0.952045
0.951565
0.950836
0.949739
0.948541
0.947816
0.943844
0.910231
0.811205
0
0
0.984761
0.97743
0.969595
0.965146
0.961328
0.958484
0.956366
0.954692
0.953305
0.95213
0.951116
0.95023
0.949446
0.948744
0.948112
0.94754
0.947019
0.946544
0.946108
0.945708
0.945341
0.945003
0.944692
0.944406
0.944143
0.943901
0.943679
0.943475
0.943288
0.943118
0.942961
0.942819
0.94269
0.942572
0.942466
0.94237
0.942284
0.942207
0.942138
0.942078
0.942024
0.941977
0.941935
0.9419
0.94187
0.941844
0.941823
0.941806
0.941792
0.941782
0.941774
0.941769
0.941767
0.941766
0.941768
0.941771
0.941775
0.94178
0.941786
0.941793
0.9418
0.941808
0.941815
0.941823
0.94183
0.941838
0.941844
0.941851
0.941856
0.941861
0.941865
0.941869
0.941872
0.941874
0.941875
0.941876
0.941875
0.941875
0.941873
0.941872
0.94187
0.941869
0.941867
0.941866
0.941865
0.941865
0.941866
0.941868
0.941872
0.941877
0.941883
0.941892
0.941903
0.941916
0.941931
0.941949
0.941968
0.941991
0.942015
0.942042
0.94207
0.942101
0.942133
0.942167
0.942202
0.942238
0.942275
0.942313
0.942351
0.942389
0.942426
0.942464
0.9425
0.942536
0.94257
0.942603
0.942634
0.942664
0.942692
0.942719
0.942743
0.942765
0.942785
0.942804
0.942819
0.942833
0.942845
0.942855
0.942862
0.942868
0.942872
0.942874
0.942874
0.942873
0.94287
0.942865
0.942859
0.942853
0.942844
0.942835
0.942825
0.942815
0.942804
0.942792
0.94278
0.942768
0.942756
0.942745
0.942733
0.942723
0.942712
0.942703
0.942695
0.942688
0.942682
0.942677
0.942674
0.942673
0.942674
0.942676
0.942681
0.942687
0.942696
0.942707
0.94272
0.942736
0.942754
0.942775
0.942797
0.942823
0.94285
0.94288
0.942913
0.942947
0.942984
0.943023
0.943064
0.943107
0.943152
0.943198
0.943247
0.943296
0.943347
0.9434
0.943454
0.943508
0.943564
0.94362
0.943677
0.943735
0.943793
0.943852
0.94391
0.943969
0.944028
0.944086
0.944145
0.944203
0.944261
0.944319
0.944377
0.944433
0.94449
0.944546
0.944601
0.944656
0.944711
0.944765
0.944818
0.944871
0.944923
0.944976
0.945027
0.945079
0.94513
0.945181
0.945232
0.945282
0.945333
0.945383
0.945434
0.945485
0.945536
0.945587
0.945639
0.945691
0.945743
0.945796
0.94585
0.945904
0.945959
0.946015
0.946071
0.946128
0.946186
0.946245
0.946305
0.946366
0.946428
0.946491
0.946555
0.946619
0.946685
0.946752
0.94682
0.946888
0.946958
0.947028
0.947099
0.947172
0.947244
0.947318
0.947392
0.947467
0.947542
0.947617
0.947693
0.94777
0.947846
0.947923
0.947999
0.948076
0.948153
0.948229
0.948305
0.948381
0.948456
0.948531
0.948606
0.94868
0.948753
0.948826
0.948898
0.948969
0.949039
0.949109
0.949178
0.949245
0.949313
0.949379
0.949444
0.949509
0.949572
0.949635
0.949697
0.949759
0.949819
0.949879
0.949939
0.949997
0.950055
0.950113
0.95017
0.950226
0.950282
0.950338
0.950393
0.950448
0.950503
0.950558
0.950612
0.950666
0.95072
0.950774
0.950828
0.950882
0.950935
0.950989
0.951043
0.951096
0.95115
0.951204
0.951258
0.951312
0.951366
0.95142
0.951474
0.951528
0.951582
0.951636
0.95169
0.951745
0.951799
0.951854
0.951908
0.951963
0.952017
0.952072
0.952127
0.952181
0.952236
0.952291
0.952346
0.9524
0.952455
0.95251
0.952565
0.952619
0.952674
0.952728
0.952783
0.952837
0.952892
0.952946
0.952999
0.953053
0.953106
0.953159
0.953212
0.953264
0.953315
0.953366
0.953416
0.953465
0.953514
0.953561
0.953606
0.953651
0.953693
0.953734
0.953773
0.95381
0.953844
0.953876
0.953904
0.953929
0.953951
0.953969
0.953983
0.953992
0.953997
0.953996
0.95399
0.953977
0.953959
0.953933
0.953899
0.953858
0.953807
0.953747
0.953676
0.953593
0.953497
0.953385
0.953254
0.953101
0.952922
0.952708
0.952451
0.952136
0.951738
0.951217
0.950526
0.94962
0.948357
0.946047
0.940883
0.932343
0.92429
0.912472
0
0
0.981096
0.97201
0.96877
0.964864
0.961333
0.958713
0.956654
0.954962
0.953548
0.952348
0.951312
0.950405
0.949603
0.948886
0.948241
0.947657
0.947126
0.946642
0.946199
0.945792
0.945418
0.945075
0.944759
0.944469
0.944201
0.943956
0.94373
0.943523
0.943333
0.943159
0.943
0.942856
0.942724
0.942604
0.942496
0.942399
0.942311
0.942232
0.942162
0.942099
0.942044
0.941996
0.941954
0.941917
0.941886
0.94186
0.941837
0.94182
0.941805
0.941794
0.941786
0.941781
0.941778
0.941777
0.941778
0.94178
0.941784
0.941789
0.941795
0.941801
0.941808
0.941816
0.941823
0.941831
0.941838
0.941846
0.941852
0.941859
0.941864
0.941869
0.941874
0.941877
0.94188
0.941882
0.941883
0.941884
0.941884
0.941883
0.941882
0.94188
0.941878
0.941877
0.941875
0.941873
0.941872
0.941872
0.941872
0.941874
0.941877
0.941881
0.941887
0.941895
0.941905
0.941917
0.941932
0.941948
0.941967
0.941989
0.942012
0.942038
0.942066
0.942096
0.942127
0.94216
0.942195
0.942231
0.942267
0.942304
0.942342
0.94238
0.942417
0.942454
0.94249
0.942526
0.94256
0.942594
0.942625
0.942655
0.942683
0.94271
0.942734
0.942757
0.942777
0.942796
0.942812
0.942826
0.942838
0.942848
0.942856
0.942863
0.942867
0.942869
0.94287
0.942869
0.942866
0.942862
0.942856
0.94285
0.942842
0.942834
0.942824
0.942814
0.942803
0.942792
0.94278
0.942769
0.942757
0.942746
0.942735
0.942724
0.942714
0.942705
0.942697
0.94269
0.942685
0.94268
0.942678
0.942677
0.942677
0.94268
0.942684
0.942691
0.9427
0.942711
0.942724
0.94274
0.942758
0.942779
0.942801
0.942827
0.942854
0.942884
0.942916
0.942951
0.942987
0.943026
0.943067
0.94311
0.943154
0.943201
0.943248
0.943298
0.943349
0.943401
0.943455
0.943509
0.943565
0.943621
0.943678
0.943736
0.943793
0.943852
0.94391
0.943969
0.944028
0.944086
0.944145
0.944203
0.944261
0.944319
0.944376
0.944433
0.94449
0.944546
0.944601
0.944656
0.944711
0.944765
0.944818
0.944871
0.944924
0.944976
0.945028
0.945079
0.94513
0.945181
0.945232
0.945283
0.945333
0.945384
0.945435
0.945486
0.945537
0.945588
0.945639
0.945691
0.945744
0.945797
0.94585
0.945905
0.945959
0.946015
0.946071
0.946128
0.946186
0.946245
0.946305
0.946366
0.946428
0.94649
0.946554
0.946618
0.946684
0.946751
0.946818
0.946887
0.946956
0.947026
0.947097
0.947169
0.947242
0.947315
0.947389
0.947463
0.947538
0.947614
0.94769
0.947766
0.947842
0.947919
0.947995
0.948072
0.948148
0.948224
0.9483
0.948376
0.948451
0.948526
0.948601
0.948675
0.948748
0.94882
0.948892
0.948963
0.949034
0.949103
0.949172
0.94924
0.949307
0.949373
0.949439
0.949503
0.949567
0.94963
0.949692
0.949753
0.949814
0.949874
0.949933
0.949992
0.95005
0.950107
0.950164
0.950221
0.950277
0.950332
0.950388
0.950442
0.950497
0.950551
0.950606
0.95066
0.950713
0.950767
0.950821
0.950874
0.950928
0.950981
0.951034
0.951088
0.951141
0.951194
0.951248
0.951301
0.951355
0.951408
0.951462
0.951515
0.951569
0.951623
0.951676
0.95173
0.951784
0.951838
0.951891
0.951945
0.951999
0.952053
0.952107
0.952161
0.952214
0.952268
0.952322
0.952376
0.95243
0.952483
0.952537
0.952591
0.952644
0.952697
0.952751
0.952804
0.952857
0.95291
0.952962
0.953014
0.953066
0.953118
0.953169
0.953219
0.953269
0.953318
0.953366
0.953414
0.95346
0.953505
0.953549
0.953591
0.953632
0.95367
0.953707
0.953741
0.953773
0.953801
0.953827
0.953849
0.953868
0.953882
0.953892
0.953898
0.953898
0.953893
0.953881
0.953863
0.953838
0.953805
0.953764
0.953714
0.953653
0.953582
0.953498
0.9534
0.953285
0.953152
0.952997
0.952815
0.9526
0.952344
0.952034
0.951653
0.951178
0.95057
0.94976
0.948625
0.947039
0.94491
0.941548
0.935234
0.931556
0.937206
0
0
0.971044
0.968602
0.966503
0.963292
0.960717
0.958485
0.956569
0.954958
0.953591
0.952414
0.951387
0.950484
0.94968
0.948961
0.948313
0.947726
0.947192
0.946704
0.946257
0.945847
0.94547
0.945124
0.944805
0.944512
0.944242
0.943994
0.943766
0.943557
0.943365
0.943189
0.943028
0.942882
0.942749
0.942628
0.942518
0.94242
0.942331
0.942251
0.94218
0.942116
0.94206
0.942011
0.941968
0.941931
0.941899
0.941873
0.94185
0.941832
0.941817
0.941806
0.941797
0.941792
0.941788
0.941787
0.941788
0.94179
0.941794
0.941799
0.941804
0.941811
0.941818
0.941825
0.941833
0.94184
0.941848
0.941855
0.941861
0.941868
0.941874
0.941879
0.941883
0.941887
0.941889
0.941891
0.941892
0.941893
0.941893
0.941892
0.94189
0.941888
0.941886
0.941884
0.941882
0.94188
0.941878
0.941877
0.941877
0.941878
0.94188
0.941883
0.941888
0.941896
0.941905
0.941916
0.941929
0.941945
0.941963
0.941983
0.942006
0.942031
0.942058
0.942087
0.942118
0.942151
0.942185
0.942221
0.942257
0.942294
0.942331
0.942369
0.942406
0.942444
0.94248
0.942516
0.94255
0.942584
0.942616
0.942646
0.942675
0.942701
0.942726
0.942749
0.94277
0.942788
0.942805
0.942819
0.942832
0.942842
0.94285
0.942857
0.942861
0.942864
0.942865
0.942864
0.942862
0.942858
0.942853
0.942847
0.94284
0.942831
0.942822
0.942812
0.942802
0.942791
0.94278
0.942769
0.942757
0.942746
0.942735
0.942725
0.942716
0.942707
0.942699
0.942693
0.942687
0.942683
0.942681
0.94268
0.942681
0.942684
0.942688
0.942695
0.942704
0.942715
0.942728
0.942744
0.942762
0.942782
0.942805
0.94283
0.942858
0.942888
0.94292
0.942954
0.94299
0.943029
0.94307
0.943112
0.943157
0.943203
0.943251
0.9433
0.943351
0.943403
0.943457
0.943511
0.943566
0.943622
0.943679
0.943737
0.943794
0.943853
0.943911
0.94397
0.944028
0.944087
0.944146
0.944204
0.944262
0.94432
0.944377
0.944434
0.94449
0.944547
0.944602
0.944657
0.944712
0.944766
0.944819
0.944872
0.944925
0.944977
0.945029
0.945081
0.945132
0.945183
0.945234
0.945285
0.945335
0.945386
0.945437
0.945487
0.945538
0.94559
0.945641
0.945693
0.945746
0.945799
0.945852
0.945906
0.945961
0.946016
0.946073
0.94613
0.946188
0.946246
0.946306
0.946367
0.946428
0.946491
0.946554
0.946618
0.946684
0.94675
0.946817
0.946886
0.946955
0.947025
0.947096
0.947167
0.94724
0.947313
0.947386
0.947461
0.947535
0.947611
0.947686
0.947762
0.947838
0.947914
0.947991
0.948067
0.948143
0.948219
0.948295
0.948371
0.948446
0.948521
0.948595
0.948669
0.948742
0.948815
0.948886
0.948958
0.949028
0.949097
0.949166
0.949234
0.949301
0.949367
0.949433
0.949497
0.949561
0.949624
0.949686
0.949747
0.949808
0.949868
0.949927
0.949986
0.950044
0.950101
0.950158
0.950214
0.95027
0.950326
0.950381
0.950435
0.95049
0.950544
0.950598
0.950652
0.950705
0.950759
0.950812
0.950865
0.950918
0.950971
0.951024
0.951077
0.95113
0.951183
0.951236
0.951289
0.951342
0.951395
0.951448
0.951501
0.951554
0.951607
0.95166
0.951713
0.951766
0.951819
0.951872
0.951925
0.951978
0.952031
0.952084
0.952137
0.95219
0.952243
0.952296
0.952349
0.952401
0.952454
0.952507
0.952559
0.952612
0.952664
0.952716
0.952768
0.952819
0.952871
0.952922
0.952973
0.953023
0.953073
0.953123
0.953172
0.95322
0.953268
0.953314
0.95336
0.953405
0.953448
0.95349
0.95353
0.953569
0.953605
0.95364
0.953672
0.953701
0.953727
0.95375
0.95377
0.953785
0.953797
0.953804
0.953805
0.953802
0.953792
0.953776
0.953753
0.953722
0.953683
0.953635
0.953577
0.953508
0.953426
0.953331
0.95322
0.953091
0.952941
0.952767
0.952563
0.952323
0.952037
0.951695
0.951279
0.950764
0.950116
0.949298
0.948241
0.946785
0.944761
0.942581
0.940621
0.938958
0.941616
0
0
0.965043
0.96505
0.963471
0.961555
0.959677
0.957821
0.956171
0.954723
0.953452
0.952334
0.951345
0.950466
0.949679
0.948971
0.948329
0.947747
0.947215
0.946728
0.946282
0.945873
0.945496
0.945149
0.944829
0.944535
0.944265
0.944016
0.943787
0.943577
0.943384
0.943207
0.943046
0.942899
0.942765
0.942643
0.942533
0.942434
0.942344
0.942264
0.942192
0.942129
0.942073
0.942023
0.94198
0.941943
0.941911
0.941884
0.941861
0.941842
0.941827
0.941816
0.941807
0.941802
0.941798
0.941797
0.941798
0.9418
0.941804
0.941809
0.941814
0.941821
0.941828
0.941835
0.941843
0.941851
0.941858
0.941865
0.941872
0.941878
0.941884
0.941889
0.941893
0.941897
0.941899
0.941901
0.941902
0.941903
0.941902
0.941901
0.941899
0.941897
0.941894
0.941891
0.941888
0.941885
0.941883
0.941881
0.94188
0.94188
0.941881
0.941883
0.941887
0.941893
0.941901
0.941911
0.941923
0.941938
0.941955
0.941975
0.941997
0.942021
0.942048
0.942076
0.942107
0.942139
0.942173
0.942209
0.942245
0.942282
0.942319
0.942357
0.942395
0.942433
0.942469
0.942505
0.94254
0.942574
0.942606
0.942637
0.942666
0.942693
0.942718
0.942741
0.942762
0.942781
0.942798
0.942813
0.942825
0.942836
0.942844
0.942851
0.942856
0.942859
0.94286
0.94286
0.942858
0.942854
0.942849
0.942844
0.942836
0.942829
0.94282
0.94281
0.9428
0.94279
0.942779
0.942768
0.942757
0.942746
0.942736
0.942726
0.942717
0.942708
0.942701
0.942695
0.942689
0.942686
0.942683
0.942683
0.942684
0.942687
0.942691
0.942699
0.942707
0.942719
0.942732
0.942748
0.942766
0.942786
0.942809
0.942834
0.942862
0.942891
0.942923
0.942958
0.942994
0.943033
0.943073
0.943116
0.94316
0.943206
0.943254
0.943303
0.943354
0.943406
0.943459
0.943513
0.943568
0.943624
0.943681
0.943738
0.943796
0.943854
0.943913
0.943971
0.94403
0.944089
0.944147
0.944205
0.944263
0.944321
0.944378
0.944436
0.944492
0.944548
0.944604
0.944659
0.944713
0.944768
0.944821
0.944874
0.944927
0.94498
0.945031
0.945083
0.945134
0.945186
0.945236
0.945287
0.945338
0.945389
0.945439
0.94549
0.945541
0.945593
0.945644
0.945696
0.945748
0.945801
0.945855
0.945909
0.945963
0.946019
0.946075
0.946132
0.94619
0.946248
0.946308
0.946368
0.946429
0.946492
0.946555
0.946619
0.946684
0.946751
0.946818
0.946886
0.946954
0.947024
0.947095
0.947166
0.947238
0.947311
0.947384
0.947458
0.947533
0.947608
0.947683
0.947759
0.947835
0.947911
0.947987
0.948063
0.948139
0.948215
0.94829
0.948366
0.948441
0.948516
0.94859
0.948663
0.948736
0.948809
0.94888
0.948951
0.949022
0.949091
0.94916
0.949228
0.949295
0.949361
0.949426
0.949491
0.949554
0.949617
0.949679
0.949741
0.949801
0.949861
0.94992
0.949979
0.950037
0.950094
0.950151
0.950207
0.950263
0.950318
0.950373
0.950428
0.950482
0.950536
0.950589
0.950643
0.950696
0.950749
0.950802
0.950855
0.950908
0.950961
0.951013
0.951066
0.951118
0.951171
0.951223
0.951275
0.951328
0.95138
0.951433
0.951485
0.951537
0.95159
0.951642
0.951694
0.951746
0.951799
0.951851
0.951903
0.951955
0.952007
0.952059
0.952111
0.952163
0.952215
0.952267
0.952319
0.952371
0.952422
0.952474
0.952525
0.952576
0.952627
0.952678
0.952729
0.952779
0.952829
0.952879
0.952929
0.952978
0.953027
0.953075
0.953122
0.953169
0.953215
0.95326
0.953304
0.953347
0.953389
0.953429
0.953468
0.953505
0.953539
0.953572
0.953602
0.953629
0.953653
0.953674
0.953691
0.953704
0.953712
0.953716
0.953715
0.953708
0.953694
0.953674
0.953647
0.953611
0.953567
0.953513
0.953448
0.953372
0.953282
0.953178
0.953057
0.952918
0.952756
0.952569
0.952351
0.952097
0.951798
0.951443
0.951021
0.950511
0.949889
0.949121
0.948181
0.947065
0.945728
0.944288
0.943529
0.943288
0.943984
0
0
0.961612
0.961744
0.96088
0.959762
0.958356
0.956923
0.955564
0.954303
0.953158
0.952127
0.951199
0.950361
0.949604
0.948917
0.948291
0.94772
0.947197
0.946717
0.946276
0.945869
0.945495
0.945151
0.944833
0.94454
0.94427
0.944022
0.943793
0.943583
0.943391
0.943214
0.943053
0.942906
0.942772
0.942651
0.942541
0.942441
0.942352
0.942272
0.9422
0.942137
0.942081
0.942031
0.941988
0.941951
0.941919
0.941892
0.94187
0.941851
0.941837
0.941825
0.941817
0.941812
0.941808
0.941807
0.941808
0.941811
0.941814
0.941819
0.941825
0.941832
0.941839
0.941846
0.941854
0.941862
0.941869
0.941877
0.941883
0.94189
0.941895
0.941901
0.941905
0.941908
0.941911
0.941912
0.941913
0.941913
0.941912
0.94191
0.941908
0.941905
0.941901
0.941898
0.941894
0.94189
0.941886
0.941883
0.941881
0.94188
0.941879
0.941881
0.941883
0.941888
0.941895
0.941904
0.941915
0.941929
0.941945
0.941963
0.941984
0.942008
0.942034
0.942063
0.942093
0.942125
0.942159
0.942194
0.942231
0.942268
0.942306
0.942344
0.942382
0.94242
0.942458
0.942494
0.942529
0.942564
0.942596
0.942628
0.942657
0.942684
0.94271
0.942733
0.942755
0.942774
0.942791
0.942806
0.942819
0.94283
0.942839
0.942846
0.94285
0.942854
0.942855
0.942855
0.942853
0.94285
0.942845
0.94284
0.942833
0.942825
0.942817
0.942808
0.942798
0.942788
0.942777
0.942767
0.942756
0.942746
0.942736
0.942726
0.942717
0.942709
0.942702
0.942696
0.942691
0.942688
0.942685
0.942685
0.942686
0.94269
0.942695
0.942702
0.942711
0.942722
0.942736
0.942752
0.94277
0.94279
0.942813
0.942838
0.942865
0.942895
0.942927
0.942961
0.942998
0.943036
0.943076
0.943119
0.943163
0.943209
0.943257
0.943306
0.943356
0.943408
0.943461
0.943516
0.943571
0.943627
0.943683
0.943741
0.943798
0.943856
0.943915
0.943973
0.944032
0.944091
0.944149
0.944207
0.944265
0.944323
0.944381
0.944438
0.944494
0.944551
0.944606
0.944661
0.944716
0.94477
0.944824
0.944877
0.94493
0.944983
0.945035
0.945086
0.945138
0.945189
0.94524
0.945291
0.945342
0.945392
0.945443
0.945494
0.945545
0.945596
0.945648
0.9457
0.945752
0.945805
0.945859
0.945913
0.945967
0.946022
0.946078
0.946135
0.946193
0.946251
0.94631
0.946371
0.946432
0.946494
0.946557
0.946621
0.946686
0.946752
0.946819
0.946886
0.946955
0.947024
0.947095
0.947166
0.947237
0.94731
0.947383
0.947457
0.947531
0.947605
0.94768
0.947756
0.947831
0.947907
0.947983
0.948059
0.948135
0.94821
0.948286
0.948361
0.948436
0.94851
0.948584
0.948657
0.94873
0.948803
0.948874
0.948945
0.949015
0.949084
0.949153
0.949221
0.949288
0.949354
0.949419
0.949484
0.949547
0.94961
0.949672
0.949733
0.949794
0.949853
0.949913
0.949971
0.950029
0.950086
0.950143
0.950199
0.950254
0.95031
0.950364
0.950419
0.950473
0.950526
0.95058
0.950633
0.950686
0.950739
0.950791
0.950844
0.950896
0.950948
0.951001
0.951053
0.951105
0.951157
0.951208
0.95126
0.951312
0.951364
0.951415
0.951467
0.951519
0.95157
0.951622
0.951673
0.951725
0.951776
0.951827
0.951879
0.95193
0.951981
0.952032
0.952083
0.952134
0.952185
0.952236
0.952287
0.952337
0.952388
0.952438
0.952488
0.952538
0.952588
0.952638
0.952687
0.952736
0.952785
0.952834
0.952882
0.95293
0.952977
0.953024
0.95307
0.953116
0.95316
0.953204
0.953247
0.953288
0.953328
0.953367
0.953404
0.953439
0.953472
0.953503
0.953531
0.953556
0.953579
0.953597
0.953612
0.953623
0.953629
0.95363
0.953626
0.953616
0.9536
0.953576
0.953545
0.953505
0.953457
0.953398
0.953328
0.953246
0.953151
0.953041
0.952913
0.952767
0.952598
0.952405
0.952182
0.951924
0.951626
0.951278
0.950871
0.950394
0.949835
0.94918
0.948416
0.947566
0.946726
0.945948
0.945479
0.945626
0.946147
0
0
0.959101
0.959141
0.958738
0.957998
0.957
0.955922
0.954819
0.953751
0.952747
0.951817
0.950962
0.950179
0.949462
0.948805
0.948203
0.947649
0.94714
0.946671
0.946238
0.945839
0.94547
0.94513
0.944816
0.944526
0.944258
0.944012
0.943785
0.943577
0.943386
0.943211
0.943051
0.942904
0.942771
0.942651
0.942541
0.942443
0.942354
0.942275
0.942204
0.942141
0.942085
0.942036
0.941994
0.941957
0.941926
0.941899
0.941877
0.941859
0.941845
0.941834
0.941826
0.941821
0.941818
0.941817
0.941818
0.941821
0.941825
0.94183
0.941836
0.941843
0.941851
0.941858
0.941866
0.941874
0.941882
0.941889
0.941896
0.941902
0.941908
0.941913
0.941917
0.94192
0.941922
0.941924
0.941924
0.941924
0.941922
0.94192
0.941916
0.941913
0.941908
0.941904
0.941899
0.941894
0.941889
0.941885
0.941881
0.941878
0.941876
0.941876
0.941877
0.941881
0.941886
0.941893
0.941903
0.941916
0.941931
0.941949
0.941969
0.941992
0.942018
0.942046
0.942076
0.942109
0.942143
0.942178
0.942215
0.942253
0.942291
0.94233
0.942369
0.942407
0.942445
0.942483
0.942518
0.942553
0.942586
0.942618
0.942648
0.942676
0.942702
0.942726
0.942747
0.942767
0.942784
0.9428
0.942813
0.942824
0.942833
0.94284
0.942845
0.942848
0.94285
0.94285
0.942848
0.942846
0.942841
0.942836
0.942829
0.942822
0.942813
0.942805
0.942795
0.942785
0.942775
0.942765
0.942754
0.942744
0.942735
0.942726
0.942717
0.942709
0.942702
0.942697
0.942692
0.942689
0.942687
0.942687
0.942689
0.942692
0.942697
0.942705
0.942714
0.942726
0.942739
0.942755
0.942773
0.942794
0.942817
0.942842
0.942869
0.942899
0.942931
0.942965
0.943001
0.94304
0.94308
0.943123
0.943167
0.943213
0.94326
0.943309
0.94336
0.943412
0.943465
0.943519
0.943574
0.94363
0.943686
0.943743
0.943801
0.943859
0.943917
0.943976
0.944035
0.944093
0.944152
0.94421
0.944268
0.944326
0.944384
0.944441
0.944497
0.944554
0.944609
0.944665
0.94472
0.944774
0.944828
0.944881
0.944934
0.944987
0.945039
0.945091
0.945142
0.945194
0.945245
0.945296
0.945346
0.945397
0.945448
0.945499
0.94555
0.945601
0.945653
0.945705
0.945757
0.94581
0.945863
0.945917
0.945972
0.946027
0.946083
0.946139
0.946197
0.946255
0.946314
0.946374
0.946435
0.946497
0.94656
0.946624
0.946688
0.946754
0.94682
0.946888
0.946956
0.947025
0.947095
0.947166
0.947237
0.947309
0.947382
0.947455
0.947529
0.947604
0.947678
0.947753
0.947828
0.947904
0.947979
0.948055
0.94813
0.948206
0.948281
0.948356
0.94843
0.948505
0.948578
0.948652
0.948724
0.948796
0.948868
0.948938
0.949008
0.949078
0.949146
0.949214
0.94928
0.949346
0.949412
0.949476
0.94954
0.949602
0.949664
0.949725
0.949786
0.949845
0.949904
0.949963
0.95002
0.950077
0.950134
0.95019
0.950245
0.9503
0.950355
0.950409
0.950463
0.950516
0.950569
0.950622
0.950675
0.950727
0.950779
0.950831
0.950883
0.950935
0.950987
0.951038
0.95109
0.951141
0.951192
0.951243
0.951294
0.951346
0.951396
0.951447
0.951498
0.951549
0.9516
0.95165
0.951701
0.951751
0.951802
0.951852
0.951903
0.951953
0.952003
0.952053
0.952103
0.952153
0.952202
0.952252
0.952301
0.952351
0.9524
0.952449
0.952498
0.952546
0.952595
0.952643
0.952691
0.952739
0.952786
0.952833
0.95288
0.952926
0.952971
0.953016
0.95306
0.953103
0.953146
0.953187
0.953227
0.953266
0.953303
0.953339
0.953373
0.953404
0.953433
0.95346
0.953484
0.953504
0.953521
0.953534
0.953543
0.953547
0.953546
0.953539
0.953527
0.953508
0.953481
0.953447
0.953405
0.953353
0.95329
0.953217
0.953132
0.953033
0.952919
0.952788
0.952639
0.952469
0.952275
0.952054
0.951802
0.951515
0.951187
0.950812
0.950385
0.949902
0.949364
0.948781
0.948173
0.947612
0.947198
0.946972
0.947144
0.947702
0
0
0.957031
0.957106
0.956903
0.956401
0.955705
0.954886
0.954005
0.953118
0.952253
0.951429
0.950655
0.949933
0.949263
0.948643
0.948069
0.947539
0.947047
0.946593
0.946172
0.945782
0.945422
0.945088
0.944779
0.944494
0.944231
0.943988
0.943764
0.943559
0.94337
0.943197
0.943038
0.942894
0.942763
0.942644
0.942536
0.942438
0.942351
0.942272
0.942202
0.942141
0.942086
0.942038
0.941996
0.941961
0.94193
0.941904
0.941883
0.941866
0.941852
0.941842
0.941834
0.94183
0.941827
0.941827
0.941829
0.941832
0.941836
0.941842
0.941848
0.941855
0.941863
0.941871
0.941879
0.941887
0.941895
0.941902
0.941909
0.941916
0.941921
0.941926
0.94193
0.941933
0.941935
0.941936
0.941936
0.941935
0.941933
0.94193
0.941925
0.941921
0.941915
0.941909
0.941903
0.941897
0.94189
0.941884
0.941879
0.941875
0.941871
0.941869
0.941869
0.94187
0.941874
0.94188
0.941889
0.9419
0.941914
0.941931
0.941951
0.941974
0.941999
0.942027
0.942057
0.94209
0.942124
0.94216
0.942197
0.942236
0.942275
0.942315
0.942354
0.942394
0.942432
0.94247
0.942507
0.942543
0.942577
0.942609
0.942639
0.942668
0.942694
0.942718
0.94274
0.94276
0.942778
0.942793
0.942807
0.942818
0.942827
0.942834
0.942839
0.942843
0.942845
0.942845
0.942843
0.942841
0.942836
0.942831
0.942825
0.942818
0.94281
0.942801
0.942792
0.942782
0.942772
0.942762
0.942752
0.942743
0.942733
0.942725
0.942716
0.942709
0.942702
0.942697
0.942693
0.94269
0.942688
0.942689
0.94269
0.942694
0.9427
0.942707
0.942717
0.942729
0.942742
0.942759
0.942777
0.942798
0.94282
0.942846
0.942873
0.942903
0.942935
0.942969
0.943005
0.943044
0.943084
0.943126
0.94317
0.943216
0.943264
0.943313
0.943363
0.943415
0.943468
0.943522
0.943577
0.943633
0.943689
0.943747
0.943804
0.943862
0.943921
0.943979
0.944038
0.944096
0.944155
0.944213
0.944272
0.94433
0.944387
0.944444
0.944501
0.944558
0.944613
0.944669
0.944724
0.944778
0.944832
0.944886
0.944939
0.944992
0.945044
0.945096
0.945147
0.945199
0.94525
0.945301
0.945352
0.945403
0.945454
0.945505
0.945556
0.945607
0.945659
0.945711
0.945763
0.945816
0.945869
0.945923
0.945977
0.946032
0.946088
0.946144
0.946202
0.94626
0.946319
0.946379
0.946439
0.946501
0.946563
0.946627
0.946691
0.946756
0.946823
0.94689
0.946958
0.947026
0.947096
0.947166
0.947237
0.947309
0.947382
0.947455
0.947528
0.947602
0.947676
0.947751
0.947826
0.947901
0.947976
0.948051
0.948126
0.948201
0.948276
0.948351
0.948425
0.948499
0.948573
0.948646
0.948718
0.94879
0.948861
0.948932
0.949001
0.94907
0.949139
0.949206
0.949273
0.949339
0.949404
0.949468
0.949531
0.949594
0.949656
0.949717
0.949777
0.949837
0.949896
0.949954
0.950011
0.950068
0.950124
0.95018
0.950235
0.95029
0.950345
0.950398
0.950452
0.950505
0.950558
0.95061
0.950663
0.950715
0.950766
0.950818
0.950869
0.950921
0.950972
0.951023
0.951073
0.951124
0.951175
0.951225
0.951276
0.951326
0.951376
0.951426
0.951476
0.951526
0.951576
0.951626
0.951675
0.951725
0.951774
0.951824
0.951873
0.951922
0.951971
0.95202
0.952069
0.952118
0.952166
0.952215
0.952263
0.952311
0.952359
0.952407
0.952455
0.952502
0.952549
0.952596
0.952643
0.95269
0.952736
0.952782
0.952827
0.952872
0.952916
0.95296
0.953003
0.953045
0.953086
0.953126
0.953165
0.953202
0.953238
0.953273
0.953305
0.953335
0.953363
0.953388
0.95341
0.953429
0.953445
0.953456
0.953463
0.953466
0.953463
0.953454
0.95344
0.953419
0.95339
0.953354
0.953309
0.953255
0.95319
0.953115
0.953027
0.952927
0.952812
0.95268
0.952532
0.952364
0.952175
0.951961
0.951722
0.951453
0.951152
0.950818
0.950448
0.950044
0.949613
0.949172
0.948748
0.94838
0.948141
0.94808
0.948255
0.948735
0
0
0.955314
0.955437
0.955327
0.954994
0.954498
0.953874
0.953177
0.952444
0.951707
0.950986
0.950294
0.949637
0.949018
0.948439
0.947898
0.947393
0.946923
0.946486
0.94608
0.945702
0.945352
0.945026
0.944725
0.944446
0.944188
0.94395
0.943731
0.943529
0.943343
0.943173
0.943018
0.942876
0.942747
0.94263
0.942524
0.942428
0.942342
0.942266
0.942197
0.942137
0.942084
0.942037
0.941997
0.941962
0.941932
0.941908
0.941887
0.941871
0.941858
0.941849
0.941842
0.941838
0.941836
0.941837
0.941839
0.941843
0.941848
0.941854