# vtk DataFile Version 2.0
LBE mesh
ASCII
DATASET STRUCTURED_POINTS
DIMENSIONS 402 102 1
ASPECT_RATIO 1 1 1
ORIGIN 0 0 0
POINT_DATA 41004
SCALARS rho double 1
LOOKUP_TABLE default
0
0
0
0
0
0
0
0
0
0
0
0
0
0
0
0
0
0
0
0
0
0
0
0
0
0
0
0
0
0
0
0
0
0
0
0
0
0
0
0
0
0
0
0
0
0
0
0
0
0
0
0
0
0
0
0
0
0
0
0
0
0
0
0
0
0
0
0
0
0
0
0
0
0
0
0
0
0
0
0
0
0
0
0
0
0
0
0
0
0
0
0
0
0
0
0
0
0
0
0
0
0
0
0
0
0
0
0
0
0
0
0
0
0
0
0
0
0
0
0
0
0
0
0
0
0
0
0
0
0
0
0
0
0
0
0
0
0
0
0
0
0
0
0
0
0
0
0
0
0
0
0
0
0
0
0
0
0
0
0
0
0
0
0
0
0
0
0
0
0
0
0
0
0
0
0
0
0
0
0
0
0
0
0
0
0
0
0
0
0
0
0
0
0
0
0
0
0
0
0
0
0
0
0
0
0
0
0
0
0
0
0
0
0
0
0
0
0
0
0
0
0
0
0
0
0
0
0
0
0
0
0
0
0
0
0
0
0
0
0
0
0
0
0
0
0
0
0
0
0
0
0
0
0
0
0
0
0
0
0
0
0
0
0
0
0
0
0
0
0
0
0
0
0
0
0
0
0
0
0
0
0
0
0
0
0
0
0
0
0
0
0
0
0
0
0
0
0
0
0
0
0
0
0
0
0
0
0
0
0
0
0
0
0
0
0
0
0
0
0
0
0
0
0
0
0
0
0
0
0
0
0
0
0
0
0
0
0
0
0
0
0
0
0
0
0
0
0
0
0
0
0
0
0
0
0
0
0
0
0
0
0
0
0
0
0
0
0
0
0
0
0
0
0
0
0
0
0
0
0
0
0
0
0
0
0
0
0
0
0
0
0
0
0
0
0
0
0
0
0
0
0
0
0.936422
1.00407
0.991237
0.983262
0.97957
0.977165
0.975195
0.973569
0.97222
0.971067
0.97006
0.969166
0.968365
0.96764
0.96698
0.966374
0.965817
0.965302
0.964824
0.964381
0.963969
0.963584
0.963225
0.962889
0.962575
0.962281
0.962005
0.961746
0.961503
0.961274
0.961059
0.960857
0.960665
0.960485
0.960314
0.960153
0.96
0.959854
0.959715
0.959583
0.959456
0.959335
0.959219
0.959107
0.958998
0.958894
0.958792
0.958693
0.958597
0.958503
0.958411
0.95832
0.958231
0.958143
0.958056
0.95797
0.957885
0.9578
0.957716
0.957632
0.957548
0.957465
0.957381
0.957297
0.957213
0.957129
0.957045
0.95696
0.956875
0.95679
0.956704
0.956619
0.956532
0.956446
0.95636
0.956273
0.956187
0.956101
0.956015
0.95593
0.955845
0.955762
0.955679
0.955598
0.955519
0.955441
0.955366
0.955293
0.955222
0.955155
0.955091
0.95503
0.954972
0.954918
0.954868
0.954823
0.954781
0.954743
0.95471
0.95468
0.954655
0.954634
0.954616
0.954602
0.954592
0.954585
0.954581
0.954581
0.954582
0.954587
0.954593
0.954602
0.954612
0.954623
0.954636
0.95465
0.954664
0.954679
0.954694
0.95471
0.954726
0.954742
0.954758
0.954774
0.954789
0.954804
0.954819
0.954833
0.954847
0.954861
0.954874
0.954887
0.954899
0.954912
0.954924
0.954936
0.954948
0.954961
0.954973
0.954986
0.954999
0.955013
0.955027
0.955043
0.955059
0.955076
0.955094
0.955113
0.955134
0.955157
0.95518
0.955206
0.955233
0.955262
0.955293
0.955326
0.95536
0.955397
0.955436
0.955477
0.95552
0.955565
0.955612
0.955662
0.955712
0.955766
0.95582
0.955877
0.955936
0.955996
0.956057
0.956121
0.956185
0.956251
0.956318
0.956386
0.956455
0.956525
0.956595
0.956666
0.956737
0.956809
0.956881
0.956953
0.957024
0.957096
0.957167
0.957238
0.957308
0.957378
0.957446
0.957514
0.957581
0.957647
0.957712
0.957775
0.957837
0.957898
0.957957
0.958015
0.958071
0.958125
0.958178
0.958228
0.958277
0.958324
0.958369
0.958412
0.958453
0.958492
0.958529
0.958564
0.958597
0.958627
0.958656
0.958682
0.958707
0.958729
0.958749
0.958767
0.958783
0.958797
0.958809
0.958819
0.958827
0.958833
0.958838
0.95884
0.95884
0.958839
0.958836
0.958831
0.958825
0.958817
0.958807
0.958796
0.958784
0.95877
0.958755
0.958738
0.958721
0.958702
0.958682
0.958661
0.958639
0.958617
0.958593
0.958569
0.958543
0.958517
0.95849
0.958463
0.958435
0.958406
0.958377
0.958347
0.958317
0.958286
0.958254
0.958222
0.958189
0.958156
0.958122
0.958088
0.958053
0.958018
0.957982
0.957946
0.957909
0.957871
0.957833
0.957794
0.957755
0.957716
0.957676
0.957636
0.957595
0.957554
0.957513
0.957471
0.95743
0.957388
0.957346
0.957305
0.957263
0.957222
0.95718
0.95714
0.957099
0.95706
0.95702
0.956982
0.956944
0.956907
0.956871
0.956836
0.956802
0.956769
0.956737
0.956706
0.956676
0.956648
0.95662
0.956594
0.95657
0.956546
0.956524
0.956504
0.956484
0.956466
0.956449
0.956434
0.956419
0.956406
0.956394
0.956384
0.956375
0.956367
0.95636
0.956354
0.956349
0.956346
0.956344
0.956343
0.956343
0.956344
0.956347
0.956351
0.956355
0.956361
0.956369
0.956377
0.956387
0.956397
0.956409
0.956423
0.956437
0.956453
0.95647
0.956488
0.956508
0.956528
0.95655
0.956574
0.956598
0.956624
0.956651
0.956679
0.956709
0.956739
0.956771
0.956804
0.956837
0.956872
0.956908
0.956944
0.956982
0.957019
0.957058
0.957097
0.957136
0.957175
0.957214
0.957253
0.957291
0.957329
0.957366
0.957402
0.957437
0.95747
0.9575
0.957529
0.957555
0.957577
0.957596
0.957611
0.957621
0.957626
0.957625
0.957617
0.957602
0.957578
0.957543
0.957497
0.957437
0.95736
0.957263
0.957141
0.956987
0.95679
0.956539
0.956213
0.955759
0.955049
0.953965
0.952772
0.952046
0.94805
0.914278
0.814805
0
0
1.00497
0.997472
0.989453
0.98489
0.98097
0.978042
0.975855
0.974118
0.972673
0.97144
0.970372
0.969432
0.968594
0.967839
0.967154
0.966528
0.965954
0.965425
0.964935
0.964481
0.964059
0.963666
0.9633
0.962958
0.962638
0.962338
0.962057
0.961794
0.961547
0.961315
0.961096
0.960891
0.960697
0.960514
0.960341
0.960177
0.960022
0.959875
0.959734
0.959601
0.959473
0.959351
0.959233
0.95912
0.959011
0.958906
0.958803
0.958704
0.958607
0.958513
0.95842
0.95833
0.95824
0.958152
0.958065
0.957979
0.957894
0.957809
0.957725
0.957641
0.957557
0.957473
0.95739
0.957306
0.957222
0.957138
0.957054
0.956969
0.956884
0.956799
0.956714
0.956628
0.956542
0.956456
0.956369
0.956283
0.956197
0.956111
0.956025
0.95594
0.955855
0.955772
0.955689
0.955608
0.955528
0.955451
0.955375
0.955302
0.955231
0.955163
0.955098
0.955037
0.954978
0.954924
0.954873
0.954827
0.954784
0.954746
0.954711
0.954681
0.954655
0.954633
0.954615
0.954601
0.95459
0.954582
0.954578
0.954577
0.954578
0.954582
0.954588
0.954597
0.954606
0.954618
0.95463
0.954644
0.954658
0.954674
0.954689
0.954706
0.954721
0.954738
0.954754
0.95477
0.954785
0.954801
0.954816
0.954831
0.954845
0.954859
0.954872
0.954886
0.954899
0.954912
0.954924
0.954937
0.954949
0.954962
0.954974
0.954988
0.955001
0.955015
0.95503
0.955045
0.955061
0.955079
0.955097
0.955117
0.955138
0.95516
0.955184
0.95521
0.955237
0.955266
0.955297
0.95533
0.955365
0.955402
0.95544
0.955482
0.955524
0.95557
0.955616
0.955666
0.955717
0.95577
0.955824
0.955881
0.955939
0.956
0.956061
0.956125
0.956189
0.956255
0.956321
0.956389
0.956458
0.956528
0.956598
0.956669
0.95674
0.956811
0.956883
0.956955
0.957026
0.957098
0.957168
0.957239
0.957309
0.957379
0.957447
0.957515
0.957582
0.957648
0.957712
0.957776
0.957837
0.957898
0.957957
0.958014
0.95807
0.958124
0.958176
0.958227
0.958276
0.958323
0.958367
0.95841
0.958451
0.95849
0.958527
0.958562
0.958594
0.958625
0.958653
0.95868
0.958704
0.958726
0.958746
0.958765
0.95878
0.958794
0.958806
0.958816
0.958824
0.95883
0.958834
0.958837
0.958837
0.958836
0.958833
0.958828
0.958822
0.958814
0.958805
0.958794
0.958782
0.958768
0.958753
0.958737
0.958719
0.958701
0.958681
0.958661
0.958639
0.958617
0.958593
0.958569
0.958544
0.958518
0.958492
0.958465
0.958437
0.958408
0.958379
0.95835
0.958319
0.958288
0.958257
0.958225
0.958192
0.958159
0.958126
0.958092
0.958057
0.958022
0.957986
0.957949
0.957912
0.957875
0.957837
0.957798
0.957759
0.95772
0.95768
0.95764
0.957599
0.957558
0.957517
0.957475
0.957433
0.957392
0.95735
0.957308
0.957267
0.957225
0.957184
0.957143
0.957103
0.957063
0.957023
0.956985
0.956947
0.95691
0.956873
0.956838
0.956804
0.95677
0.956738
0.956707
0.956677
0.956648
0.956621
0.956595
0.95657
0.956546
0.956524
0.956503
0.956483
0.956464
0.956447
0.956431
0.956417
0.956403
0.956391
0.95638
0.95637
0.956362
0.956354
0.956348
0.956343
0.95634
0.956337
0.956336
0.956335
0.956336
0.956338
0.956341
0.956345
0.956351
0.956357
0.956365
0.956374
0.956384
0.956396
0.956408
0.956422
0.956437
0.956453
0.95647
0.956489
0.956508
0.956529
0.956552
0.956575
0.9566
0.956625
0.956652
0.95668
0.956709
0.956739
0.956771
0.956803
0.956836
0.956869
0.956904
0.956939
0.956975
0.957011
0.957047
0.957083
0.95712
0.957156
0.957192
0.957227
0.957261
0.957295
0.957326
0.957356
0.957385
0.95741
0.957433
0.957453
0.957469
0.95748
0.957487
0.957488
0.957482
0.95747
0.957449
0.957418
0.957376
0.957321
0.95725
0.957161
0.95705
0.95691
0.956735
0.956515
0.956234
0.955867
0.955374
0.954707
0.953819
0.952567
0.950258
0.945073
0.936491
0.928394
0.916517
0
0
1.00119
0.991911
0.98859
0.984583
0.980957
0.978259
0.976132
0.974377
0.972904
0.971646
0.970555
0.969593
0.968737
0.967966
0.967267
0.96663
0.966045
0.965507
0.96501
0.964548
0.96412
0.963722
0.96335
0.963003
0.962679
0.962376
0.962092
0.961826
0.961576
0.961341
0.96112
0.960912
0.960717
0.960532
0.960358
0.960192
0.960036
0.959887
0.959746
0.959612
0.959483
0.95936
0.959242
0.959129
0.959019
0.958913
0.958811
0.958711
0.958615
0.95852
0.958427
0.958336
0.958247
0.958159
0.958072
0.957986
0.957901
0.957817
0.957732
0.957649
0.957565
0.957482
0.957398
0.957315
0.957231
0.957147
0.957063
0.956979
0.956894
0.956809
0.956724
0.956638
0.956552
0.956466
0.95638
0.956294
0.956207
0.956121
0.956035
0.95595
0.955865
0.955782
0.955699
0.955618
0.955538
0.95546
0.955383
0.95531
0.955238
0.95517
0.955104
0.955042
0.954983
0.954929
0.954877
0.95483
0.954787
0.954748
0.954712
0.954682
0.954655
0.954632
0.954613
0.954599
0.954587
0.95458
0.954575
0.954573
0.954574
0.954578
0.954584
0.954593
0.954602
0.954614
0.954627
0.954641
0.954655
0.954671
0.954687
0.954703
0.954719
0.954736
0.954752
0.954769
0.954785
0.954801
0.954816
0.954831
0.954846
0.954861
0.954874
0.954888
0.954901
0.954915
0.954927
0.95494
0.954953
0.954966
0.954979
0.954993
0.955006
0.955021
0.955035
0.955051
0.955067
0.955085
0.955104
0.955124
0.955144
0.955167
0.955191
0.955217
0.955244
0.955274
0.955304
0.955338
0.955372
0.955409
0.955448
0.955489
0.955532
0.955577
0.955624
0.955673
0.955724
0.955777
0.955832
0.955889
0.955947
0.956007
0.956068
0.956131
0.956195
0.956261
0.956328
0.956396
0.956464
0.956533
0.956603
0.956674
0.956745
0.956816
0.956887
0.956959
0.95703
0.957102
0.957172
0.957243
0.957312
0.957382
0.95745
0.957517
0.957584
0.957649
0.957713
0.957777
0.957838
0.957898
0.957957
0.958014
0.95807
0.958124
0.958176
0.958226
0.958274
0.958321
0.958365
0.958408
0.958449
0.958488
0.958524
0.958559
0.958591
0.958621
0.95865
0.958676
0.9587
0.958722
0.958742
0.95876
0.958776
0.95879
0.958802
0.958812
0.95882
0.958826
0.95883
0.958832
0.958833
0.958832
0.958829
0.958824
0.958818
0.958811
0.958801
0.958791
0.958779
0.958765
0.95875
0.958735
0.958718
0.958699
0.95868
0.95866
0.958639
0.958617
0.958593
0.95857
0.958545
0.95852
0.958494
0.958467
0.958439
0.958411
0.958382
0.958353
0.958323
0.958293
0.958261
0.95823
0.958198
0.958165
0.958131
0.958098
0.958063
0.958028
0.957992
0.957956
0.957919
0.957882
0.957844
0.957806
0.957767
0.957727
0.957688
0.957647
0.957607
0.957566
0.957525
0.957483
0.957442
0.9574
0.957358
0.957316
0.957275
0.957233
0.957192
0.957151
0.957111
0.957071
0.957031
0.956993
0.956954
0.956917
0.956881
0.956845
0.956811
0.956777
0.956745
0.956713
0.956683
0.956654
0.956626
0.9566
0.956574
0.956551
0.956528
0.956506
0.956486
0.956467
0.95645
0.956433
0.956418
0.956405
0.956392
0.956381
0.95637
0.956361
0.956354
0.956347
0.956341
0.956337
0.956334
0.956332
0.956331
0.956331
0.956333
0.956335
0.956339
0.956344
0.95635
0.956357
0.956365
0.956374
0.956385
0.956396
0.956409
0.956423
0.956438
0.956455
0.956472
0.956491
0.956511
0.956532
0.956554
0.956577
0.956602
0.956627
0.956654
0.956681
0.95671
0.956739
0.956769
0.956801
0.956832
0.956865
0.956898
0.956931
0.956965
0.956999
0.957033
0.957067
0.9571
0.957133
0.957165
0.957196
0.957225
0.957253
0.957279
0.957302
0.957323
0.957341
0.957354
0.957364
0.957368
0.957367
0.957359
0.957344
0.957321
0.957287
0.957243
0.957184
0.957111
0.957018
0.956904
0.956762
0.956586
0.956367
0.956093
0.955745
0.9553
0.954719
0.95393
0.952812
0.951235
0.949105
0.945729
0.939382
0.93568
0.941348
0
0
0.990907
0.988412
0.986258
0.982962
0.980312
0.97801
0.976027
0.974354
0.97293
0.971695
0.970613
0.969654
0.968797
0.968023
0.967321
0.96668
0.966091
0.965549
0.965048
0.964584
0.964152
0.963751
0.963377
0.963027
0.962701
0.962395
0.962109
0.961841
0.96159
0.961353
0.961131
0.960922
0.960726
0.96054
0.960365
0.960199
0.960042
0.959893
0.959751
0.959616
0.959487
0.959364
0.959246
0.959132
0.959023
0.958917
0.958815
0.958715
0.958618
0.958524
0.958431
0.958341
0.958252
0.958164
0.958077
0.957992
0.957907
0.957823
0.957739
0.957656
0.957572
0.957489
0.957406
0.957323
0.95724
0.957156
0.957072
0.956988
0.956904
0.956819
0.956734
0.956649
0.956563
0.956477
0.956391
0.956305
0.956218
0.956132
0.956046
0.955961
0.955876
0.955792
0.955709
0.955627
0.955547
0.955469
0.955392
0.955318
0.955245
0.955177
0.95511
0.955047
0.954988
0.954932
0.95488
0.954832
0.954788
0.954748
0.954713
0.954681
0.954654
0.954631
0.954612
0.954597
0.954585
0.954577
0.954572
0.954571
0.954572
0.954576
0.954582
0.95459
0.9546
0.954612
0.954625
0.95464
0.954654
0.95467
0.954687
0.954703
0.95472
0.954737
0.954754
0.954771
0.954787
0.954804
0.954819
0.954835
0.95485
0.954865
0.954879
0.954893
0.954907
0.95492
0.954934
0.954947
0.95496
0.954973
0.954987
0.955001
0.955014
0.955029
0.955044
0.95506
0.955077
0.955095
0.955113
0.955134
0.955155
0.955178
0.955202
0.955228
0.955255
0.955285
0.955315
0.955349
0.955383
0.955421
0.955459
0.955501
0.955543
0.955589
0.955635
0.955685
0.955735
0.955788
0.955843
0.9559
0.955957
0.956017
0.956079
0.956142
0.956205
0.956271
0.956337
0.956405
0.956473
0.956542
0.956612
0.956682
0.956753
0.956824
0.956895
0.956966
0.957037
0.957108
0.957178
0.957248
0.957317
0.957386
0.957454
0.957521
0.957587
0.957652
0.957716
0.957779
0.95784
0.9579
0.957958
0.958015
0.958069
0.958123
0.958175
0.958225
0.958273
0.958319
0.958363
0.958405
0.958446
0.958484
0.95852
0.958555
0.958587
0.958617
0.958645
0.958671
0.958695
0.958717
0.958736
0.958754
0.95877
0.958784
0.958796
0.958806
0.958813
0.95882
0.958824
0.958826
0.958827
0.958826
0.958823
0.958819
0.958813
0.958806
0.958797
0.958786
0.958774
0.958762
0.958747
0.958732
0.958715
0.958698
0.958679
0.958659
0.958638
0.958617
0.958594
0.958571
0.958547
0.958522
0.958496
0.95847
0.958443
0.958415
0.958387
0.958358
0.958329
0.958299
0.958268
0.958237
0.958205
0.958173
0.95814
0.958106
0.958072
0.958037
0.958002
0.957966
0.957929
0.957892
0.957855
0.957817
0.957778
0.957739
0.957699
0.957659
0.957619
0.957578
0.957537
0.957496
0.957454
0.957413
0.957371
0.957329
0.957287
0.957246
0.957205
0.957164
0.957123
0.957083
0.957044
0.957005
0.956967
0.956929
0.956893
0.956857
0.956822
0.956789
0.956756
0.956724
0.956694
0.956665
0.956637
0.95661
0.956584
0.95656
0.956537
0.956515
0.956494
0.956475
0.956457
0.95644
0.956425
0.95641
0.956397
0.956385
0.956375
0.956365
0.956357
0.95635
0.956344
0.956339
0.956335
0.956332
0.956331
0.956331
0.956331
0.956333
0.956336
0.95634
0.956345
0.956351
0.956359
0.956367
0.956377
0.956388
0.956399
0.956413
0.956427
0.956442
0.956458
0.956476
0.956495
0.956514
0.956535
0.956557
0.95658
0.956604
0.956629
0.956655
0.956682
0.95671
0.956739
0.956768
0.956798
0.956828
0.956859
0.956891
0.956922
0.956954
0.956985
0.957016
0.957047
0.957077
0.957105
0.957133
0.957159
0.957183
0.957205
0.957224
0.95724
0.957253
0.957261
0.957264
0.957262
0.957254
0.957239
0.957215
0.957181
0.957137
0.95708
0.957008
0.956919
0.956809
0.956674
0.956509
0.956307
0.956059
0.955751
0.955367
0.95488
0.954258
0.95346
0.952418
0.950969
0.948944
0.946754
0.944779
0.943101
0.945763
0
0
0.984767
0.984773
0.98315
0.981177
0.979237
0.977318
0.975606
0.974099
0.97277
0.971595
0.970551
0.969616
0.968774
0.968011
0.967315
0.966678
0.966092
0.965551
0.965051
0.964587
0.964156
0.963754
0.963379
0.963029
0.962702
0.962396
0.96211
0.961841
0.961589
0.961352
0.96113
0.960921
0.960724
0.960538
0.960363
0.960197
0.96004
0.959891
0.959749
0.959614
0.959485
0.959362
0.959244
0.959131
0.959022
0.958916
0.958814
0.958715
0.958619
0.958525
0.958433
0.958343
0.958254
0.958167
0.958081
0.957996
0.957911
0.957828
0.957744
0.957661
0.957579
0.957496
0.957413
0.957331
0.957248
0.957165
0.957081
0.956998
0.956914
0.956829
0.956745
0.95666
0.956574
0.956488
0.956402
0.956316
0.95623
0.956144
0.956058
0.955972
0.955887
0.955803
0.955719
0.955637
0.955556
0.955477
0.9554
0.955325
0.955252
0.955182
0.955115
0.955052
0.954991
0.954935
0.954882
0.954833
0.954789
0.954748
0.954712
0.95468
0.954653
0.954629
0.95461
0.954595
0.954583
0.954575
0.95457
0.954569
0.95457
0.954575
0.954581
0.95459
0.9546
0.954613
0.954626
0.954641
0.954656
0.954672
0.954689
0.954706
0.954723
0.954741
0.954758
0.954775
0.954792
0.954809
0.954825
0.954841
0.954857
0.954872
0.954887
0.954901
0.954915
0.954929
0.954943
0.954957
0.95497
0.954984
0.954997
0.955012
0.955026
0.955041
0.955056
0.955073
0.955089
0.955108
0.955126
0.955147
0.955168
0.955191
0.955216
0.955242
0.955269
0.955299
0.95533
0.955363
0.955398
0.955435
0.955474
0.955515
0.955558
0.955603
0.95565
0.955699
0.95575
0.955803
0.955857
0.955914
0.955972
0.956031
0.956092
0.956155
0.956219
0.956284
0.95635
0.956417
0.956485
0.956554
0.956623
0.956693
0.956763
0.956834
0.956904
0.956975
0.957045
0.957116
0.957186
0.957255
0.957324
0.957392
0.957459
0.957526
0.957591
0.957656
0.957719
0.957781
0.957842
0.957901
0.957959
0.958015
0.95807
0.958123
0.958174
0.958223
0.958271
0.958317
0.95836
0.958402
0.958442
0.95848
0.958516
0.95855
0.958581
0.958611
0.958639
0.958665
0.958688
0.95871
0.958729
0.958747
0.958763
0.958776
0.958788
0.958798
0.958806
0.958812
0.958816
0.958819
0.95882
0.958819
0.958816
0.958812
0.958806
0.958799
0.958791
0.958781
0.958769
0.958757
0.958743
0.958728
0.958712
0.958695
0.958677
0.958658
0.958637
0.958617
0.958595
0.958572
0.958548
0.958524
0.958499
0.958474
0.958447
0.958421
0.958393
0.958365
0.958336
0.958307
0.958276
0.958246
0.958214
0.958183
0.95815
0.958117
0.958083
0.958049
0.958014
0.957979
0.957943
0.957906
0.957869
0.957831
0.957793
0.957754
0.957714
0.957675
0.957635
0.957594
0.957553
0.957512
0.957471
0.957429
0.957388
0.957346
0.957305
0.957263
0.957222
0.957181
0.957141
0.957101
0.957061
0.957022
0.956984
0.956946
0.95691
0.956874
0.956839
0.956805
0.956772
0.95674
0.956709
0.95668
0.956651
0.956624
0.956598
0.956574
0.95655
0.956528
0.956507
0.956487
0.956469
0.956452
0.956435
0.956421
0.956407
0.956395
0.956383
0.956373
0.956365
0.956357
0.95635
0.956345
0.95634
0.956337
0.956335
0.956334
0.956334
0.956335
0.956337
0.95634
0.956344
0.95635
0.956356
0.956364
0.956372
0.956382
0.956393
0.956405
0.956418
0.956432
0.956447
0.956464
0.956481
0.9565
0.956519
0.95654
0.956562
0.956584
0.956608
0.956632
0.956657
0.956684
0.95671
0.956738
0.956766
0.956795
0.956823
0.956853
0.956882
0.956911
0.95694
0.956968
0.956996
0.957023
0.957049
0.957074
0.957096
0.957117
0.957135
0.95715
0.957162
0.95717
0.957173
0.957171
0.957163
0.957149
0.957126
0.957095
0.957054
0.957
0.956934
0.956851
0.95675
0.956627
0.956479
0.956299
0.956082
0.955819
0.955498
0.955106
0.954624
0.954026
0.953277
0.95235
0.951241
0.949904
0.948456
0.947688
0.947438
0.948129
0
0
0.981255
0.981391
0.980499
0.979339
0.977881
0.976391
0.974975
0.973656
0.972454
0.971366
0.970382
0.969488
0.968676
0.967934
0.967254
0.966628
0.96605
0.965516
0.96502
0.96456
0.964131
0.963732
0.963359
0.96301
0.962685
0.96238
0.962094
0.961826
0.961575
0.961339
0.961117
0.960909
0.960712
0.960527
0.960352
0.960187
0.96003
0.959882
0.959741
0.959606
0.959478
0.959356
0.959238
0.959125
0.959017
0.958912
0.958811
0.958712
0.958616
0.958523
0.958432
0.958342
0.958254
0.958168
0.958082
0.957998
0.957914
0.957831
0.957748
0.957666
0.957584
0.957502
0.95742
0.957338
0.957256
0.957173
0.95709
0.957007
0.956924
0.95684
0.956755
0.95667
0.956585
0.9565
0.956414
0.956328
0.956241
0.956155
0.956069
0.955983
0.955898
0.955813
0.955729
0.955647
0.955565
0.955485
0.955407
0.955331
0.955258
0.955187
0.955119
0.955055
0.954994
0.954937
0.954883
0.954834
0.954789
0.954748
0.954711
0.954679
0.954651
0.954628
0.954608
0.954593
0.954581
0.954574
0.954569
0.954568
0.95457
0.954575
0.954582
0.954591
0.954602
0.954615
0.954629
0.954644
0.95466
0.954677
0.954694
0.954712
0.954729
0.954748
0.954765
0.954783
0.9548
0.954818
0.954834
0.954851
0.954866
0.954882
0.954897
0.954912
0.954927
0.954941
0.954955
0.954969
0.954983
0.954997
0.955011
0.955026
0.95504
0.955056
0.955071
0.955088
0.955105
0.955124
0.955143
0.955164
0.955185
0.955209
0.955233
0.95526
0.955287
0.955317
0.955348
0.955382
0.955416
0.955454
0.955493
0.955534
0.955577
0.955622
0.955669
0.955718
0.955768
0.955821
0.955875
0.955932
0.955989
0.956049
0.956109
0.956172
0.956235
0.9563
0.956366
0.956433
0.9565
0.956569
0.956637
0.956707
0.956776
0.956847
0.956916
0.956987
0.957056
0.957126
0.957195
0.957264
0.957332
0.9574
0.957467
0.957533
0.957597
0.957661
0.957724
0.957785
0.957845
0.957904
0.957961
0.958017
0.95807
0.958123
0.958173
0.958222
0.958269
0.958314
0.958357
0.958399
0.958438
0.958475
0.958511
0.958544
0.958575
0.958605
0.958632
0.958657
0.958681
0.958702
0.958721
0.958739
0.958754
0.958768
0.958779
0.958789
0.958797
0.958803
0.958807
0.95881
0.958811
0.95881
0.958808
0.958804
0.958799
0.958792
0.958784
0.958775
0.958764
0.958752
0.958738
0.958724
0.958709
0.958692
0.958675
0.958656
0.958637
0.958617
0.958595
0.958574
0.958551
0.958528
0.958503
0.958479
0.958453
0.958427
0.9584
0.958373
0.958345
0.958316
0.958287
0.958257
0.958226
0.958195
0.958163
0.958131
0.958097
0.958064
0.958029
0.957995
0.957959
0.957923
0.957886
0.957849
0.957811
0.957772
0.957733
0.957694
0.957654
0.957614
0.957573
0.957532
0.957491
0.95745
0.957409
0.957367
0.957326
0.957285
0.957244
0.957203
0.957162
0.957122
0.957083
0.957044
0.957005
0.956968
0.956931
0.956895
0.95686
0.956826
0.956793
0.956761
0.95673
0.9567
0.956671
0.956644
0.956617
0.956592
0.956568
0.956546
0.956524
0.956504
0.956485
0.956467
0.956451
0.956436
0.956421
0.956409
0.956397
0.956386
0.956376
0.956368
0.956361
0.956355
0.956349
0.956345
0.956342
0.956341
0.95634
0.95634
0.956341
0.956344
0.956347
0.956352
0.956357
0.956364
0.956371
0.95638
0.95639
0.956401
0.956413
0.956426
0.95644
0.956455
0.956471
0.956488
0.956506
0.956526
0.956546
0.956567
0.956589
0.956612
0.956635
0.95666
0.956685
0.956711
0.956737
0.956763
0.95679
0.956817
0.956844
0.956871
0.956898
0.956924
0.956949
0.956974
0.956997
0.957018
0.957038
0.957055
0.95707
0.957081
0.957089
0.957093
0.957092
0.957085
0.957072
0.957052
0.957024
0.956987
0.956939
0.956879
0.956805
0.956715
0.956606
0.956476
0.95632
0.956134
0.955913
0.955649
0.955333
0.954957
0.954506
0.953969
0.953332
0.952581
0.951738
0.950898
0.950116
0.949639
0.94978
0.950294
0
0
0.978689
0.97873
0.978309
0.977536
0.976493
0.975363
0.974205
0.97308
0.97202
0.971034
0.970123
0.969284
0.968511
0.967799
0.967141
0.966532
0.965969
0.965445
0.964958
0.964504
0.964081
0.963686
0.963317
0.962972
0.962649
0.962347
0.962063
0.961797
0.961548
0.961314
0.961093
0.960886
0.960691
0.960507
0.960333
0.960169
0.960014
0.959866
0.959726
0.959593
0.959466
0.959344
0.959228
0.959116
0.959008
0.958904
0.958804
0.958706
0.958611
0.958518
0.958428
0.958339
0.958252
0.958166
0.958082
0.957998
0.957915
0.957833
0.957751
0.95767
0.957588
0.957507
0.957426
0.957344
0.957263
0.957181
0.957099
0.957016
0.956933
0.95685
0.956766
0.956681
0.956596
0.956511
0.956425
0.956339
0.956253
0.956167
0.95608
0.955994
0.955909
0.955824
0.955739
0.955656
0.955574
0.955493
0.955414
0.955338
0.955263
0.955192
0.955123
0.955058
0.954996
0.954938
0.954883
0.954833
0.954788
0.954746
0.954709
0.954677
0.954649
0.954625
0.954606
0.954591
0.95458
0.954573
0.954569
0.954568
0.954571
0.954576
0.954584
0.954594
0.954605
0.954619
0.954634
0.95465
0.954666
0.954684
0.954702
0.95472
0.954738
0.954757
0.954775
0.954794
0.954811
0.954829
0.954846
0.954863
0.954879
0.954896
0.954911
0.954926
0.954941
0.954956
0.95497
0.954985
0.954999
0.955014
0.955028
0.955043
0.955058
0.955074
0.95509
0.955107
0.955125
0.955143
0.955163
0.955184
0.955206
0.955229
0.955254
0.955281
0.955308
0.955338
0.95537
0.955403
0.955438
0.955476
0.955515
0.955556
0.955599
0.955644
0.955691
0.95574
0.95579
0.955843
0.955897
0.955953
0.95601
0.95607
0.95613
0.956192
0.956255
0.95632
0.956385
0.956452
0.956518
0.956586
0.956655
0.956724
0.956793
0.956862
0.956931
0.957001
0.95707
0.957139
0.957207
0.957276
0.957343
0.95741
0.957476
0.957541
0.957605
0.957668
0.95773
0.95779
0.957849
0.957907
0.957963
0.958018
0.958071
0.958123
0.958173
0.958221
0.958267
0.958311
0.958354
0.958395
0.958433
0.95847
0.958505
0.958538
0.958568
0.958597
0.958624
0.958649
0.958672
0.958693
0.958712
0.958729
0.958744
0.958758
0.958769
0.958779
0.958786
0.958793
0.958797
0.9588
0.958801
0.958801
0.958798
0.958795
0.95879
0.958784
0.958776
0.958767
0.958757
0.958745
0.958733
0.958719
0.958704
0.958689
0.958672
0.958654
0.958636
0.958617
0.958596
0.958575
0.958554
0.958531
0.958508
0.958484
0.958459
0.958434
0.958408
0.958382
0.958355
0.958327
0.958298
0.958269
0.95824
0.958209
0.958178
0.958146
0.958114
0.958081
0.958047
0.958013
0.957978
0.957943
0.957906
0.95787
0.957832
0.957794
0.957756
0.957717
0.957677
0.957637
0.957597
0.957557
0.957516
0.957475
0.957434
0.957392
0.957351
0.95731
0.957269
0.957229
0.957188
0.957148
0.957109
0.95707
0.957031
0.956994
0.956957
0.956921
0.956886
0.956851
0.956818
0.956786
0.956754
0.956724
0.956695
0.956668
0.956641
0.956616
0.956591
0.956568
0.956546
0.956526
0.956506
0.956488
0.956471
0.956455
0.95644
0.956427
0.956414
0.956403
0.956393
0.956384
0.956376
0.956369
0.956363
0.956358
0.956354
0.956352
0.95635
0.95635
0.95635
0.956351
0.956354
0.956357
0.956362
0.956368
0.956374
0.956382
0.956391
0.9564
0.956411
0.956423
0.956436
0.956449
0.956464
0.95648
0.956497
0.956515
0.956533
0.956553
0.956573
0.956595
0.956617
0.956639
0.956663
0.956687
0.956711
0.956736
0.956761
0.956786
0.956811
0.956835
0.95686
0.956883
0.956906
0.956928
0.956948
0.956967
0.956984
0.956998
0.95701
0.957018
0.957022
0.957022
0.957017
0.957007
0.95699
0.956966
0.956933
0.956891
0.956838
0.956774
0.956695
0.956601
0.956488
0.956355
0.956198
0.956013
0.955797
0.955543
0.955246
0.9549
0.954499
0.954037
0.953516
0.952945
0.952344
0.951785
0.951367
0.951136
0.951302
0.951853
0
0
0.976574
0.976652
0.976437
0.975907
0.975171
0.974304
0.97337
0.972427
0.971506
0.970625
0.969794
0.969016
0.96829
0.967613
0.966984
0.966398
0.965852
0.965342
0.964867
0.964423
0.964008
0.96362
0.963256
0.962916
0.962598
0.962299
0.962019
0.961756
0.96151
0.961278
0.96106
0.960855
0.960662
0.960479
0.960308
0.960145
0.959991
0.959845
0.959707
0.959574
0.959449
0.959328
0.959213
0.959102
0.958996
0.958893
0.958793
0.958697
0.958603
0.958511
0.958422
0.958334
0.958248
0.958163
0.95808
0.957997
0.957915
0.957834
0.957753
0.957672
0.957592
0.957511
0.957431
0.95735
0.957269
0.957188
0.957107
0.957025
0.956942
0.956859
0.956776
0.956692
0.956607
0.956522
0.956437
0.956351
0.956265
0.956178
0.956092
0.956005
0.955919
0.955834
0.955749
0.955665
0.955582
0.955501
0.955421
0.955343
0.955268
0.955196
0.955126
0.95506
0.954997
0.954938
0.954883
0.954832
0.954786
0.954744
0.954707
0.954674
0.954646
0.954623
0.954604
0.954589
0.954579
0.954572
0.954569
0.954569
0.954572
0.954579
0.954587
0.954598
0.954611
0.954625
0.954641
0.954658
0.954675
0.954694
0.954712
0.954731
0.95475
0.954769
0.954788
0.954807
0.954825
0.954844
0.954861
0.954879
0.954895
0.954912
0.954928
0.954944
0.954959
0.954974
0.954989
0.955004
0.955019
0.955034
0.955048
0.955064
0.955079
0.955095
0.955112
0.955129
0.955147
0.955166
0.955186
0.955207
0.95523
0.955254
0.955278
0.955305
0.955333
0.955364
0.955395
0.955429
0.955464
0.955501
0.95554
0.955582
0.955624
0.95567
0.955716
0.955765
0.955815
0.955868
0.955922
0.955978
0.956035
0.956094
0.956154
0.956216
0.956278
0.956343
0.956407
0.956473
0.95654
0.956607
0.956675
0.956743
0.956811
0.95688
0.956949
0.957018
0.957086
0.957154
0.957222
0.957289
0.957356
0.957422
0.957486
0.957551
0.957614
0.957676
0.957737
0.957796
0.957854
0.957912
0.957967
0.958021
0.958073
0.958124
0.958172
0.95822
0.958265
0.958309
0.95835
0.95839
0.958428
0.958464
0.958498
0.958531
0.958561
0.958589
0.958615
0.95864
0.958662
0.958683
0.958701
0.958718
0.958733
0.958746
0.958757
0.958767
0.958775
0.958781
0.958785
0.958788
0.95879
0.95879
0.958788
0.958785
0.95878
0.958774
0.958767
0.958759
0.958749
0.958739
0.958727
0.958714
0.9587
0.958685
0.958669
0.958653
0.958635
0.958617
0.958597
0.958578
0.958557
0.958535
0.958513
0.95849
0.958467
0.958443
0.958418
0.958392
0.958366
0.958339
0.958312
0.958284
0.958255
0.958226
0.958195
0.958165
0.958133
0.958101
0.958068
0.958034
0.958
0.957965
0.957929
0.957893
0.957856
0.957819
0.957781
0.957743
0.957704
0.957664
0.957624
0.957584
0.957544
0.957503
0.957462
0.957421
0.95738
0.95734
0.957299
0.957258
0.957218
0.957178
0.957139
0.9571
0.957062
0.957024
0.956987
0.956951
0.956916
0.956881
0.956848
0.956815
0.956784
0.956754
0.956724
0.956696
0.956669
0.956643
0.956619
0.956595
0.956573
0.956552
0.956532
0.956513
0.956495
0.956479
0.956464
0.95645
0.956436
0.956425
0.956414
0.956404
0.956395
0.956388
0.956381
0.956375
0.956371
0.956367
0.956365
0.956363
0.956363
0.956363
0.956365
0.956367
0.956371
0.956375
0.956381
0.956388
0.956395
0.956404
0.956413
0.956424
0.956435
0.956448
0.956461
0.956476
0.956491
0.956507
0.956524
0.956543
0.956561
0.956581
0.956601
0.956622
0.956644
0.956666
0.956689
0.956711
0.956734
0.956758
0.95678
0.956803
0.956825
0.956847
0.956867
0.956887
0.956905
0.956921
0.956935
0.956946
0.956955
0.95696
0.956962
0.956959
0.956951
0.956937
0.956916
0.956889
0.956853
0.956808
0.956752
0.956685
0.956604
0.956508
0.956395
0.956263
0.95611
0.955932
0.955726
0.95549
0.95522
0.954912
0.954567
0.954184
0.953769
0.953339
0.952923
0.952557
0.952316
0.952252
0.952421
0.952894
0
0
0.974823
0.974952
0.974832
0.974476
0.973943
0.973273
0.972524
0.971737
0.970943
0.970164
0.969414
0.9687
0.968024
0.967387
0.96679
0.966229
0.965704
0.965212
0.964751
0.964319
0.963914
0.963534
0.963179
0.962845
0.962532
0.962238
0.961963
0.961704
0.961461
0.961232
0.961018
0.960815
0.960625
0.960445
0.960275
0.960115
0.959963
0.959819
0.959682
0.959552
0.959427
0.959308
0.959195
0.959085
0.95898
0.958879
0.958781
0.958685
0.958593
0.958502
0.958414
0.958327
0.958242
0.958159
0.958076
0.957994
0.957913
0.957833
0.957753
0.957673