# vtk DataFile Version 2.0
LBE two cylinders
ASCII
DATASET STRUCTURED_POINTS
DIMENSIONS 400 100 1
ASPECT_RATIO 1 1 1
ORIGIN 0 0 0
POINT_DATA 40000
SCALARS rho double 1
LOOKUP_TABLE default
1.33858
1.33585
1.33612
1.33613
1.3352
1.33467
1.33433
1.33364
1.33301
1.33246
1.33185
1.33121
1.33063
1.33004
1.32945
1.32888
1.32833
1.32779
1.32727
1.32677
1.32629
1.32582
1.32538
1.32495
1.32455
1.32416
1.32379
1.32345
1.32312
1.32281
1.32252
1.32224
1.32199
1.32175
1.32153
1.32133
1.32114
1.32097
1.32082
1.32068
1.32056
1.32046
1.32037
1.3203
1.32024
1.3202
1.32018
1.32017
1.32018
1.3202
1.32024
1.3203
1.32037
1.32046
1.32057
1.3207
1.32084
1.32101
1.32119
1.32139
1.32162
1.32186
1.32213
1.32241
1.32272
1.32305
1.32341
1.32379
1.3242
1.32463
1.32508
1.32557
1.32608
1.32661
1.32718
1.32777
1.32839
1.32903
1.32971
1.33041
1.33114
1.33189
1.33267
1.33347
1.3343
1.33515
1.33603
1.33692
1.33783
1.33875
1.33969
1.34065
1.34161
1.34258
1.34355
1.34453
1.3455
1.34648
1.34745
1.3484
1.34935
1.35029
1.35121
1.35211
1.35298
1.35384
1.35467
1.35547
1.35624
1.35698
1.35769
1.35837
1.35901
1.35962
1.36019
1.36073
1.36124
1.3617
1.36214
1.36254
1.36292
1.36326
1.36357
1.36386
1.36411
1.36435
1.36456
1.36475
1.36492
1.36507
1.3652
1.36532
1.36542
1.36551
1.36559
1.36566
1.36572
1.36577
1.36581
1.36585
1.36588
1.3659
1.36592
1.36594
1.36595
1.36596
1.36597
1.36598
1.36598
1.36598
1.36598
1.36599
1.36599
1.36599
1.36599
1.36598
1.36598
1.36598
1.36598
1.36598
1.36598
1.36598
1.36598
1.36598
1.36598
1.36598
1.36598
1.36599
1.36599
1.36599
1.36599
1.36599
1.366
1.366
1.366
1.36601
1.36601
1.36601
1.36602
1.36602
1.36603
1.36603
1.36603
1.36604
1.36604
1.36605
1.36605
1.36606
1.36606
1.36607
1.36608
1.36608
1.36609
1.36609
1.3661
1.36611
1.36612
1.36613
1.36613
1.36614
1.36615
1.36616
1.36617
1.36619
1.3662
1.36621
1.36622
1.36624
1.36625
1.36627
1.36628
1.3663
1.36631
1.36633
1.36635
1.36637
1.36639
1.36641
1.36643
1.36645
1.36646
1.36648
1.3665
1.36652
1.36654
1.36656
1.36658
1.36659
1.36661
1.36662
1.36663
1.36664
1.36665
1.36665
1.36665
1.36665
1.36665
1.36664
1.36663
1.36661
1.36659
1.36657
1.36654
1.3665
1.36647
1.36642
1.36637
1.36632
1.36626
1.3662
1.36613
1.36606
1.36598
1.3659
1.36582
1.36573
1.36563
1.36553
1.36543
1.36533
1.36522
1.3651
1.36499
1.36487
1.36474
1.36462
1.36449
1.36435
1.36421
1.36406
1.36391
1.36375
1.36358
1.3634
1.36322
1.36302
1.36281
1.36258
1.36234
1.36207
1.36179
1.36149
1.36117
1.36082
1.36044
1.36004
1.35961
1.35914
1.35865
1.35812
1.35756
1.35697
1.35634
1.35569
1.355
1.35428
1.35353
1.35276
1.35196
1.35114
1.3503
1.34944
1.34857
1.34768
1.34678
1.34587
1.34495
1.34403
1.34311
1.34219
1.34127
1.34036
1.33945
1.33854
1.33765
1.33676
1.33589
1.33503
1.33418
1.33334
1.33252
1.33171
1.33092
1.33015
1.32939
1.32865
1.32792
1.32721
1.32652
1.32584
1.32519
1.32454
1.32392
1.32331
1.32272
1.32214
1.32158
1.32103
1.3205
1.31999
1.31949
1.319
1.31853
1.31807
1.31763
1.3172
1.31678
1.31638
1.31599
1.31561
1.31524
1.31489
1.31455
1.31422
1.3139
1.31359
1.31329
1.31301
1.31273
1.31247
1.31222
1.31197
1.31174
1.31152
1.3113
1.3111
1.3109
1.31072
1.31054
1.31038
1.31022
1.31007
1.30993
1.3098
1.30968
1.30957
1.30947
1.30938
1.3093
1.30922
1.30917
1.30912
1.30906
1.30903
1.30907
1.30903
1.30894
1.30908
1.30926
1.30893
1.30881
1.30975
1.30965
1.3076
1.30857
1.31247
1.30786
1.29914
1.30968
1.31874
1.3367
1.33684
1.33634
1.33567
1.33535
1.33486
1.33426
1.33367
1.33312
1.33249
1.33188
1.33128
1.33068
1.33008
1.3295
1.32894
1.32838
1.32784
1.32732
1.32682
1.32633
1.32587
1.32542
1.32499
1.32459
1.3242
1.32383
1.32348
1.32315
1.32284
1.32255
1.32227
1.32202
1.32178
1.32156
1.32136
1.32117
1.321
1.32085
1.32071
1.32059
1.32049
1.3204
1.32032
1.32027
1.32023
1.3202
1.32019
1.3202
1.32022
1.32026
1.32032
1.32039
1.32048
1.32059
1.32072
1.32086
1.32103
1.32121
1.32141
1.32163
1.32187
1.32214
1.32242
1.32273
1.32306
1.32342
1.3238
1.3242
1.32463
1.32509
1.32557
1.32607
1.32661
1.32717
1.32776
1.32837
1.32902
1.32969
1.33039
1.33111
1.33187
1.33264
1.33344
1.33427
1.33512
1.33599
1.33688
1.33778
1.33871
1.33964
1.34059
1.34155
1.34252
1.34349
1.34447
1.34544
1.34641
1.34738
1.34834
1.34929
1.35022
1.35114
1.35204
1.35292
1.35377
1.3546
1.35541
1.35618
1.35692
1.35764
1.35831
1.35896
1.35957
1.36014
1.36069
1.36119
1.36166
1.3621
1.36251
1.36288
1.36323
1.36354
1.36383
1.36409
1.36433
1.36454
1.36473
1.3649
1.36505
1.36519
1.36531
1.36541
1.3655
1.36558
1.36565
1.36571
1.36576
1.36581
1.36584
1.36587
1.3659
1.36592
1.36594
1.36595
1.36596
1.36597
1.36597
1.36598
1.36598
1.36598
1.36598
1.36598
1.36598
1.36598
1.36598
1.36598
1.36598
1.36598
1.36598
1.36598
1.36598
1.36598
1.36598
1.36598
1.36598
1.36598
1.36598
1.36599
1.36599
1.36599
1.36599
1.36599
1.366
1.366
1.366
1.36601
1.36601
1.36601
1.36602
1.36602
1.36603
1.36603
1.36603
1.36604
1.36604
1.36605
1.36605
1.36606
1.36607
1.36607
1.36608
1.36608
1.36609
1.3661
1.3661
1.36611
1.36612
1.36613
1.36614
1.36615
1.36616
1.36617
1.36618
1.36619
1.3662
1.36621
1.36623
1.36624
1.36626
1.36627
1.36629
1.3663
1.36632
1.36634
1.36636
1.36637
1.36639
1.36641
1.36643
1.36645
1.36647
1.36649
1.36651
1.36652
1.36654
1.36656
1.36657
1.36659
1.3666
1.36661
1.36662
1.36662
1.36663
1.36663
1.36663
1.36662
1.36661
1.3666
1.36659
1.36657
1.36654
1.36651
1.36648
1.36644
1.3664
1.36635
1.3663
1.36624
1.36617
1.36611
1.36603
1.36596
1.36587
1.36579
1.3657
1.3656
1.3655
1.3654
1.36529
1.36518
1.36507
1.36495
1.36483
1.3647
1.36457
1.36444
1.3643
1.36416
1.36401
1.36385
1.36369
1.36352
1.36334
1.36315
1.36295
1.36274
1.36251
1.36226
1.362
1.36172
1.36141
1.36109
1.36074
1.36036
1.35996
1.35952
1.35906
1.35857
1.35804
1.35748
1.35689
1.35627
1.35562
1.35494
1.35422
1.35348
1.35271
1.35192
1.3511
1.35027
1.34941
1.34854
1.34766
1.34676
1.34586
1.34495
1.34403
1.34312
1.3422
1.34128
1.34037
1.33947
1.33857
1.33767
1.33679
1.33592
1.33506
1.33422
1.33338
1.33256
1.33176
1.33097
1.33019
1.32944
1.32869
1.32797
1.32726
1.32657
1.32589
1.32524
1.32459
1.32397
1.32336
1.32276
1.32219
1.32162
1.32108
1.32055
1.32003
1.31953
1.31904
1.31857
1.31811
1.31766
1.31723
1.31681
1.31641
1.31602
1.31564
1.31527
1.31491
1.31457
1.31424
1.31392
1.31361
1.31331
1.31302
1.31275
1.31248
1.31223
1.31198
1.31175
1.31152
1.3113
1.3111
1.3109
1.31071
1.31054
1.31037
1.31021
1.31006
1.30991
1.30978
1.30965
1.30954
1.30943
1.30933
1.30925
1.30917
1.30909
1.30904
1.309
1.30894
1.30889
1.30892
1.30893
1.3088
1.30881
1.30906
1.3089
1.30841
1.30883
1.30951
1.30781
1.30633
1.30898
1.30844
1.29857
1.29311
1.33603
1.33701
1.33629
1.33558
1.33555
1.33497
1.33425
1.33376
1.3332
1.33252
1.33192
1.33134
1.33072
1.33011
1.32954
1.32897
1.3284
1.32787
1.32734
1.32684
1.32635
1.32589
1.32544
1.32501
1.3246
1.32421
1.32385
1.3235
1.32317
1.32285
1.32256
1.32229
1.32203
1.32179
1.32157
1.32137
1.32118
1.32101
1.32086
1.32072
1.3206
1.32049
1.3204
1.32033
1.32027
1.32023
1.32021
1.3202
1.32021
1.32023
1.32027
1.32032
1.3204
1.32049
1.32059
1.32072
1.32086
1.32102
1.3212
1.32141
1.32163
1.32187
1.32213
1.32241
1.32272
1.32305
1.3234
1.32378
1.32418
1.32461
1.32506
1.32554
1.32604
1.32657
1.32713
1.32772
1.32833
1.32897
1.32964
1.33034
1.33106
1.33181
1.33259
1.33338
1.33421
1.33506
1.33592
1.33681
1.33772
1.33864
1.33958
1.34052
1.34148
1.34245
1.34342
1.3444
1.34537
1.34635
1.34731
1.34827
1.34922
1.35016
1.35108
1.35198
1.35287
1.35372
1.35456
1.35536
1.35614
1.35689
1.3576
1.35829
1.35893
1.35955
1.36013
1.36067
1.36118
1.36165
1.36209
1.3625
1.36288
1.36322
1.36354
1.36383
1.36409
1.36433
1.36454
1.36473
1.3649
1.36506
1.36519
1.36531
1.36542
1.36551
1.36559
1.36566
1.36571
1.36576
1.36581
1.36585
1.36587
1.3659
1.36592
1.36594
1.36595
1.36596
1.36597
1.36598
1.36598
1.36598
1.36598
1.36599
1.36599
1.36599
1.36598
1.36598
1.36598
1.36598
1.36598
1.36598
1.36598
1.36598
1.36598
1.36598
1.36598
1.36598
1.36598
1.36598
1.36599
1.36599
1.36599
1.36599
1.366
1.366
1.366
1.366
1.36601
1.36601
1.36601
1.36602
1.36602
1.36603
1.36603
1.36603
1.36604
1.36604
1.36605
1.36605
1.36606
1.36606
1.36607
1.36608
1.36608
1.36609
1.36609
1.3661
1.36611
1.36612
1.36612
1.36613
1.36614
1.36615
1.36616
1.36617
1.36618
1.3662
1.36621
1.36622
1.36623
1.36625
1.36626
1.36628
1.36629
1.36631
1.36633
1.36635
1.36636
1.36638
1.3664
1.36642
1.36644
1.36646
1.36647
1.36649
1.36651
1.36653
1.36654
1.36656
1.36657
1.36658
1.36659
1.3666
1.36661
1.36661
1.36661
1.36661
1.36661
1.3666
1.36658
1.36657
1.36655
1.36652
1.36649
1.36646
1.36642
1.36638
1.36633
1.36628
1.36622
1.36615
1.36609
1.36601
1.36593
1.36585
1.36576
1.36567
1.36558
1.36548
1.36537
1.36526
1.36515
1.36504
1.36492
1.36479
1.36467
1.36454
1.3644
1.36426
1.36412
1.36396
1.36381
1.36364
1.36347
1.36329
1.3631
1.36289
1.36268
1.36245
1.3622
1.36194
1.36165
1.36135
1.36102
1.36067
1.3603
1.35989
1.35946
1.359
1.35851
1.35798
1.35742
1.35684
1.35622
1.35556
1.35488
1.35417
1.35343
1.35267
1.35187
1.35106
1.35023
1.34938
1.34851
1.34763
1.34674
1.34583
1.34493
1.34401
1.3431
1.34219
1.34127
1.34037
1.33946
1.33857
1.33768
1.3368
1.33593
1.33507
1.33423
1.3334
1.33258
1.33178
1.33099
1.33022
1.32946
1.32872
1.32799
1.32729
1.3266
1.32592
1.32526
1.32462
1.324
1.32339
1.32279
1.32221
1.32165
1.32111
1.32057
1.32006
1.31955
1.31907
1.31859
1.31813
1.31769
1.31725
1.31684
1.31643
1.31604
1.31565
1.31529
1.31493
1.31458
1.31425
1.31393
1.31362
1.31332
1.31303
1.31275
1.31249
1.31223
1.31198
1.31175
1.31152
1.3113
1.31109
1.31089
1.3107
1.31052
1.31035
1.31019
1.31004
1.30989
1.30975
1.30962
1.30951
1.3094
1.30929
1.3092
1.30912
1.30904
1.30896
1.30892
1.30889
1.30879
1.30874
1.30885
1.30878
1.30848
1.30873
1.30912
1.30826
1.30768
1.30954
1.3092
1.30442
1.30641
1.31324
1.30089
1.28876
1.33645
1.33652
1.33639
1.33613
1.33559
1.33493
1.33445
1.33386
1.33319
1.33258
1.33199
1.33135
1.33073
1.33014
1.32955
1.32897
1.32841
1.32787
1.32734
1.32683
1.32635
1.32588
1.32543
1.325
1.32459
1.3242
1.32383
1.32348
1.32315
1.32284
1.32255
1.32227
1.32202
1.32178
1.32156
1.32136
1.32117
1.321
1.32085
1.32071
1.32059
1.32048
1.32039
1.32032
1.32026
1.32022
1.3202
1.32019
1.32019
1.32022
1.32025
1.32031
1.32038
1.32047
1.32058
1.3207
1.32084
1.321
1.32118
1.32138
1.3216
1.32184
1.3221
1.32238
1.32268
1.32301
1.32336
1.32373
1.32413
1.32455
1.325
1.32548
1.32598
1.32651
1.32706
1.32765
1.32826
1.3289
1.32956
1.33026
1.33098
1.33172
1.3325
1.33329
1.33412
1.33496
1.33583
1.33672
1.33762
1.33854
1.33948
1.34043
1.34139
1.34236
1.34334
1.34431
1.34529
1.34627
1.34724
1.3482
1.34916
1.3501
1.35103
1.35193
1.35282
1.35368
1.35452
1.35534
1.35612
1.35687
1.35759
1.35828
1.35893
1.35955
1.36013
1.36068
1.36119
1.36167
1.36211
1.36252
1.3629
1.36324
1.36356
1.36385
1.36411
1.36435
1.36456
1.36475
1.36492
1.36507
1.36521
1.36533
1.36543
1.36552
1.3656
1.36567
1.36573
1.36578
1.36582
1.36585
1.36588
1.36591
1.36593
1.36595
1.36596
1.36597
1.36598
1.36598
1.36598
1.36599
1.36599
1.36599
1.36599
1.36599
1.36599
1.36599
1.36599
1.36599
1.36599
1.36598
1.36598
1.36598
1.36598
1.36598
1.36598
1.36599
1.36599
1.36599
1.36599
1.36599
1.36599
1.366
1.366
1.366
1.366
1.36601
1.36601
1.36601
1.36602
1.36602
1.36602
1.36603
1.36603
1.36604
1.36604
1.36605
1.36605
1.36606
1.36606
1.36607
1.36607
1.36608
1.36608
1.36609
1.36609
1.3661
1.36611
1.36612
1.36612
1.36613
1.36614
1.36615
1.36616
1.36617
1.36618
1.36619
1.3662
1.36622
1.36623
1.36624
1.36626
1.36627
1.36629
1.36631
1.36632
1.36634
1.36636
1.36637
1.36639
1.36641
1.36643
1.36645
1.36646
1.36648
1.3665
1.36652
1.36653
1.36655
1.36656
1.36657
1.36658
1.36659
1.3666
1.3666
1.3666
1.3666
1.36659
1.36658
1.36657
1.36656
1.36654
1.36651
1.36648
1.36645
1.36641
1.36636
1.36632
1.36626
1.3662
1.36614
1.36607
1.366
1.36592
1.36583
1.36575
1.36565
1.36556
1.36545
1.36535
1.36524
1.36513
1.36501
1.36489
1.36477
1.36464
1.3645
1.36437
1.36423
1.36408
1.36393
1.36377
1.3636
1.36343
1.36325
1.36305
1.36285
1.36263
1.3624
1.36215
1.36189
1.3616
1.3613
1.36097
1.36062
1.36024
1.35984
1.3594
1.35894
1.35845
1.35792
1.35736
1.35677
1.35615
1.3555
1.35482
1.3541
1.35336
1.3526
1.35181
1.35099
1.35016
1.34931
1.34844
1.34756
1.34667
1.34577
1.34487
1.34396
1.34304
1.34213
1.34122
1.34032
1.33942
1.33852
1.33764
1.33676
1.33589
1.33504
1.3342
1.33337
1.33255
1.33175
1.33097
1.3302
1.32945
1.32871
1.32799
1.32728
1.32659
1.32592
1.32526
1.32463
1.324
1.32339
1.3228
1.32222
1.32166
1.32112
1.32059
1.32007
1.31957
1.31908
1.31861
1.31815
1.3177
1.31727
1.31685
1.31644
1.31605
1.31567
1.3153
1.31494
1.3146
1.31426
1.31394
1.31363
1.31333
1.31304
1.31276
1.31249
1.31223
1.31199
1.31175
1.31152
1.3113
1.31109
1.31089
1.3107
1.31052
1.31035
1.31018
1.31003
1.30988
1.30974
1.30961
1.30949
1.30938
1.30927
1.30917
1.30908
1.30902
1.30895
1.30885
1.30882
1.30883
1.30872
1.3086
1.30878
1.30885
1.30835
1.30837
1.30926
1.30865
1.30696
1.30861
1.31026
1.30553
1.30349
1.30885
1.30949
1.33723
1.33692
1.33676
1.33639
1.33565
1.33509
1.33462
1.33389
1.33323
1.33265
1.332
1.33134
1.33073
1.33013
1.32952
1.32894
1.32838
1.32783
1.3273
1.32679
1.3263
1.32583
1.32539
1.32496
1.32455
1.32416
1.32379
1.32344
1.32311
1.3228
1.32251
1.32224
1.32198
1.32174
1.32152
1.32132
1.32114
1.32097
1.32081
1.32068
1.32056
1.32045
1.32036
1.32029
1.32023
1.32019
1.32017
1.32016
1.32016
1.32018
1.32022
1.32027
1.32034
1.32043
1.32054
1.32066
1.3208
1.32096
1.32113
1.32133
1.32155
1.32178
1.32204
1.32232
1.32262
1.32294
1.32329
1.32366
1.32405
1.32447
1.32492
1.32539
1.32589
1.32641
1.32697
1.32754
1.32815
1.32879
1.32945
1.33014
1.33086
1.3316
1.33237
1.33317
1.33399
1.33484
1.3357
1.33659
1.3375
1.33842
1.33936
1.34031
1.34128
1.34225
1.34323
1.34421
1.34519
1.34618
1.34715
1.34812
1.34908
1.35003
1.35097
1.35188
1.35278
1.35365
1.35449
1.35531
1.3561
1.35686
1.35759
1.35828
1.35894
1.35956
1.36015
1.3607
1.36122
1.3617
1.36214
1.36255
1.36293
1.36328
1.3636
1.36389
1.36415
1.36438
1.36459
1.36478
1.36495
1.3651
1.36524
1.36535
1.36545
1.36554
1.36562
1.36569
1.36575
1.36579
1.36583
1.36587
1.3659
1.36592
1.36594
1.36596
1.36597
1.36598
1.36598
1.36599
1.36599
1.366
1.366
1.366
1.366
1.366
1.366
1.36599
1.36599
1.36599
1.36599
1.36599
1.36599
1.36599
1.36599
1.36599
1.36599
1.36599
1.36599
1.36599
1.366
1.366
1.366
1.366
1.366
1.36601
1.36601
1.36601
1.36602
1.36602
1.36602
1.36603
1.36603
1.36603
1.36604
1.36604
1.36605
1.36605
1.36606
1.36606
1.36607
1.36607
1.36608
1.36608
1.36609
1.36609
1.3661
1.36611
1.36611
1.36612
1.36613
1.36613
1.36614
1.36615
1.36616
1.36617
1.36618
1.36619
1.3662
1.36622
1.36623
1.36624
1.36626
1.36627
1.36629
1.3663
1.36632
1.36634
1.36635
1.36637
1.36639
1.3664
1.36642
1.36644
1.36646
1.36648
1.36649
1.36651
1.36652
1.36654
1.36655
1.36656
1.36657
1.36658
1.36659
1.36659
1.36659
1.36659
1.36658
1.36658
1.36656
1.36655
1.36653
1.3665
1.36647
1.36644
1.3664
1.36636
1.36631
1.36625
1.36619
1.36613
1.36606
1.36598
1.36591
1.36582
1.36573
1.36564
1.36554
1.36544
1.36533
1.36522
1.36511
1.36499
1.36487
1.36474
1.36461
1.36448
1.36434
1.3642
1.36405
1.3639
1.36374
1.36357
1.3634
1.36322
1.36302
1.36282
1.3626
1.36237
1.36212
1.36185
1.36156
1.36126
1.36093
1.36057
1.36019
1.35978
1.35934
1.35888
1.35838
1.35785
1.35729
1.35669
1.35607
1.35541
1.35472
1.35401
1.35326
1.35249
1.3517
1.35088
1.35005
1.3492
1.34833
1.34745
1.34656
1.34566
1.34475
1.34384
1.34293
1.34202
1.34111
1.34021
1.33931
1.33842
1.33754
1.33666
1.3358
1.33495
1.33411
1.33329
1.33248
1.33168
1.3309
1.33014
1.32939
1.32866
1.32794
1.32724
1.32656
1.32589
1.32524
1.3246
1.32398
1.32338
1.32279
1.32221
1.32166
1.32111
1.32058
1.32007
1.31957
1.31908
1.31861
1.31816
1.31771
1.31728
1.31686
1.31646
1.31606
1.31568
1.31531
1.31496
1.31461
1.31428
1.31396
1.31365
1.31335
1.31306
1.31278
1.31251
1.31225
1.312
1.31176
1.31154
1.31132
1.31111
1.31091
1.31072
1.31053
1.31036
1.3102
1.31004
1.30989
1.30975
1.30963
1.3095
1.30939
1.30929
1.3092
1.3091
1.30902
1.30898
1.30892
1.30882
1.30882
1.30888
1.30872
1.30864
1.30897
1.30894
1.30832
1.3088
1.30981
1.30828
1.30734
1.31073
1.31004
1.30511
1.30845
1.31098
1.33814
1.33771
1.33716
1.3365
1.33595
1.33536
1.33463
1.33394
1.33333
1.33265
1.33196
1.33133
1.3307
1.33007
1.32946
1.32888
1.32831
1.32775
1.32723
1.32672
1.32622
1.32576
1.32531
1.32488
1.32447
1.32408
1.32372
1.32337
1.32304
1.32273
1.32244
1.32217
1.32192
1.32168
1.32146
1.32126
1.32108
1.32091
1.32076
1.32062
1.3205
1.3204
1.32031
1.32024
1.32018
1.32014
1.32012
1.32011
1.32011
1.32013
1.32017
1.32022
1.32029
1.32038
1.32048
1.3206
1.32074
1.32089
1.32107
1.32126
1.32147
1.32171
1.32196
1.32223
1.32253
1.32285
1.32319
1.32356
1.32395
1.32436
1.32481
1.32527
1.32576
1.32629
1.32683
1.32741
1.32801
1.32864
1.3293
1.32999
1.33071
1.33145
1.33222
1.33301
1.33383
1.33468
1.33554
1.33643
1.33734
1.33827
1.33921
1.34017
1.34114
1.34211
1.3431
1.34409
1.34507
1.34606
1.34705
1.34803
1.349
1.34995
1.3509
1.35182
1.35273
1.35361
1.35446
1.35529
1.35609
1.35686
1.3576
1.3583
1.35896
1.35959
1.36019
1.36074
1.36126
1.36174
1.36219
1.3626
1.36298
1.36333
1.36365
1.36394
1.3642
1.36443
1.36464
1.36483
1.365
1.36514
1.36527
1.36539
1.36549
1.36557
1.36565
1.36572
1.36577
1.36582
1.36586
1.36589
1.36592
1.36594
1.36596
1.36597
1.36598
1.36599
1.366
1.366
1.366
1.36601
1.36601
1.36601
1.36601
1.36601
1.366
1.366
1.366
1.366
1.366
1.366
1.366
1.366
1.366
1.366
1.366
1.366
1.366
1.366
1.366
1.36601
1.36601
1.36601
1.36601
1.36602
1.36602
1.36602
1.36602
1.36603
1.36603
1.36604
1.36604
1.36604
1.36605
1.36605
1.36606
1.36606
1.36606
1.36607
1.36607
1.36608
1.36608
1.36609
1.36609
1.3661
1.36611
1.36611
1.36612
1.36613
1.36613
1.36614
1.36615
1.36616
1.36617
1.36618
1.36619
1.3662
1.36621
1.36622
1.36623
1.36624
1.36626
1.36627
1.36629
1.3663
1.36632
1.36633
1.36635
1.36637
1.36639
1.3664
1.36642
1.36644
1.36646
1.36647
1.36649
1.36651
1.36652
1.36653
1.36655
1.36656
1.36657
1.36658
1.36658
1.36659
1.36659
1.36658
1.36658
1.36657
1.36656
1.36654
1.36652
1.3665
1.36647
1.36643
1.36639
1.36635
1.3663
1.36625
1.36619
1.36612
1.36605
1.36598
1.3659
1.36581
1.36572
1.36563
1.36553
1.36543
1.36532
1.36521
1.3651
1.36498
1.36486
1.36473
1.3646
1.36447
1.36433
1.36419
1.36404
1.36389
1.36372
1.36356
1.36338
1.3632
1.363
1.36279
1.36257
1.36234
1.36209
1.36182
1.36153
1.36122
1.36088
1.36052
1.36014
1.35972
1.35928
1.3588
1.3583
1.35776
1.35719
1.35659
1.35596
1.35529
1.3546
1.35387
1.35312
1.35235
1.35155
1.35073
1.34989
1.34903
1.34816
1.34727
1.34638
1.34548
1.34457
1.34366
1.34275
1.34184
1.34094
1.34003
1.33914
1.33825
1.33737
1.3365
1.33564
1.3348
1.33397
1.33315
1.33234
1.33156
1.33078
1.33002
1.32928
1.32856
1.32785
1.32715
1.32648
1.32581
1.32517
1.32454
1.32393
1.32333
1.32275
1.32218
1.32163
1.32109
1.32057
1.32006
1.31956
1.31908
1.31861
1.31816
1.31772
1.31729
1.31687
1.31647
1.31608
1.3157
1.31534
1.31498
1.31464
1.31431
1.31399
1.31368
1.31338
1.31309
1.31281
1.31254
1.31229
1.31204
1.3118
1.31157
1.31136
1.31115
1.31095
1.31076
1.31058
1.31041
1.31024
1.31009
1.30995
1.30981
1.30968
1.30957
1.30946
1.30935
1.30927
1.3092
1.30911
1.30904
1.30905
1.30902
1.3089
1.30895
1.30913
1.30896
1.30878
1.30936
1.30958
1.30863
1.3091
1.31094
1.30955
1.30787
1.31116
1.31298
1.30998
1.30966
1.33918
1.33836
1.33762
1.33687
1.33624
1.33548
1.33469
1.33403
1.33334
1.3326
1.33193
1.33128
1.33061
1.32997
1.32937
1.32877
1.32819
1.32764
1.32711
1.3266
1.32611
1.32564
1.32519
1.32477
1.32436
1.32397
1.32361
1.32327
1.32294
1.32263
1.32235
1.32208
1.32183
1.32159
1.32138
1.32118
1.321
1.32083
1.32068
1.32055
1.32043
1.32033
1.32024
1.32017
1.32012
1.32007
1.32005
1.32004
1.32004
1.32006
1.3201
1.32015
1.32022
1.3203
1.3204
1.32052
1.32065
1.32081
1.32098
1.32117
1.32138
1.32161
1.32186
1.32213
1.32242
1.32273
1.32307
1.32343
1.32382
1.32423
1.32466
1.32512
1.32561
1.32613
1.32667
1.32724
1.32784
1.32847
1.32912
1.32981
1.33052
1.33126
1.33203
1.33282
1.33364
1.33449
1.33535
1.33624
1.33715
1.33808
1.33903
1.33999
1.34096
1.34195
1.34294
1.34393
1.34493
1.34593
1.34692
1.34791
1.34889
1.34986
1.35081
1.35175
1.35267
1.35356
1.35443
1.35527
1.35608
1.35686
1.3576
1.35832
1.35899
1.35963
1.36023
1.36079
1.36131
1.3618
1.36225
1.36267
1.36305
1.36339
1.36371
1.364
1.36426
1.36449
1.3647
1.36488
1.36505
1.36519
1.36532
1.36543
1.36553
1.36561
1.36568
1.36575
1.3658
1.36584
1.36588
1.36591
1.36594
1.36596
1.36598
1.36599
1.366
1.36601
1.36601
1.36601
1.36602
1.36602
1.36602
1.36602
1.36602
1.36602
1.36601
1.36601
1.36601
1.36601
1.36601
1.36601
1.36601
1.36601
1.36601
1.36601
1.36601
1.36601
1.36601
1.36601
1.36601
1.36602
1.36602
1.36602
1.36602
1.36603
1.36603
1.36603
1.36604
1.36604
1.36604
1.36605
1.36605
1.36605
1.36606
1.36606
1.36607
1.36607
1.36608
1.36608
1.36608
1.36609
1.36609
1.3661
1.3661
1.36611
1.36612
1.36612
1.36613
1.36613
1.36614
1.36615
1.36616
1.36617
1.36617
1.36618
1.36619
1.3662
1.36621
1.36623
1.36624
1.36625
1.36626
1.36628
1.36629
1.36631
1.36632
1.36634
1.36635
1.36637
1.36639
1.3664
1.36642
1.36644
1.36646
1.36647
1.36649
1.3665
1.36652
1.36653
1.36655
1.36656
1.36657
1.36657
1.36658
1.36658
1.36658
1.36658
1.36658
1.36657
1.36655
1.36654
1.36652
1.36649
1.36646
1.36643
1.36639
1.36634
1.36629
1.36624
1.36618
1.36611
1.36604
1.36597
1.36589
1.3658
1.36572
1.36562
1.36552
1.36542
1.36531
1.3652
1.36509
1.36497
1.36485
1.36472
1.36459
1.36446
1.36432
1.36418
1.36403
1.36388
1.36372
1.36355
1.36337
1.36318
1.36299
1.36278
1.36256
1.36232
1.36207
1.36179
1.3615
1.36118
1.36084
1.36047
1.36008
1.35966
1.35921
1.35872
1.35821
1.35766
1.35708
1.35646
1.35582
1.35514
1.35444
1.3537
1.35294
1.35216
1.35135
1.35052
1.34967
1.34881
1.34793
1.34704
1.34615
1.34524
1.34433
1.34342
1.34251
1.3416
1.3407
1.3398
1.3389
1.33802
1.33714
1.33628
1.33542
1.33458
1.33376
1.33294
1.33215
1.33137
1.3306
1.32985
1.32912
1.3284
1.3277
1.32702
1.32635
1.3257
1.32506
1.32445
1.32384
1.32325
1.32268
1.32212
1.32158
1.32105
1.32053
1.32003
1.31954
1.31907
1.31861
1.31816
1.31772
1.3173
1.31689
1.31649
1.31611
1.31573
1.31537
1.31502
1.31468
1.31435
1.31403
1.31373
1.31343
1.31315
1.31287
1.31261
1.31235
1.31211
1.31187
1.31165
1.31143
1.31122
1.31103
1.31084
1.31066
1.31049
1.31033
1.31018
1.31004
1.30991
1.30979
1.30968
1.30958
1.30949
1.3094
1.30935
1.30931
1.30924
1.3092
1.30926
1.30926
1.30916
1.30931
1.30958
1.30938
1.30935
1.31019
1.31029
1.30946
1.3107
1.31219
1.3108
1.31102
1.31357
1.31384
1.31449
1.34021
1.33895
1.33812
1.33729
1.3364
1.33556
1.33482
1.33406
1.33327
1.33255
1.33186
1.33116
1.33048
1.32985
1.32922
1.32862
1.32804
1.32749
1.32695
1.32644
1.32595
1.32548
1.32504
1.32462
1.32421
1.32383
1.32347
1.32313
1.32281
1.32251
1.32223
1.32196
1.32171
1.32148
1.32127
1.32108
1.3209
1.32074
1.32059
1.32046
1.32034
1.32024
1.32016
1.32009
1.32003
1.31999
1.31996
1.31995
1.31996
1.31998
1.32001
1.32006
1.32013
1.32021
1.32031
1.32042
1.32056
1.32071
1.32087
1.32106
1.32126
1.32149
1.32173
1.322
1.32229
1.3226
1.32293
1.32328
1.32366
1.32407
1.3245
1.32495
1.32543
1.32594
1.32648
1.32705
1.32764
1.32826
1.32891
1.32959
1.3303
1.33104
1.3318
1.33259
1.33341
1.33426
1.33513
1.33602
1.33693
1.33786
1.33881
1.33978
1.34076
1.34175
1.34274
1.34375
1.34476
1.34576
1.34677
1.34777
1.34876
1.34974
1.35071
1.35166
1.35259
1.3535
1.35438
1.35523
1.35606
1.35685
1.35761
1.35833
1.35902
1.35966
1.36027
1.36084
1.36137
1.36186
1.36232
1.36274
1.36312
1.36347
1.36378
1.36407
1.36432
1.36455
1.36476
1.36494
1.3651
1.36525
1.36537
1.36548
1.36557
1.36565
1.36572
1.36578
1.36583
1.36588
1.36591
1.36594
1.36596
1.36598
1.366
1.36601
1.36602
1.36602
1.36603
1.36603
1.36603
1.36603
1.36603
1.36603
1.36603
1.36603
1.36603
1.36603
1.36602
1.36602
1.36602
1.36602
1.36602
1.36602
1.36602
1.36602
1.36602
1.36602
1.36602
1.36603
1.36603
1.36603
1.36603
1.36603
1.36604
1.36604
1.36604
1.36605
1.36605
1.36605
1.36606
1.36606
1.36606
1.36607
1.36607
1.36608
1.36608
1.36609
1.36609
1.36609
1.3661
1.3661
1.36611
1.36611
1.36612
1.36612
1.36613
1.36613
1.36614
1.36615
1.36615
1.36616
1.36617
1.36618
1.36618
1.36619
1.3662
1.36621
1.36622
1.36623
1.36625
1.36626
1.36627
1.36628
1.3663
1.36631
1.36633
1.36634
1.36636
1.36638
1.36639
1.36641
1.36643
1.36644
1.36646
1.36648
1.36649
1.36651
1.36652
1.36653
1.36655
1.36656
1.36657
1.36658
1.36658
1.36658
1.36658
1.36658
1.36658
1.36657
1.36655
1.36654
1.36652
1.36649
1.36646
1.36642
1.36638
1.36634
1.36629
1.36623
1.36617
1.36611
1.36604
1.36596
1.36588
1.3658
1.36571
1.36561
1.36552
1.36541
1.36531
1.3652
1.36508
1.36497
1.36484
1.36472
1.36459
1.36446
1.36432
1.36418
1.36403
1.36388
1.36372
1.36355
1.36337
1.36318
1.36299
1.36277
1.36255
1.36231
1.36205
1.36177
1.36147
1.36115
1.3608
1.36043
1.36002
1.35959
1.35913
1.35863
1.3581
1.35754
1.35694
1.35632
1.35566
1.35496
1.35424
1.3535
1.35272
1.35192
1.35111
1.35027
1.34941
1.34854
1.34766
1.34676
1.34586
1.34495
1.34404
1.34313
1.34221
1.3413
1.3404
1.3395
1.3386
1.33772
1.33685
1.33599
1.33514
1.33431
1.33348
1.33268
1.33189
1.33112
1.33037
1.32963
1.3289
1.3282
1.32751
1.32684
1.32618
1.32554
1.32492
1.32431
1.32372
1.32314
1.32258
1.32204
1.3215
1.32098
1.32048
1.31999
1.31951
1.31905
1.3186
1.31816
1.31773
1.31732
1.31691
1.31652
1.31614
1.31578
1.31542
1.31507
1.31474
1.31442
1.3141
1.3138
1.31351
1.31323
1.31296
1.3127
1.31245
1.3122
1.31197
1.31175
1.31154
1.31134
1.31115
1.31096
1.31079
1.31063
1.31047
1.31033
1.31019
1.31007
1.30996
1.30986
1.30977
1.3097
1.30963
1.30956
1.30954
1.30956
1.30951
1.3095
1.30966
1.30972
1.30962
1.3099
1.31037
1.31014
1.31015
1.31142
1.31168
1.3108
1.31226
1.31438
1.31382
1.31382
1.31663
1.31868
1.34103
1.33954
1.33854
1.33754
1.33655
1.33569
1.33485
1.33399
1.33319
1.33246
1.33171
1.33099
1.33032
1.32967
1.32903
1.32843
1.32785
1.32729
1.32675
1.32624
1.32576
1.32529
1.32485
1.32443
1.32404
1.32366
1.32331
1.32297
1.32265
1.32236
1.32208
1.32182
1.32158
1.32135
1.32114
1.32095
1.32078
1.32062
1.32048
1.32035
1.32023
1.32014
1.32005
1.31998
1.31993
1.31989
1.31986
1.31985
1.31986
1.31988
1.31991
1.31996
1.32002
1.3201
1.3202
1.32031
1.32044
1.32059
1.32075
1.32093
1.32113
1.32135
1.32159
1.32185
1.32214
1.32244
1.32276
1.32311
1.32348
1.32388
1.32431
1.32475
1.32523
1.32573
1.32626
1.32682
1.32741
1.32803
1.32867
1.32934
1.33005
1.33078
1.33154
1.33233
1.33315
1.33399
1.33486
1.33575
1.33667
1.33761
1.33856
1.33953
1.34052
1.34151
1.34252
1.34353
1.34455
1.34557
1.34659
1.3476
1.3486
1.3496
1.35058
1.35154
1.35249
1.35342
1.35432
1.35519
1.35603
1.35684
1.35761
1.35834
1.35904
1.3597
1.36032
1.3609
1.36143
1.36193
1.36239
1.36281
1.3632
1.36354
1.36386
1.36414
1.3644
1.36462
1.36483
1.36501
1.36516
1.3653
1.36543
1.36553
1.36562
1.3657
1.36577
1.36582
1.36587
1.36591
1.36594
1.36597
1.36599
1.36601
1.36602
1.36603
1.36604
1.36604
1.36605
1.36605
1.36605
1.36605
1.36605
1.36605
1.36605
1.36604
1.36604
1.36604
1.36604
1.36604
1.36604
1.36604
1.36604
1.36603
1.36603
1.36604
1.36604
1.36604
1.36604
1.36604
1.36604
1.36605
1.36605
1.36605
1.36605
1.36606
1.36606
1.36606
1.36607
1.36607
1.36607
1.36608
1.36608
1.36609
1.36609
1.36609
1.3661
1.3661
1.36611
1.36611
1.36612
1.36612
1.36612
1.36613
1.36613
1.36614
1.36614
1.36615
1.36616
1.36616
1.36617
1.36618
1.36618
1.36619
1.3662
1.36621
1.36622
1.36623
1.36624
1.36625
1.36626
1.36627
1.36628
1.3663
1.36631
1.36632
1.36634
1.36635
1.36637
1.36638
1.3664
1.36642
1.36643
1.36645
1.36646
1.36648
1.3665
1.36651
1.36653
1.36654
1.36655
1.36656
1.36657
1.36658
1.36658
1.36659
1.36658
1.36658
1.36658
1.36657
1.36655
1.36654
1.36651
1.36649
1.36646
1.36642
1.36638
1.36634
1.36629
1.36623
1.36617
1.3661
1.36603
1.36596
1.36588
1.36579
1.3657
1.36561
1.36551
1.36541
1.3653
1.36519
1.36508
1.36496
1.36484
1.36472
1.36459
1.36446
1.36432
1.36418
1.36403
1.36388
1.36372
1.36355
1.36338
1.36319
1.36299
1.36278
1.36255
1.36231
1.36204
1.36176
1.36145
1.36112
1.36077
1.36038
1.35997
1.35952
1.35904
1.35853
1.35799
1.3574
1.35679
1.35615
1.35547
1.35476
1.35402
1.35326
1.35247
1.35166
1.35083
1.34997
1.34911
1.34823
1.34734
1.34643
1.34553
1.34462
1.3437
1.34278
1.34187
1.34096
1.34005
1.33915
1.33826
1.33738
1.33651
1.33565
1.33481
1.33398
1.33316
1.33237
1.33159
1.33083
1.33008
1.32935
1.32864
1.32795
1.32727
1.32661
1.32597
1.32535
1.32474
1.32414
1.32357
1.32301
1.32246
1.32192
1.32141
1.3209
1.32041
1.31993
1.31947
1.31902
1.31858
1.31815
1.31773
1.31733
1.31694
1.31656
1.31619
1.31583
1.31548
1.31514
1.31482
1.3145
1.31419
1.3139
1.31361
1.31334
1.31307
1.31282
1.31257
1.31234
1.31211
1.3119
1.31169
1.31149
1.31131
1.31113
1.31096
1.31081
1.31066
1.31053
1.3104
1.31029
1.31019
1.3101
1.31002
1.30995
1.30992
1.30989
1.30985
1.30988
1.30995
1.30994
1.31
1.31027
1.31038
1.31034
1.31082
1.31139
1.3112
1.31159
1.31299
1.31327
1.31319
1.31477
1.31632
1.31714
1.31846
1.32005
1.34162
1.33998
1.33883
1.33769
1.33667
1.33571
1.33476
1.33389
1.33308
1.33228
1.33151
1.3308
1.3301
1.32943
1.32879
1.32819
1.3276
1.32704
1.32652
1.32601
1.32553
1.32507
1.32463
1.32422
1.32383
1.32346
1.32311
1.32278
1.32247
1.32218
1.32191
1.32166
1.32142
1.3212
1.321
1.32081
1.32064
1.32049
1.32035
1.32022
1.32011
1.32002
1.31994
1.31987
1.31982
1.31978
1.31975
1.31974
1.31975
1.31976
1.3198
1.31984
1.31991
1.31998
1.32008
1.32019
1.32031
1.32045
1.32061
1.32079
1.32099
1.3212
1.32144
1.32169
1.32196
1.32226
1.32258
1.32292
1.32328
1.32368
1.32409
1.32453
1.325
1.3255
1.32601
1.32657
1.32715
1.32776
1.3284
1.32907
1.32976
1.33049
1.33125
1.33203
1.33285
1.33369
1.33456
1.33545
1.33637
1.33731
1.33827
1.33925
1.34024
1.34124
1.34226
1.34328
1.34431
1.34534
1.34637
1.34739
1.34841
1.34942
1.35042
1.35141
1.35237
1.35331
1.35423
1.35512
1.35598
1.3568
1.3576
1.35835
1.35906
1.35973
1.36036
1.36095
1.3615
1.362
1.36247
1.36289
1.36327
1.36363
1.36394
1.36422
1.36448
1.3647
1.3649
1.36508
1.36523
1.36536
1.36548
1.36559
1.36567
1.36574
1.36581
1.36586
1.36591
1.36594
1.36598
1.366
1.36602
1.36603
1.36605
1.36605
1.36606
1.36606
1.36607
1.36607
1.36607
1.36607
1.36607
1.36606
1.36606
1.36606
1.36606
1.36606
1.36605
1.36605
1.36605
1.36605
1.36605
1.36605
1.36605
1.36605
1.36605
1.36605
1.36606
1.36606
1.36606
1.36606
1.36607
1.36607
1.36607
1.36607
1.36608
1.36608
1.36609
1.36609
1.36609
1.3661
1.3661
1.3661
1.36611