# vtk DataFile Version 2.0
LBE two cylinders
ASCII
DATASET STRUCTURED_POINTS
DIMENSIONS 400 100 1
ASPECT_RATIO 1 1 1
ORIGIN 0 0 0
POINT_DATA 40000
SCALARS rho double 1
LOOKUP_TABLE default
1.33685
1.33395
1.33427
1.33434
1.3334
1.33292
1.33265
1.33201
1.33143
1.33095
1.33039
1.32982
1.32929
1.32875
1.32821
1.32769
1.32718
1.32668
1.32619
1.32572
1.32525
1.3248
1.32437
1.32395
1.32355
1.32317
1.32281
1.32246
1.32214
1.32183
1.32154
1.32128
1.32103
1.32081
1.32061
1.32042
1.32026
1.32012
1.31999
1.31989
1.31981
1.31974
1.31969
1.31966
1.31965
1.31965
1.31967
1.3197
1.31974
1.3198
1.31987
1.31995
1.32004
1.32014
1.32025
1.32038
1.32052
1.32067
1.32083
1.32101
1.32121
1.32141
1.32164
1.32188
1.32215
1.32243
1.32273
1.32306
1.32341
1.32379
1.32419
1.32462
1.32508
1.32557
1.32609
1.32664
1.32723
1.32784
1.3285
1.32918
1.3299
1.33065
1.33143
1.33224
1.33309
1.33396
1.33487
1.3358
1.33675
1.33773
1.33873
1.33975
1.34079
1.34185
1.34291
1.34399
1.34508
1.34617
1.34727
1.34837
1.34948
1.35058
1.35167
1.35276
1.35384
1.35491
1.35596
1.35701
1.35803
1.35904
1.36002
1.36099
1.36194
1.36286
1.36376
1.36464
1.3655
1.36634
1.36715
1.36795
1.36872
1.36947
1.37021
1.37093
1.37162
1.37231
1.37297
1.37362
1.37425
1.37486
1.37546
1.37604
1.3766
1.37715
1.37768
1.37818
1.37867
1.37914
1.37959
1.38001
1.38042
1.3808
1.38116
1.3815
1.38182
1.38212
1.3824
1.38267
1.38291
1.38314
1.38335
1.38355
1.38374
1.38392
1.38409
1.38426
1.38441
1.38457
1.38472
1.38486
1.38501
1.38516
1.3853
1.38545
1.3856
1.38575
1.3859
1.38605
1.3862
1.38635
1.3865
1.38666
1.38681
1.38696
1.38711
1.38725
1.3874
1.38754
1.38767
1.38781
1.38793
1.38806
1.38817
1.38828
1.38839
1.38849
1.38858
1.38866
1.38874
1.38881
1.38887
1.38892
1.38897
1.38901
1.38904
1.38906
1.38908
1.38909
1.3891
1.3891
1.38909
1.38908
1.38906
1.38904
1.38901
1.38898
1.38894
1.3889
1.38886
1.38882
1.38877
1.38871
1.38866
1.3886
1.38853
1.38847
1.38839
1.38832
1.38824
1.38816
1.38808
1.38799
1.3879
1.38781
1.38771
1.38761
1.38751
1.3874
1.38729
1.38718
1.38707
1.38695
1.38683
1.38671
1.38659
1.38646
1.38632
1.38619
1.38604
1.38589
1.38574
1.38557
1.3854
1.38521
1.38502
1.38481
1.38459
1.38436
1.38411
1.38385
1.38357
1.38327
1.38296
1.38263
1.38228
1.38191
1.38153
1.38113
1.38071
1.38027
1.37983
1.37936
1.37889
1.3784
1.3779
1.37739
1.37687
1.37634
1.37579
1.37525
1.37469
1.37412
1.37355
1.37297
1.37237
1.37177
1.37116
1.37053
1.36989
1.36924
1.36858
1.36789
1.36719
1.36648
1.36574
1.36498
1.3642
1.36339
1.36257
1.36172
1.36084
1.35994
1.35902
1.35808
1.35711
1.35612
1.35512
1.3541
1.35306
1.35202
1.35096
1.3499
1.34883
1.34777
1.3467
1.34564
1.34458
1.34354
1.3425
1.34148
1.34048
1.33949
1.33852
1.33757
1.33664
1.33573
1.33484
1.33398
1.33313
1.33231
1.33151
1.33073
1.32997
1.32923
1.32852
1.32782
1.32714
1.32648
1.32584
1.32521
1.3246
1.32401
1.32343
1.32287
1.32232
1.32178
1.32126
1.32075
1.32026
1.31977
1.3193
1.31884
1.31839
1.31795
1.31752
1.3171
1.3167
1.3163
1.31591
1.31552
1.31515
1.31479
1.31444
1.31409
1.31375
1.31343
1.31311
1.3128
1.3125
1.31221
1.31192
1.31165
1.31139
1.31114
1.3109
1.31067
1.31045
1.31024
1.31005
1.30986
1.30969
1.30953
1.30939
1.30925
1.30913
1.30902
1.30893
1.30885
1.30877
1.30871
1.30868
1.30865
1.30861
1.30861
1.30867
1.30866
1.30859
1.30877
1.30897
1.30866
1.30857
1.30953
1.30945
1.30742
1.30841
1.3123
1.30769
1.29896
1.30947
1.31848
1.33487
1.33499
1.3345
1.33384
1.33357
1.33312
1.33257
1.33203
1.33154
1.33098
1.33042
1.32988
1.32934
1.32879
1.32826
1.32774
1.32722
1.32672
1.32623
1.32575
1.32529
1.32484
1.32441
1.32399
1.32359
1.3232
1.32284
1.32249
1.32216
1.32186
1.32157
1.3213
1.32106
1.32083
1.32063
1.32044
1.32028
1.32013
1.32001
1.3199
1.31982
1.31975
1.3197
1.31967
1.31966
1.31966
1.31967
1.3197
1.31975
1.3198
1.31987
1.31995
1.32004
1.32014
1.32026
1.32038
1.32052
1.32067
1.32084
1.32102
1.32121
1.32142
1.32164
1.32189
1.32215
1.32243
1.32274
1.32306
1.32341
1.32379
1.32419
1.32462
1.32508
1.32557
1.32609
1.32664
1.32722
1.32784
1.32849
1.32917
1.32989
1.33063
1.33142
1.33223
1.33307
1.33394
1.33484
1.33577
1.33672
1.3377
1.3387
1.33972
1.34075
1.3418
1.34287
1.34394
1.34503
1.34612
1.34722
1.34831
1.34941
1.35051
1.3516
1.35269
1.35377
1.35483
1.35588
1.35692
1.35795
1.35895
1.35994
1.3609
1.36184
1.36277
1.36367
1.36454
1.3654
1.36623
1.36704
1.36784
1.36861
1.36936
1.37009
1.3708
1.3715
1.37217
1.37283
1.37348
1.3741
1.37471
1.3753
1.37588
1.37644
1.37698
1.3775
1.378
1.37848
1.37894
1.37939
1.37981
1.38021
1.38059
1.38095
1.38128
1.3816
1.3819
1.38218
1.38244
1.38268
1.38291
1.38312
1.38332
1.3835
1.38368
1.38385
1.38401
1.38417
1.38432
1.38447
1.38462
1.38476
1.3849
1.38505
1.38519
1.38534
1.38549
1.38563
1.38578
1.38593
1.38608
1.38623
1.38638
1.38653
1.38668
1.38682
1.38697
1.38711
1.38725
1.38738
1.38751
1.38764
1.38776
1.38787
1.38798
1.38809
1.38818
1.38827
1.38836
1.38843
1.3885
1.38856
1.38861
1.38866
1.3887
1.38873
1.38875
1.38877
1.38878
1.38879
1.38878
1.38878
1.38876
1.38875
1.38872
1.3887
1.38867
1.38863
1.38859
1.38855
1.3885
1.38845
1.3884
1.38835
1.38829
1.38822
1.38816
1.38809
1.38801
1.38794
1.38786
1.38777
1.38769
1.3876
1.3875
1.38741
1.38731
1.38721
1.3871
1.387
1.38689
1.38678
1.38666
1.38654
1.38642
1.3863
1.38617
1.38604
1.3859
1.38576
1.38561
1.38545
1.38529
1.38512
1.38494
1.38474
1.38454
1.38432
1.38409
1.38384
1.38358
1.3833
1.383
1.38269
1.38236
1.38201
1.38165
1.38127
1.38087
1.38045
1.38002
1.37958
1.37912
1.37864
1.37816
1.37766
1.37715
1.37664
1.37611
1.37557
1.37503
1.37448
1.37391
1.37334
1.37276
1.37217
1.37158
1.37097
1.37035
1.36971
1.36907
1.3684
1.36773
1.36703
1.36632
1.36559
1.36483
1.36406
1.36326
1.36244
1.3616
1.36073
1.35984
1.35893
1.35799
1.35703
1.35606
1.35506
1.35405
1.35302
1.35198
1.35094
1.34988
1.34882
1.34776
1.3467
1.34565
1.3446
1.34356
1.34253
1.34152
1.34052
1.33953
1.33857
1.33762
1.33669
1.33578
1.3349
1.33403
1.33319
1.33237
1.33157
1.33079
1.33003
1.3293
1.32858
1.32788
1.3272
1.32654
1.3259
1.32527
1.32466
1.32407
1.32349
1.32292
1.32237
1.32184
1.32131
1.3208
1.32031
1.31982
1.31935
1.31888
1.31843
1.31799
1.31756
1.31714
1.31673
1.31632
1.31593
1.31555
1.31518
1.31481
1.31445
1.31411
1.31377
1.31344
1.31312
1.31281
1.31251
1.31221
1.31193
1.31166
1.31139
1.31114
1.3109
1.31066
1.31044
1.31023
1.31004
1.30985
1.30968
1.30951
1.30936
1.30923
1.3091
1.30899
1.30889
1.3088
1.30872
1.30866
1.3086
1.30857
1.30855
1.30852
1.30849
1.30855
1.30858
1.30848
1.30851
1.30879
1.30865
1.30819
1.30863
1.30932
1.30763
1.30616
1.3088
1.30824
1.29837
1.29287
1.33414
1.33516
1.33442
1.33372
1.33376
1.33323
1.33255
1.33211
1.33162
1.331
1.33046
1.32993
1.32936
1.32881
1.32829
1.32776
1.32724
1.32674
1.32625
1.32576
1.3253
1.32485
1.32441
1.32399
1.32359
1.3232
1.32284
1.32249
1.32216
1.32185
1.32157
1.3213
1.32105
1.32082
1.32062
1.32043
1.32027
1.32012
1.32
1.31989
1.31981
1.31974
1.31969
1.31966
1.31964
1.31964
1.31966
1.31968
1.31973
1.31978
1.31985
1.31993
1.32002
1.32012
1.32024
1.32036
1.3205
1.32065
1.32082
1.321
1.32119
1.3214
1.32162
1.32187
1.32213
1.32241
1.32272
1.32304
1.32339
1.32377
1.32417
1.3246
1.32505
1.32554
1.32606
1.32661
1.32719
1.32781
1.32846
1.32914
1.32985
1.3306
1.33138
1.33219
1.33303
1.3339
1.3348
1.33573
1.33668
1.33765
1.33865
1.33967
1.3407
1.34175
1.34281
1.34389
1.34497
1.34606
1.34715
1.34825
1.34935
1.35044
1.35153
1.35261
1.35369
1.35475
1.3558
1.35683
1.35785
1.35885
1.35983
1.36079
1.36173
1.36265
1.36354
1.36441
1.36526
1.36609
1.36689
1.36767
1.36843
1.36918
1.3699
1.3706
1.37128
1.37195
1.3726
1.37323
1.37385
1.37444
1.37502
1.37559
1.37614
1.37666
1.37717
1.37767
1.37814
1.37859
1.37902
1.37944
1.37983
1.3802
1.38055
1.38088
1.38119
1.38148
1.38175
1.38201
1.38224
1.38247
1.38268
1.38287
1.38305
1.38323
1.38339
1.38355
1.3837
1.38385
1.38399
1.38414
1.38428
1.38442
1.38455
1.3847
1.38484
1.38498
1.38512
1.38526
1.38541
1.38555
1.3857
1.38584
1.38599
1.38613
1.38627
1.38641
1.38655
1.38669
1.38682
1.38694
1.38707
1.38718
1.3873
1.3874
1.3875
1.3876
1.38769
1.38777
1.38784
1.38791
1.38797
1.38802
1.38806
1.3881
1.38813
1.38816
1.38817
1.38818
1.38819
1.38819
1.38818
1.38817
1.38815
1.38813
1.3881
1.38807
1.38803
1.388
1.38795
1.38791
1.38786
1.38781
1.38775
1.3877
1.38763
1.38757
1.3875
1.38743
1.38735
1.38728
1.38719
1.38711
1.38702
1.38693
1.38684
1.38674
1.38664
1.38654
1.38644
1.38633
1.38622
1.38611
1.386
1.38588
1.38576
1.38563
1.38551
1.38537
1.38523
1.38509
1.38494
1.38478
1.38461
1.38443
1.38424
1.38403
1.38382
1.38359
1.38335
1.38309
1.38281
1.38252
1.38221
1.38189
1.38154
1.38118
1.38081
1.38041
1.38001
1.37958
1.37914
1.37869
1.37822
1.37775
1.37726
1.37676
1.37625
1.37573
1.3752
1.37467
1.37412
1.37357
1.37301
1.37244
1.37186
1.37127
1.37067
1.37006
1.36944
1.36881
1.36815
1.36749
1.3668
1.3661
1.36538
1.36464
1.36387
1.36309
1.36228
1.36145
1.36059
1.35971
1.35881
1.35788
1.35694
1.35597
1.35498
1.35398
1.35297
1.35194
1.3509
1.34985
1.3488
1.34775
1.3467
1.34565
1.34461
1.34358
1.34255
1.34154
1.34055
1.33956
1.3386
1.33766
1.33673
1.33582
1.33494
1.33407
1.33323
1.33241
1.33161
1.33083
1.33007
1.32934
1.32862
1.32792
1.32724
1.32658
1.32594
1.32531
1.3247
1.32411
1.32353
1.32296
1.32241
1.32188
1.32135
1.32084
1.32034
1.31985
1.31938
1.31891
1.31846
1.31802
1.31758
1.31716
1.31675
1.31634
1.31595
1.31556
1.31519
1.31482
1.31446
1.31411
1.31377
1.31344
1.31312
1.31281
1.3125
1.31221
1.31192
1.31165
1.31138
1.31113
1.31088
1.31065
1.31043
1.31022
1.31002
1.30983
1.30965
1.30949
1.30934
1.30919
1.30907
1.30895
1.30885
1.30875
1.30867
1.30861
1.30854
1.30848
1.30847
1.30846
1.30838
1.30837
1.3085
1.30845
1.30819
1.30846
1.30887
1.30803
1.30747
1.30934
1.30901
1.30424
1.30622
1.31303
1.30065
1.28846
1.3345
1.33458
1.33448
1.33427
1.33377
1.33315
1.33273
1.33221
1.3316
1.33104
1.33051
1.32993
1.32937
1.32883
1.32828
1.32775
1.32723
1.32672
1.32623
1.32575
1.32528
1.32482
1.32439
1.32397
1.32356
1.32317
1.32281
1.32246
1.32213
1.32182
1.32153
1.32126
1.32102
1.32079
1.32058
1.3204
1.32023
1.32008
1.31996
1.31985
1.31977
1.3197
1.31965
1.31961
1.3196
1.3196
1.31961
1.31964
1.31968
1.31974
1.3198
1.31988
1.31997
1.32007
1.32019
1.32031
1.32045
1.3206
1.32077
1.32095
1.32114
1.32135
1.32157
1.32182
1.32208
1.32236
1.32266
1.32299
1.32334
1.32371
1.32411
1.32454
1.325
1.32548
1.326
1.32655
1.32713
1.32775
1.32839
1.32907
1.32979
1.33053
1.33131
1.33212
1.33296
1.33383
1.33473
1.33566
1.33661
1.33759
1.33858
1.3396
1.34063
1.34168
1.34275
1.34382
1.3449
1.34599
1.34708
1.34818
1.34927
1.35036
1.35145
1.35253
1.3536
1.35466
1.3557
1.35673
1.35774
1.35874
1.35971
1.36066
1.36159
1.3625
1.36339
1.36425
1.36509
1.3659
1.36669
1.36746
1.36821
1.36894
1.36964
1.37033
1.371
1.37165
1.37228
1.3729
1.37349
1.37407
1.37464
1.37518
1.37571
1.37623
1.37672
1.3772
1.37765
1.37809
1.37851
1.37891
1.37929
1.37965
1.37999
1.38031
1.38061
1.38089
1.38115
1.3814
1.38163
1.38184
1.38205
1.38224
1.38241
1.38258
1.38274
1.38289
1.38303
1.38318
1.38331
1.38345
1.38358
1.38371
1.38385
1.38398
1.38411
1.38425
1.38438
1.38452
1.38466
1.3848
1.38493
1.38507
1.38521
1.38535
1.38548
1.38562
1.38575
1.38588
1.386
1.38613
1.38624
1.38636
1.38647
1.38657
1.38667
1.38676
1.38684
1.38692
1.38699
1.38706
1.38711
1.38716
1.38721
1.38724
1.38727
1.3873
1.38731
1.38732
1.38733
1.38732
1.38732
1.38731
1.38729
1.38727
1.38724
1.38721
1.38718
1.38714
1.3871
1.38706
1.38701
1.38696
1.3869
1.38685
1.38679
1.38673
1.38666
1.38659
1.38652
1.38644
1.38637
1.38629
1.3862
1.38612
1.38603
1.38593
1.38584
1.38574
1.38564
1.38554
1.38544
1.38533
1.38522
1.38511
1.38499
1.38488
1.38475
1.38462
1.38449
1.38435
1.3842
1.38405
1.38388
1.38371
1.38353
1.38333
1.38312
1.3829
1.38266
1.38241
1.38214
1.38185
1.38155
1.38123
1.3809
1.38054
1.38017
1.37979
1.37939
1.37897
1.37854
1.3781
1.37765
1.37718
1.3767
1.37622
1.37572
1.37522
1.3747
1.37418
1.37365
1.37311
1.37257
1.37201
1.37145
1.37088
1.37029
1.3697
1.36909
1.36847
1.36783
1.36718
1.36651
1.36582
1.36511
1.36439
1.36364
1.36286
1.36207
1.36125
1.3604
1.35954
1.35865
1.35773
1.3568
1.35584
1.35487
1.35388
1.35287
1.35185
1.35082
1.34979
1.34875
1.3477
1.34666
1.34562
1.34458
1.34356
1.34254
1.34153
1.34054
1.33956
1.3386
1.33765
1.33673
1.33582
1.33494
1.33408
1.33324
1.33242
1.33162
1.33084
1.33008
1.32935
1.32863
1.32793
1.32726
1.3266
1.32595
1.32533
1.32472
1.32413
1.32355
1.32298
1.32243
1.3219
1.32137
1.32086
1.32036
1.31987
1.3194
1.31893
1.31848
1.31803
1.3176
1.31717
1.31676
1.31635
1.31596
1.31557
1.31519
1.31482
1.31446
1.31411
1.31377
1.31344
1.31312
1.3128
1.3125
1.3122
1.31192
1.31164
1.31137
1.31112
1.31087
1.31064
1.31041
1.3102
1.31
1.30981
1.30963
1.30947
1.30931
1.30917
1.30904
1.30892
1.30882
1.30873
1.30863
1.30856
1.30852
1.30846
1.30839
1.30838
1.30843
1.30834
1.30824
1.30845
1.30855
1.30808
1.30813
1.30903
1.30844
1.30677
1.30842
1.31007
1.30533
1.30326
1.30858
1.30915
1.3352
1.33491
1.33481
1.33449
1.33379
1.33329
1.33289
1.33222
1.33162
1.3311
1.33051
1.32991
1.32936
1.32881
1.32825
1.32771
1.32719
1.32668
1.32618
1.32569
1.32522
1.32477
1.32433
1.32391
1.3235
1.32311
1.32275
1.3224
1.32207
1.32176
1.32147
1.3212
1.32095
1.32073
1.32052
1.32033
1.32017
1.32002
1.31989
1.31979
1.3197
1.31963
1.31958
1.31954
1.31953
1.31953
1.31954
1.31957
1.31961
1.31966
1.31973
1.31981
1.3199
1.32
1.32011
1.32024
1.32038
1.32053
1.32069
1.32087
1.32106
1.32127
1.32149
1.32173
1.322
1.32228
1.32258
1.3229
1.32325
1.32362
1.32402
1.32445
1.32491
1.32539
1.32591
1.32646
1.32704
1.32765
1.3283
1.32898
1.32969
1.33044
1.33121
1.33203
1.33287
1.33374
1.33464
1.33556
1.33652
1.33749
1.33849
1.33951
1.34054
1.34159
1.34266
1.34373
1.34481
1.3459
1.34699
1.34808
1.34917
1.35026
1.35135
1.35242
1.35349
1.35455
1.35559
1.35661
1.35762
1.3586
1.35957
1.36051
1.36143
1.36233
1.3632
1.36405
1.36488
1.36568
1.36645
1.36721
1.36794
1.36864
1.36933
1.37
1.37065
1.37128
1.37189
1.37248
1.37306
1.37362
1.37416
1.37468
1.37519
1.37568
1.37616
1.37661
1.37705
1.37747
1.37787
1.37825
1.37862
1.37896
1.37928
1.37959
1.37988
1.38015
1.3804
1.38064
1.38086
1.38107
1.38126
1.38144
1.38161
1.38177
1.38192
1.38206
1.3822
1.38233
1.38246
1.38259
1.38271
1.38283
1.38296
1.38308
1.38321
1.38333
1.38346
1.38359
1.38371
1.38384
1.38397
1.3841
1.38423
1.38436
1.38449
1.38462
1.38474
1.38486
1.38498
1.3851
1.38521
1.38532
1.38542
1.38552
1.38561
1.3857
1.38578
1.38585
1.38592
1.38598
1.38604
1.38609
1.38613
1.38616
1.38619
1.38621
1.38623
1.38624
1.38624
1.38624
1.38623
1.38622
1.3862
1.38618
1.38616
1.38613
1.3861
1.38606
1.38602
1.38598
1.38594
1.38589
1.38584
1.38578
1.38573
1.38567
1.3856
1.38554
1.38547
1.3854
1.38532
1.38525
1.38517
1.38509
1.385
1.38492
1.38483
1.38474
1.38465
1.38455
1.38445
1.38436
1.38425
1.38415
1.38404
1.38393
1.38381
1.38369
1.38356
1.38343
1.38329
1.38314
1.38299
1.38282
1.38264
1.38245
1.38225
1.38204
1.38181
1.38156
1.3813
1.38102
1.38073
1.38042
1.38009
1.37975
1.37939
1.37902
1.37863
1.37823
1.37781
1.37738
1.37694
1.37649
1.37603
1.37556
1.37508
1.37459
1.37409
1.37359
1.37308
1.37256
1.37203
1.37149
1.37095
1.37039
1.36983
1.36925
1.36866
1.36806
1.36744
1.36681
1.36615
1.36548
1.36479
1.36408
1.36334
1.36258
1.3618
1.36099
1.36016
1.35931
1.35843
1.35753
1.3566
1.35566
1.3547
1.35371
1.35272
1.35171
1.35069
1.34966
1.34863
1.3476
1.34656
1.34553
1.3445
1.34347
1.34246
1.34146
1.34047
1.3395
1.33854
1.3376
1.33668
1.33577
1.33489
1.33403
1.33319
1.33237
1.33158
1.3308
1.33004
1.32931
1.3286
1.3279
1.32723
1.32657
1.32593
1.32531
1.3247
1.32411
1.32354
1.32298
1.32243
1.3219
1.32137
1.32086
1.32037
1.31988
1.3194
1.31894
1.31848
1.31804
1.3176
1.31718
1.31676
1.31636
1.31596
1.31557
1.31519
1.31483
1.31447
1.31411
1.31377
1.31344
1.31312
1.3128
1.3125
1.3122
1.31192
1.31164
1.31138
1.31112
1.31088
1.31064
1.31042
1.31021
1.31
1.30981
1.30964
1.30947
1.30932
1.30918
1.30905
1.30893
1.30882
1.30873
1.30866
1.30858
1.30852
1.3085
1.30846
1.30838
1.30842
1.3085
1.30837
1.30831
1.30867
1.30867
1.30807
1.30857
1.30959
1.30807
1.30714
1.31052
1.30981
1.30485
1.30813
1.31059
1.33599
1.33563
1.33514
1.33454
1.33406
1.33354
1.33288
1.33224
1.3317
1.33108
1.33046
1.32989
1.32932
1.32873
1.32818
1.32764
1.32711
1.32659
1.32609
1.3256
1.32513
1.32468
1.32424
1.32381
1.32341
1.32302
1.32265
1.3223
1.32197
1.32167
1.32138
1.32111
1.32086
1.32063
1.32043
1.32024
1.32008
1.31993
1.31981
1.3197
1.31961
1.31954
1.31949
1.31945
1.31944
1.31943
1.31944
1.31947
1.31951
1.31956
1.31963
1.31971
1.3198
1.3199
1.32001
1.32013
1.32027
1.32042
1.32058
1.32076
1.32095
1.32116
1.32138
1.32162
1.32188
1.32216
1.32246
1.32279
1.32313
1.3235
1.3239
1.32433
1.32478
1.32527
1.32578
1.32633
1.32691
1.32752
1.32817
1.32885
1.32956
1.33031
1.33109
1.3319
1.33274
1.33361
1.33451
1.33544
1.3364
1.33737
1.33837
1.33939
1.34043
1.34148
1.34254
1.34361
1.3447
1.34578
1.34688
1.34797
1.34906
1.35014
1.35123
1.3523
1.35336
1.35441
1.35545
1.35647
1.35747
1.35845
1.35941
1.36034
1.36125
1.36214
1.363
1.36383
1.36464
1.36542
1.36618
1.36691
1.36762
1.36831
1.36898
1.36962
1.37025
1.37085
1.37144
1.37201
1.37256
1.37309
1.37361
1.37411
1.37459
1.37506
1.37551
1.37594
1.37636
1.37675
1.37713
1.3775
1.37784
1.37817
1.37847
1.37876
1.37904
1.37929
1.37953
1.37976
1.37997
1.38016
1.38035
1.38052
1.38068
1.38083
1.38097
1.3811
1.38123
1.38135
1.38147
1.38159
1.3817
1.38181
1.38192
1.38204
1.38215
1.38227
1.38238
1.3825
1.38262
1.38274
1.38286
1.38298
1.3831
1.38322
1.38333
1.38345
1.38357
1.38368
1.38379
1.3839
1.38401
1.38411
1.3842
1.3843
1.38438
1.38446
1.38454
1.38461
1.38467
1.38473
1.38478
1.38483
1.38487
1.3849
1.38493
1.38495
1.38496
1.38497
1.38497
1.38497
1.38497
1.38496
1.38494
1.38492
1.38489
1.38487
1.38484
1.3848
1.38477
1.38473
1.38468
1.38464
1.38459
1.38454
1.38448
1.38443
1.38437
1.38431
1.38425
1.38418
1.38411
1.38404
1.38397
1.38389
1.38382
1.38374
1.38366
1.38357
1.38349
1.3834
1.38331
1.38322
1.38313
1.38303
1.38293
1.38283
1.38272
1.38261
1.38249
1.38237
1.38224
1.3821
1.38195
1.38179
1.38162
1.38144
1.38125
1.38105
1.38082
1.38059
1.38034
1.38007
1.37979
1.37949
1.37917
1.37884
1.37849
1.37813
1.37776
1.37737
1.37697
1.37656
1.37613
1.3757
1.37526
1.37481
1.37435
1.37388
1.3734
1.37292
1.37243
1.37193
1.37142
1.37091
1.37038
1.36985
1.36931
1.36875
1.36818
1.3676
1.367
1.36638
1.36575
1.36509
1.36442
1.36372
1.363
1.36225
1.36148
1.36069
1.35987
1.35903
1.35816
1.35727
1.35635
1.35542
1.35446
1.35349
1.3525
1.3515
1.35049
1.34947
1.34845
1.34742
1.34639
1.34537
1.34434
1.34333
1.34232
1.34132
1.34034
1.33936
1.33841
1.33747
1.33655
1.33565
1.33477
1.33391
1.33308
1.33226
1.33147
1.3307
1.32995
1.32922
1.32851
1.32782
1.32715
1.3265
1.32587
1.32525
1.32465
1.32406
1.32349
1.32294
1.3224
1.32187
1.32135
1.32085
1.32035
1.31987
1.3194
1.31893
1.31848
1.31804
1.31761
1.31718
1.31677
1.31636
1.31597
1.31558
1.3152
1.31483
1.31447
1.31412
1.31378
1.31345
1.31313
1.31282
1.31251
1.31222
1.31194
1.31166
1.3114
1.31114
1.3109
1.31067
1.31045
1.31023
1.31004
1.30985
1.30967
1.30951
1.30936
1.30922
1.3091
1.30899
1.30889
1.30879
1.30873
1.30868
1.30861
1.30856
1.30859
1.30859
1.3085
1.30857
1.30878
1.30864
1.30849
1.3091
1.30934
1.30841
1.3089
1.31073
1.30935
1.30766
1.31093
1.3127
1.30965
1.30925
1.33694
1.33621
1.33554
1.33486
1.33431
1.33363
1.3329
1.33232
1.3317
1.33102
1.33042
1.32983
1.32922
1.32864
1.32809
1.32753
1.32699
1.32647
1.32597
1.32548
1.32501
1.32455
1.32411
1.32369
1.32328
1.3229
1.32253
1.32218
1.32185
1.32155
1.32126
1.32099
1.32075
1.32052
1.32032
1.32013
1.31997
1.31982
1.3197
1.31959
1.3195
1.31943
1.31938
1.31934
1.31932
1.31932
1.31933
1.31936
1.31939
1.31945
1.31951
1.31958
1.31967
1.31977
1.31988
1.32
1.32014
1.32029
1.32045
1.32062
1.32081
1.32102
1.32124
1.32148
1.32174
1.32202
1.32232
1.32264
1.32298
1.32335
1.32375
1.32417
1.32463
1.32511
1.32562
1.32617
1.32675
1.32736
1.32801
1.32868
1.32939
1.33014
1.33092
1.33173
1.33258
1.33345
1.33435
1.33528
1.33624
1.33721
1.33822
1.33924
1.34027
1.34133
1.34239
1.34347
1.34455
1.34564
1.34673
1.34782
1.34891
1.35
1.35108
1.35215
1.35321
1.35425
1.35529
1.3563
1.3573
1.35827
1.35922
1.36014
1.36104
1.36192
1.36277
1.36358
1.36438
1.36514
1.36588
1.36659
1.36728
1.36795
1.36859
1.36921
1.36981
1.37039
1.37095
1.37148
1.37201
1.37252
1.373
1.37348
1.37394
1.37437
1.3748
1.37521
1.3756
1.37597
1.37633
1.37667
1.37699
1.3773
1.37759
1.37786
1.37812
1.37836
1.37858
1.3788
1.37899
1.37918
1.37935
1.37951
1.37965
1.37979
1.37992
1.38005
1.38016
1.38027
1.38038
1.38049
1.38059
1.38069
1.38079
1.38089
1.38099
1.3811
1.3812
1.3813
1.38141
1.38152
1.38162
1.38173
1.38184
1.38195
1.38206
1.38217
1.38227
1.38238
1.38248
1.38258
1.38268
1.38277
1.38286
1.38294
1.38302
1.3831
1.38317
1.38324
1.3833
1.38335
1.3834
1.38344
1.38348
1.38351
1.38353
1.38355
1.38356
1.38357
1.38358
1.38357
1.38357
1.38356
1.38354
1.38352
1.3835
1.38347
1.38344
1.38341
1.38338
1.38334
1.3833
1.38326
1.38321
1.38317
1.38311
1.38306
1.38301
1.38295
1.3829
1.38284
1.38277
1.38271
1.38264
1.38258
1.38251
1.38244
1.38236
1.38229
1.38221
1.38213
1.38205
1.38197
1.38189
1.3818
1.38171
1.38162
1.38152
1.38142
1.38131
1.3812
1.38108
1.38095
1.38081
1.38067
1.38051
1.38034
1.38016
1.37996
1.37975
1.37952
1.37928
1.37903
1.37876
1.37847
1.37817
1.37785
1.37752
1.37717
1.37681
1.37644
1.37606
1.37566
1.37526
1.37484
1.37442
1.37399
1.37355
1.37311
1.37266
1.37219
1.37173
1.37125
1.37077
1.37028
1.36978
1.36927
1.36874
1.36821
1.36766
1.3671
1.36652
1.36592
1.3653
1.36466
1.364
1.36332
1.36261
1.36188
1.36112
1.36034
1.35953
1.35869
1.35784
1.35695
1.35605
1.35512
1.35417
1.35321
1.35223
1.35124
1.35023
1.34922
1.3482
1.34718
1.34616
1.34514
1.34412
1.34311
1.34211
1.34111
1.34013
1.33916
1.33821
1.33728
1.33636
1.33547
1.33459
1.33373
1.3329
1.33209
1.3313
1.33053
1.32979
1.32906
1.32836
1.32768
1.32702
1.32637
1.32575
1.32514
1.32455
1.32397
1.32341
1.32286
1.32233
1.32181
1.3213
1.3208
1.32032
1.31984
1.31937
1.31892
1.31847
1.31803
1.31761
1.31718
1.31677
1.31637
1.31598
1.3156
1.31522
1.31485
1.3145
1.31415
1.31381
1.31348
1.31317
1.31286
1.31256
1.31226
1.31198
1.31171
1.31145
1.3112
1.31096
1.31073
1.31051
1.31031
1.31011
1.30993
1.30976
1.3096
1.30946
1.30933
1.30921
1.3091
1.30902
1.30894
1.30887
1.30883
1.30882
1.30877
1.30876
1.30884
1.30888
1.30881
1.30898
1.30928
1.30911
1.30911
1.30997
1.31008
1.30927
1.3105
1.31199
1.31059
1.31078
1.31328
1.31349
1.31407
1.33787
1.33672
1.33598
1.33524
1.33444
1.33368
1.33302
1.33234
1.33161
1.33097
1.33035
1.32971
1.32909
1.32852
1.32794
1.32738
1.32684
1.32632
1.32581
1.32532
1.32485
1.32439
1.32395
1.32353
1.32313
1.32274
1.32238
1.32204
1.32171
1.32141
1.32112
1.32086
1.32062
1.32039
1.32019
1.32
1.31984
1.3197
1.31957
1.31946
1.31938
1.31931
1.31925
1.31922
1.3192
1.31919
1.3192
1.31922
1.31926
1.31931
1.31937
1.31944
1.31953
1.31962
1.31973
1.31985
1.31999
1.32013
1.32029
1.32046
1.32065
1.32085
1.32107
1.32131
1.32157
1.32184
1.32214
1.32246
1.3228
1.32317
1.32356
1.32399
1.32444
1.32492
1.32543
1.32597
1.32655
1.32716
1.3278
1.32848
1.32919
1.32994
1.33072
1.33153
1.33237
1.33325
1.33415
1.33508
1.33604
1.33702
1.33802
1.33904
1.34009
1.34114
1.3422
1.34328
1.34437
1.34545
1.34655
1.34764
1.34873
1.34981
1.35089
1.35196
1.35302
1.35407
1.3551
1.35611
1.3571
1.35807
1.35901
1.35993
1.36082
1.36168
1.36252
1.36332
1.3641
1.36484
1.36556
1.36626
1.36692
1.36756
1.36818
1.36877
1.36934
1.36989
1.37043
1.37094
1.37143
1.37191
1.37237
1.37281
1.37324
1.37366
1.37405
1.37443
1.3748
1.37515
1.37548
1.3758
1.3761
1.37639
1.37666
1.37691
1.37715
1.37737
1.37759
1.37778
1.37796
1.37814
1.37829
1.37844
1.37858
1.3787
1.37882
1.37893
1.37904
1.37914
1.37923
1.37932
1.37941
1.3795
1.37959
1.37968
1.37977
1.37986
1.37995
1.38004
1.38013
1.38023
1.38032
1.38042
1.38052
1.38061
1.38071
1.38081
1.3809
1.381
1.38109
1.38118
1.38127
1.38135
1.38143
1.38151
1.38158
1.38165
1.38172
1.38178
1.38183
1.38188
1.38193
1.38197
1.382
1.38203
1.38205
1.38207
1.38208
1.38209
1.38209
1.38209
1.38208
1.38207
1.38205
1.38204
1.38201
1.38199
1.38196
1.38193
1.3819
1.38187
1.38183
1.38179
1.38175
1.38171
1.38166
1.38161
1.38156
1.38151
1.38146
1.38141
1.38135
1.3813
1.38124
1.38118
1.38112
1.38106
1.38099
1.38093
1.38086
1.38079
1.38072
1.38065
1.38058
1.3805
1.38043
1.38034
1.38026
1.38017
1.38007
1.37997
1.37986
1.37975
1.37962
1.37948
1.37934
1.37918
1.37901
1.37882
1.37862
1.37841
1.37818
1.37794
1.37768
1.3774
1.37711
1.37681
1.37649
1.37617
1.37582
1.37547
1.37511
1.37473
1.37435
1.37396
1.37356
1.37315
1.37273
1.37231
1.37188
1.37144
1.371
1.37055
1.37009
1.36962
1.36915
1.36866
1.36816
1.36765
1.36712
1.36657
1.36602
1.36544
1.36483
1.36421
1.36357
1.3629
1.3622
1.36148
1.36073
1.35995
1.35915
1.35832
1.35747
1.35659
1.35569
1.35477
1.35383
1.35287
1.3519
1.35091
1.34991
1.34891
1.3479
1.34688
1.34587
1.34485
1.34384
1.34283
1.34183
1.34084
1.33987
1.3389
1.33795
1.33702
1.33611
1.33521
1.33434
1.33349
1.33266
1.33185
1.33107
1.3303
1.32957
1.32885
1.32815
1.32748
1.32683
1.32619
1.32558
1.32498
1.3244
1.32383
1.32329
1.32275
1.32223
1.32172
1.32122
1.32073
1.32026
1.31979
1.31933
1.31888
1.31845
1.31802
1.3176
1.31718
1.31678
1.31638
1.316
1.31562
1.31525
1.31489
1.31454
1.3142
1.31386
1.31354
1.31323
1.31292
1.31263
1.31234
1.31207
1.3118
1.31154
1.3113
1.31106
1.31084
1.31063
1.31043
1.31024
1.31006
1.3099
1.30975
1.30961
1.30949
1.30939
1.30929
1.30921
1.30916
1.30911
1.30906
1.30907
1.30911
1.30909
1.30911
1.3093
1.30939
1.30932
1.30963
1.31013
1.30992
1.30996
1.31124
1.31151
1.31064
1.31209
1.31419
1.3136
1.31356
1.31631
1.31828
1.33862
1.33725
1.33636
1.33546
1.33456
1.33378
1.33304
1.33226
1.33154
1.33089
1.33021
1.32955
1.32895
1.32835
1.32775
1.3272
1.32666
1.32613
1.32562
1.32513
1.32466
1.3242
1.32377
1.32335
1.32295
1.32257
1.32221
1.32187
1.32155
1.32125
1.32097
1.32071
1.32047
1.32025
1.32005
1.31987
1.31971
1.31956
1.31944
1.31933
1.31924
1.31917
1.31912
1.31908
1.31906
1.31905
1.31906
1.31908
1.31911
1.31916
1.31922
1.31929
1.31937
1.31946
1.31957
1.31968
1.31981
1.31996
1.32011
1.32028
1.32047
1.32066
1.32088
1.32111
1.32137
1.32164
1.32193
1.32225
1.32259
1.32295
1.32335
1.32376
1.32421
1.32469
1.3252
1.32574
1.32632
1.32692
1.32756
1.32824
1.32895
1.32969
1.33047
1.33128
1.33213
1.333
1.33391
1.33484
1.3358
1.33678
1.33778
1.33881
1.33985
1.34091
1.34197
1.34305
1.34414
1.34523
1.34632
1.34742
1.34851
1.34959
1.35068
1.35174
1.3528
1.35385
1.35488
1.35589
1.35688
1.35784
1.35878
1.35969
1.36058
1.36143
1.36225
1.36304
1.3638
1.36454
1.36524
1.36591
1.36655
1.36717
1.36776
1.36833
1.36888
1.36939
1.3699
1.37038
1.37085
1.37129
1.37173
1.37214
1.37254
1.37292
1.3733
1.37365
1.37398
1.37431
1.37462
1.37491
1.37519
1.37546
1.37571
1.37594
1.37616
1.37637
1.37657
1.37675
1.37692
1.37707
1.37722
1.37735
1.37748
1.37759
1.3777
1.3778
1.37789
1.37798
1.37806
1.37814
1.37822
1.37829
1.37836
1.37844
1.37851
1.37859
1.37867
1.37874
1.37882
1.37891
1.37899
1.37907
1.37915
1.37924
1.37932
1.37941
1.37949
1.37958
1.37966
1.37974
1.37982
1.37989
1.37996
1.38003
1.3801
1.38016
1.38022
1.38027
1.38032
1.38037
1.38041
1.38045
1.38048
1.3805
1.38052
1.38054
1.38055
1.38055
1.38056
1.38055
1.38055
1.38054
1.38052
1.38051
1.38049
1.38046
1.38044
1.38041
1.38038
1.38035
1.38031
1.38028
1.38024
1.3802
1.38016
1.38012
1.38008
1.38003
1.37999
1.37994
1.37989
1.37984
1.37979
1.37974
1.37969
1.37964
1.37958
1.37953
1.37947
1.37942
1.37936
1.3793
1.37924
1.37917
1.37911
1.37904
1.37896
1.37889
1.3788
1.37871
1.37862
1.37851
1.3784
1.37827
1.37814
1.37799
1.37783
1.37766
1.37747
1.37727
1.37705
1.37682
1.37658
1.37632
1.37604
1.37576
1.37546
1.37514
1.37482
1.37448
1.37414
1.37378
1.37342
1.37305
1.37268
1.37229
1.3719
1.3715
1.3711
1.37069
1.37027
1.36984
1.36941
1.36897
1.36851
1.36805
1.36757
1.36708
1.36657
1.36605
1.36551
1.36494
1.36436
1.36375
1.36312
1.36245
1.36177
1.36105
1.36031
1.35954
1.35874
1.35792
1.35707
1.35619
1.3553
1.35438
1.35344
1.35248
1.35152
1.35053
1.34954
1.34854
1.34754
1.34652
1.34551
1.3445
1.3435
1.34249
1.3415
1.34051
1.33954
1.33858
1.33763
1.3367
1.33579
1.3349
1.33403
1.33318
1.33236
1.33155
1.33078
1.33002
1.32929
1.32858
1.32789
1.32723
1.32659
1.32596
1.32536
1.32477
1.32421
1.32365
1.32311
1.32259
1.32208
1.32159
1.3211
1.32063
1.32017
1.31971
1.31927
1.31883
1.31841
1.31799
1.31758
1.31718
1.31678
1.3164
1.31602
1.31565
1.31529
1.31494
1.3146
1.31426
1.31394
1.31362
1.31332
1.31302
1.31273
1.31245
1.31218
1.31193
1.31168
1.31144
1.31121
1.31099
1.31079
1.3106
1.31042
1.31025
1.3101
1.30996
1.30983
1.30972
1.30963
1.30955
1.30949
1.30944
1.30943
1.30942
1.30941
1.30947
1.30957
1.30959
1.30968
1.30997
1.31012
1.31011
1.31062
1.31122
1.31105
1.31145
1.31285
1.31314
1.31306
1.31461
1.31613
1.31692
1.31818
1.3197
1.33914
1.33764
1.33661
1.33557
1.33466
1.3338
1.33294
1.33216
1.33144
1.33072
1.33001
1.32937
1.32874
1.32812
1.32754
1.32698
1.32643
1.32591
1.3254
1.32492
1.32445
1.324
1.32357
1.32315
1.32276
1.32239
1.32203
1.32169
1.32138
1.32108
1.32081
1.32055
1.32032
1.3201
1.3199
1.31972
1.31956
1.31942
1.3193
1.31919
1.31911
1.31903
1.31898
1.31894
1.31892
1.31891
1.31891
1.31893
1.31896
1.319
1.31905
1.31912
1.3192
1.31929
1.31939
1.3195
1.31962
1.31976
1.31991
1.32008
1.32026
1.32045
1.32067
1.32089
1.32114
1.32141
1.3217
1.32201
1.32235
1.32271
1.3231
1.32351
1.32396
1.32443
1.32493
1.32547
1.32605
1.32664
1.32728
1.32796
1.32866
1.32941
1.33019
1.33099
1.33184
1.33271
1.33362
1.33455
1.33551
1.33649
1.3375
1.33853
1.33957
1.34063
1.3417
1.34278
1.34386
1.34496
1.34605
1.34715
1.34824
1.34933
1.35041
1.35149
1.35255
1.35359
1.35463
1.35564
1.35662
1.35759
1.35853
1.35943
1.36031
1.36116
1.36198
1.36276
1.3635
1.36422
1.36491
1.36556
1.36618
1.36678
1.36734
1.36788
1.3684
1.3689
1.36937
1.36983
1.37027
1.37068
1.37108
1.37147
1.37184
1.3722
1.37254
1.37287
1.37318
1.37348
1.37376
1.37403
1.37429
1.37453
1.37476
1.37498
1.37518
1.37537
1.37555
1.37572
1.37587
1.37602
1.37615
1.37627
1.37638
1.37648
1.37658
1.37666
1.37674
1.37682
1.37689
1.37695
1.37702
1.37708
1.37714
1.3772
1.37726
1.37732
1.37739
1.37745
1.37752
1.37758
1.37765
1.37772
1.37779
1.37786
1.37793
1.37801
1.37808
1.37815
1.37822
1.37829