# vtk DataFile Version 2.0
LBE two cylinders
ASCII
DATASET STRUCTURED_POINTS
DIMENSIONS 400 100 1
ASPECT_RATIO 1 1 1
ORIGIN 0 0 0
POINT_DATA 40000
SCALARS rho double 1
LOOKUP_TABLE default
1.19968
1.18108
1.18051
1.1807
1.17608
1.17451
1.17415
1.17247
1.17093
1.17018
1.16967
1.16972
1.1706
1.17175
1.17255
1.17238
1.1704
1.16589
1.15889
1.15041
1.14193
1.1347
1.1293
1.12568
1.12341
1.12202
1.12114
1.12052
1.12004
1.11962
1.11924
1.11888
1.11853
1.1182
1.11788
1.11759
1.11731
1.11705
1.11681
1.1166
1.11641
1.11624
1.1161
1.11598
1.11588
1.11581
1.11575
1.11571
1.11567
1.11565
1.11564
1.11563
1.11563
1.11563
1.11564
1.11565
1.11567
1.1157
1.11574
1.11579
1.11586
1.11595
1.11607
1.11623
1.11643
1.1167
1.11705
1.1175
1.11806
1.11877
1.11962
1.12065
1.12185
1.12324
1.12478
1.12648
1.12828
1.13017
1.13208
1.13397
1.13578
1.13747
1.139
1.14035
1.1415
1.14246
1.14323
1.14384
1.14432
1.14469
1.14499
1.14523
1.14544
1.14563
1.14579
1.14594
1.14607
1.14616
1.14623
1.14626
1.14625
1.14621
1.14614
1.14605
1.14595
1.14583
1.14572
1.14559
1.14545
1.14529
1.14507
1.14478
1.14438
1.14385
1.14315
1.14226
1.14117
1.13986
1.13835
1.13665
1.13481
1.13287
1.13087
1.12889
1.12696
1.12514
1.12346
1.12194
1.12061
1.11945
1.11847
1.11766
1.11699
1.11645
1.11601
1.11567
1.11539
1.11517
1.11499
1.11485
1.11473
1.11464
1.11457
1.11451
1.11447
1.11444
1.11442
1.11442
1.11442
1.11444
1.11447
1.11451
1.11456
1.11462
1.1147
1.11479
1.1149
1.11502
1.11516
1.11532
1.11549
1.11568
1.11588
1.1161
1.11633
1.11657
1.11684
1.11714
1.11753
1.11812
1.11913
1.12108
1.12499
1.13267
1.14679
1.16973
1.20077
1.2338
1.26049
1.27658
1.28313
1.28345
1.28117
1.27921
1.27878
1.27965
1.28108
1.28238
1.28318
1.28355
1.28363
1.28352
1.28336
1.28329
1.28334
1.2835
1.28376
1.28405
1.28432
1.28456
1.2848
1.28506
1.2854
1.28586
1.28645
1.2872
1.28815
1.28938
1.29099
1.29313
1.29587
1.29922
1.30288
1.30625
1.30866
1.30955
1.30847
1.30482
1.29705
1.28253
1.2592
1.22789
1.19365
1.1637
1.14259
1.13014
1.12364
1.12045
1.11889
1.11806
1.11756
1.11718
1.11687
1.11658
1.1163
1.11604
1.11579
1.11555
1.11532
1.1151
1.1149
1.11472
1.11455
1.11439
1.11425
1.11413
1.11402
1.11392
1.11383
1.11375
1.11368
1.11363
1.11358
1.11354
1.11352
1.11351
1.11351
1.11353
1.11357
1.11363
1.1137
1.11381
1.11395
1.11412
1.11435
1.11465
1.11502
1.1155
1.11609
1.11682
1.11771
1.11877
1.12
1.12141
1.12298
1.1247
1.12653
1.12844
1.13037
1.13227
1.13409
1.13579
1.13732
1.13867
1.13981
1.14076
1.14151
1.14209
1.14253
1.14284
1.14306
1.14321
1.14332
1.14339
1.14345
1.14351
1.14356
1.14361
1.14367
1.14372
1.14376
1.1438
1.14382
1.14383
1.14383
1.14382
1.14379
1.14373
1.14365
1.14351
1.14332
1.14304
1.14264
1.1421
1.14139
1.14048
1.13937
1.13804
1.13651
1.1348
1.13293
1.13097
1.12895
1.12694
1.12499
1.12314
1.12142
1.11987
1.1185
1.11731
1.1163
1.11545
1.11475
1.11417
1.1137
1.11332
1.11302
1.11277
1.11256
1.1124
1.11226
1.11215
1.11207
1.112
1.11196
1.11194
1.11193
1.11195
1.11198
1.11202
1.11209
1.11216
1.11225
1.11235
1.11246
1.11259
1.11272
1.11287
1.11302
1.11318
1.11336
1.11353
1.11372
1.11391
1.1141
1.11429
1.11449
1.1147
1.11491
1.11514
1.1154
1.11573
1.11618
1.11689
1.11803
1.11987
1.1227
1.12673
1.13184
1.13756
1.14308
1.14768
1.15102
1.15331
1.15499
1.15633
1.15747
1.1586
1.15946
1.15966
1.1598
1.16056
1.16045
1.15913
1.16024
1.16315
1.15967
1.15461
1.16407
1.17121
1.18964
1.18632
1.18163
1.17817
1.17649
1.17524
1.17351
1.17223
1.1712
1.1702
1.16974
1.17007
1.17081
1.1714
1.1714
1.1705
1.16836
1.16452
1.15872
1.15135
1.14345
1.13626
1.13055
1.12651
1.1239
1.12227
1.12126
1.12057
1.12006
1.11963
1.11925
1.11889
1.11854
1.11821
1.1179
1.11761
1.11733
1.11707
1.11684
1.11662
1.11643
1.11626
1.11612
1.11599
1.11589
1.11581
1.11574
1.11569
1.11566
1.11563
1.11561
1.1156
1.1156
1.1156
1.11561
1.11562
1.11565
1.11568
1.11572
1.11578
1.11586
1.11596
1.1161
1.11628
1.11652
1.11683
1.11723
1.11774
1.11836
1.11913
1.12004
1.1211
1.12231
1.12367
1.12514
1.12672
1.12836
1.13004
1.13171
1.13333
1.13489
1.13633
1.13766
1.13886
1.13993
1.14086
1.14168
1.14239
1.143
1.14355
1.14402
1.14445
1.14483
1.14517
1.14547
1.14573
1.14595
1.14611
1.14622
1.14628
1.14628
1.14622
1.14612
1.14597
1.14577
1.14554
1.14527
1.14497
1.14463
1.14425
1.14381
1.14331
1.14274
1.14208
1.14131
1.14043
1.13942
1.13827
1.13699
1.13558
1.13406
1.13243
1.13075
1.12903
1.12732
1.12565
1.12407
1.12259
1.12125
1.12005
1.11901
1.11811
1.11736
1.11674
1.11624
1.11583
1.11551
1.11525
1.11505
1.11488
1.11476
1.11466
1.11458
1.11452
1.11447
1.11444
1.11443
1.11442
1.11443
1.11444
1.11447
1.11451
1.11456
1.11463
1.11471
1.1148
1.11491
1.11503
1.11517
1.11533
1.1155
1.11568
1.11588
1.1161
1.11633
1.11657
1.11684
1.11715
1.11755
1.11817
1.11927
1.12142
1.12577
1.13431
1.14984
1.17432
1.20556
1.23594
1.25815
1.27108
1.27776
1.28076
1.28142
1.28072
1.2798
1.27963
1.28046
1.28172
1.28273
1.28326
1.28336
1.28325
1.28314
1.28315
1.28327
1.28346
1.28366
1.28387
1.2841
1.28437
1.28471
1.28509
1.28545
1.2858
1.28622
1.2869
1.28801
1.28961
1.29152
1.29352
1.29552
1.29786
1.30096
1.30478
1.30826
1.30952
1.30688
1.29989
1.28918
1.27498
1.256
1.23076
1.20075
1.17133
1.14822
1.13341
1.12527
1.12118
1.1192
1.11818
1.1176
1.11719
1.11687
1.11657
1.1163
1.11604
1.11578
1.11555
1.11532
1.1151
1.11491
1.11472
1.11455
1.1144
1.11426
1.11413
1.11402
1.11392
1.11383
1.11375
1.11368
1.11362
1.11358
1.11354
1.11352
1.11351
1.11351
1.11353
1.11357
1.11363
1.11372
1.11383
1.11399
1.11419
1.11445
1.11478
1.11521
1.11574
1.1164
1.11719
1.11813
1.11921
1.12045
1.12184
1.12334
1.12494
1.12661
1.1283
1.12999
1.13163
1.13319
1.13465
1.13598
1.13718
1.13824
1.13916
1.13995
1.14063
1.1412
1.14168
1.14209
1.14242
1.1427
1.14294
1.14314
1.14331
1.14346
1.14358
1.14368
1.14375
1.1438
1.14381
1.1438
1.14374
1.14365
1.14351
1.14333
1.1431
1.14282
1.14247
1.14206
1.14157
1.141
1.14032
1.13954
1.13865
1.13762
1.13645
1.13515
1.13372
1.13217
1.13053
1.12881
1.12707
1.12534
1.12364
1.12203
1.12052
1.11915
1.11791
1.11684
1.11591
1.11512
1.11447
1.11393
1.11349
1.11314
1.11285
1.11262
1.11244
1.11229
1.11218
1.11209
1.11203
1.11198
1.11196
1.11196
1.11197
1.112
1.11204
1.1121
1.11218
1.11227
1.11236
1.11247
1.11259
1.11273
1.11287
1.11302
1.11318
1.11335
1.11352
1.1137
1.11389
1.11408
1.11427
1.11447
1.11468
1.11489
1.11512
1.11539
1.11573
1.11621
1.11697
1.1182
1.12019
1.1232
1.12738
1.13251
1.13799
1.14305
1.14719
1.15034
1.15273
1.15467
1.15635
1.15762
1.15842
1.159
1.15962
1.15979
1.15962
1.16
1.16068
1.15963
1.15885
1.16103
1.16192
1.15528
1.15228
1.18425
1.18576
1.18023
1.17642
1.17653
1.17494
1.17278
1.17207
1.17127
1.17013
1.16972
1.17007
1.1706
1.17088
1.17046
1.16914
1.16691
1.1635
1.15849
1.15195
1.14465
1.13763
1.13175
1.12739
1.12445
1.12258
1.12141
1.12065
1.1201
1.11965
1.11926
1.1189
1.11856
1.11824
1.11793
1.11764
1.11737
1.11711
1.11688
1.11666
1.11647
1.11629
1.11614
1.11601
1.1159
1.11581
1.11573
1.11567
1.11562
1.11559
1.11556
1.11555
1.11554
1.11555
1.11556
1.11557
1.1156
1.11564
1.1157
1.11577
1.11586
1.11599
1.11617
1.1164
1.11669
1.11708
1.11756
1.11816
1.11888
1.11973
1.12071
1.1218
1.123
1.12429
1.12563
1.127
1.12837
1.12972
1.13102
1.13227
1.13344
1.13455
1.1356
1.13659
1.13753
1.13843
1.13928
1.1401
1.14088
1.14162
1.14232
1.14296
1.14355
1.14409
1.14456
1.14496
1.14528
1.14553
1.1457
1.14579
1.14579
1.14571
1.14555
1.14531
1.145
1.14462
1.14418
1.14368
1.14311
1.14248
1.14181
1.14108
1.14031
1.13951
1.13866
1.13779
1.13688
1.13593
1.13494
1.13389
1.13277
1.13159
1.13033
1.129
1.12763
1.12624
1.12484
1.12348
1.12217
1.12095
1.11984
1.11885
1.11798
1.11724
1.11663
1.11612
1.11572
1.1154
1.11515
1.11495
1.1148
1.11468
1.11459
1.11453
1.11448
1.11445
1.11443
1.11442
1.11443
1.11445
1.11448
1.11452
1.11457
1.11464
1.11472
1.11481
1.11492
1.11504
1.11518
1.11534
1.11551
1.11569
1.11589
1.1161
1.11633
1.11657
1.11683
1.11713
1.11752
1.11811
1.11915
1.12119
1.1254
1.1339
1.14984
1.17568
1.20896
1.2402
1.26044
1.26989
1.27464
1.27838
1.28087
1.28131
1.28046
1.27988
1.28028
1.28125
1.28213
1.28265
1.28288
1.28296
1.28302
1.28307
1.28312
1.28323
1.28342
1.28369
1.28399
1.28429
1.28458
1.28488
1.28522
1.28564
1.2862
1.28696
1.28802
1.28945
1.2912
1.2931
1.29504
1.29715
1.29987
1.30339
1.30689
1.3083
1.30523
1.29666
1.28406
1.26951
1.25274
1.23161
1.20553
1.17782
1.15386
1.13709
1.12724
1.12212
1.1196
1.11835
1.11766
1.11721
1.11687
1.11657
1.1163
1.11603
1.11578
1.11555
1.11532
1.11511
1.11491
1.11473
1.11456
1.1144
1.11426
1.11413
1.11402
1.11392
1.11383
1.11375
1.11368
1.11362
1.11357
1.11354
1.11352
1.11351
1.11351
1.11354
1.11358
1.11365
1.11375
1.11389
1.11407
1.11431
1.11463
1.11504
1.11555
1.11617
1.11692
1.11779
1.1188
1.11992
1.12115
1.12245
1.12382
1.12521
1.12661
1.12797
1.12929
1.13055
1.13174
1.13286
1.13391
1.1349
1.13584
1.13672
1.13756
1.13835
1.13908
1.13976
1.14038
1.14094
1.14143
1.14186
1.14223
1.14255
1.14281
1.14302
1.14317
1.14328
1.14332
1.14331
1.14323
1.14309
1.14288
1.14259
1.14223
1.1418
1.14129
1.14071
1.14006
1.13934
1.13857
1.13776
1.1369
1.13601
1.13508
1.13411
1.13309
1.13201
1.13087
1.12966
1.12838
1.12703
1.12564
1.12421
1.12279
1.1214
1.12007
1.11881
1.11767
1.11664
1.11574
1.11497
1.11433
1.11379
1.11336
1.11301
1.11274
1.11252
1.11235
1.11223
1.11213
1.11206
1.11202
1.112
1.11199
1.11201
1.11204
1.11208
1.11214
1.11221
1.11229
1.11239
1.11249
1.11261
1.11273
1.11287
1.11301
1.11317
1.11333
1.1135
1.11368
1.11386
1.11405
1.11425
1.11445
1.11465
1.11487
1.1151
1.11536
1.1157
1.11618
1.11694
1.11819
1.12024
1.12339
1.12776
1.13309
1.13862
1.14346
1.14714
1.1499
1.15221
1.15435
1.15632
1.15787
1.15865
1.15886
1.15936
1.1599
1.15949
1.15933
1.16082
1.16061
1.15778
1.15977
1.16476
1.157
1.15043
1.18246
1.17997
1.17819
1.17734
1.17544
1.17359
1.17289
1.17203
1.17087
1.17012
1.16973
1.16972
1.17022
1.17059
1.16998
1.16817
1.16545
1.16193
1.15745
1.15193
1.1456
1.13913
1.13328
1.12861
1.12526
1.12305
1.12166
1.12077
1.12016
1.11969
1.11929
1.11893
1.11859
1.11828
1.11797
1.11769
1.11742
1.11716
1.11693
1.11671
1.11651
1.11634
1.11618
1.11603
1.11591
1.1158
1.11572
1.11564
1.11558
1.11554
1.1155
1.11548
1.11547
1.11548
1.11549
1.11551
1.11555
1.1156
1.11567
1.11576
1.11589
1.11606
1.11629
1.11658
1.11697
1.11746
1.11805
1.11877
1.1196
1.12053
1.12156
1.12267
1.12381
1.12496
1.12611
1.12721
1.12825
1.12923
1.13013
1.13098
1.13179
1.13257
1.13335
1.13415
1.13497
1.13581
1.13668
1.13756
1.13844
1.13931
1.14014
1.14092
1.14165
1.14231
1.14289
1.14339
1.14379
1.1441
1.1443
1.14441
1.14441
1.14431
1.14411
1.14381
1.14343
1.14295
1.1424
1.14177
1.14107
1.1403
1.13949
1.13863
1.13775
1.13687
1.13599
1.13514
1.13432
1.13353
1.13277
1.13202
1.13127
1.13048
1.12964
1.12873
1.12774
1.12667
1.12553
1.12435
1.12315
1.12197
1.12082
1.11976
1.11878
1.11792
1.11717
1.11655
1.11604
1.11562
1.1153
1.11506
1.11487
1.11473
1.11462
1.11454
1.11449
1.11445
1.11443
1.11442
1.11443
1.11445
1.11448
1.11452
1.11458
1.11465
1.11473
1.11482
1.11494
1.11506
1.1152
1.11535
1.11552
1.1157
1.1159
1.11611
1.11633
1.11657
1.11683
1.11713
1.1175
1.11807
1.11907
1.12105
1.12518
1.13364
1.14974
1.17617
1.21024
1.24167
1.26116
1.26976
1.27428
1.27835
1.28119
1.28153
1.28028
1.27947
1.27996
1.28111
1.28204
1.28246
1.28255
1.28261
1.28275
1.2829
1.283
1.28311
1.28328
1.28353
1.28385
1.28417
1.28446
1.28475
1.2851
1.28558
1.28624
1.28706
1.28803
1.28925
1.29084
1.29281
1.29498
1.29707
1.29912
1.30157
1.30448
1.30647
1.30438
1.29533
1.27996
1.26235
1.24555
1.2286
1.20858
1.18495
1.16134
1.14252
1.13036
1.12366
1.12029
1.11863
1.11777
1.11725
1.11688
1.11657
1.11629
1.11603
1.11578
1.11555
1.11532
1.11511
1.11492
1.11473
1.11456
1.11441
1.11427
1.11414
1.11402
1.11392
1.11383
1.11375
1.11368
1.11362
1.11357
1.11354
1.11351
1.11351
1.11352
1.11355
1.1136
1.11368
1.11381
1.11398
1.11421
1.11452
1.11493
1.11543
1.11605
1.11678
1.11764
1.1186
1.11965
1.12078
1.12195
1.12312
1.12429
1.12541
1.12647
1.12746
1.12839
1.12925
1.13007
1.13087
1.13166
1.13246
1.13328
1.13411
1.13496
1.13581
1.13664
1.13745
1.1382
1.1389
1.13953
1.14009
1.14058
1.14099
1.14133
1.1416
1.14179
1.14191
1.14196
1.14192
1.1418
1.1416
1.1413
1.14092
1.14045
1.13989
1.13924
1.13852
1.13773
1.13689
1.13601
1.13512
1.13423
1.13336
1.13251
1.1317
1.13091
1.13014
1.12935
1.12854
1.12767
1.12674
1.12572
1.12463
1.12347
1.12226
1.12104
1.11983
1.11866
1.11756
1.11656
1.11566
1.11488
1.11423
1.11369
1.11326
1.11291
1.11265
1.11245
1.1123
1.1122
1.11212
1.11208
1.11205
1.11205
1.11206
1.11209
1.11213
1.11219
1.11225
1.11233
1.11242
1.11252
1.11263
1.11274
1.11287
1.11301
1.11316
1.11332
1.11348
1.11366
1.11384
1.11402
1.11422
1.11442
1.11463
1.11484
1.11507
1.11534
1.11568
1.11616
1.11694
1.11822
1.12035
1.12362
1.12816
1.13359
1.13906
1.14368
1.14705
1.1495
1.1518
1.15424
1.15642
1.15795
1.15891
1.15932
1.15921
1.15949
1.16036
1.16012
1.15907
1.16042
1.16214
1.15941
1.15794
1.16283
1.16496
1.17991
1.1777
1.17716
1.17637
1.17413
1.1732
1.17275
1.17145
1.17055
1.17024
1.16983
1.16966
1.16993
1.16993
1.16892
1.16683
1.16394
1.16051
1.15658
1.15193
1.14651
1.14061
1.13488
1.12995
1.12621
1.12363
1.12198
1.12093
1.12024
1.11974
1.11933
1.11897
1.11863
1.11832
1.11802
1.11774
1.11747
1.11722
1.11699
1.11677
1.11657
1.11638
1.11621
1.11606
1.11592
1.1158
1.1157
1.11561
1.11554
1.11548
1.11544
1.11541
1.11539
1.11539
1.11541
1.11544
1.11548
1.11555
1.11564
1.11577
1.11594
1.11617
1.11647
1.11686
1.11736
1.11796
1.11868
1.11951
1.12044
1.12143
1.12247
1.12352
1.12455
1.12553
1.12643
1.12725
1.12798
1.12862
1.12921
1.12975
1.13029
1.13085
1.13145
1.13211
1.13283
1.1336
1.13442
1.13526
1.13612
1.13696
1.13777
1.13855
1.13926
1.13992
1.1405
1.141
1.14141
1.14172
1.14193
1.14203
1.14203
1.14193
1.14172
1.14141
1.14101
1.14053
1.13997
1.13935
1.13866
1.13791
1.13713
1.13631
1.13547
1.13464
1.13381
1.13303
1.13229
1.13161
1.13099
1.13042
1.12989
1.12936
1.12882
1.12823
1.12757
1.12681
1.12595
1.125
1.12397
1.1229
1.1218
1.12071
1.11967
1.11871
1.11785
1.11709
1.11646
1.11594
1.11553
1.11521
1.11497
1.11479
1.11466
1.11456
1.1145
1.11446
1.11443
1.11442
1.11443
1.11445
1.11448
1.11453
1.11458
1.11466
1.11474
1.11484
1.11495
1.11508
1.11522
1.11537
1.11554
1.11572
1.11591
1.11612
1.11634
1.11658
1.11683
1.11712
1.11749
1.11804
1.11901
1.12095
1.12503
1.13352
1.1499
1.177
1.21191
1.24357
1.26202
1.2687
1.27182
1.27608
1.28047
1.28247
1.28187
1.28051
1.27994
1.28036
1.28124
1.282
1.28243
1.2826
1.28268
1.28276
1.28286
1.28301
1.2832
1.28343
1.28374
1.2841
1.28447
1.28479
1.28508
1.28546
1.2861
1.28708
1.28832
1.28962
1.2909
1.29228
1.29402
1.29618
1.29859
1.30112
1.30349
1.30449
1.30131
1.29109
1.27435
1.25574
1.23965
1.22597
1.21094
1.19148
1.16907
1.14871
1.13418
1.12564
1.12121
1.11903
1.11793
1.11731
1.1169
1.11658
1.1163
1.11603
1.11579
1.11555
1.11533
1.11512
1.11493
1.11474
1.11457
1.11442
1.11427
1.11414
1.11403
1.11392
1.11383
1.11375
1.11368
1.11362
1.11357
1.11354
1.11352
1.11351
1.11353
1.11357
1.11364
1.11375
1.11391
1.11413
1.11443
1.11483
1.11534
1.11596
1.11669
1.11754
1.11849
1.1195
1.12056
1.12163
1.12268
1.12368
1.1246
1.12544
1.12618
1.12685
1.12745
1.12802
1.12858
1.12915
1.12976
1.13043
1.13114
1.13191
1.1327
1.13351
1.13432
1.1351
1.13584
1.13652
1.13715
1.1377
1.13819
1.13861
1.13896
1.13924
1.13944
1.13956
1.1396
1.13955
1.13942
1.1392
1.13889
1.1385
1.13802
1.13746
1.13683
1.13613
1.13537
1.13456
1.13373
1.13289
1.13205
1.13124
1.13048
1.12977
1.12912
1.12853
1.12797
1.12742
1.12685
1.12623
1.12554
1.12476
1.12388
1.12291
1.12185
1.12075
1.11963
1.11852
1.11745
1.11646
1.11557
1.11479
1.11414
1.1136
1.11317
1.11284
1.11259
1.11241
1.11229
1.1122
1.11215
1.11212
1.11212
1.11213
1.11216
1.1122
1.11225
1.11231
1.11238
1.11246
1.11255
1.11265
1.11276
1.11288
1.11301
1.11315
1.1133
1.11346
1.11363
1.11381
1.114
1.11419
1.11439
1.1146
1.11482
1.11506
1.11533
1.11567
1.11617
1.11697
1.11831
1.12055
1.124
1.12874
1.1343
1.13968
1.14393
1.1468
1.14887
1.15104
1.15377
1.15654
1.15841
1.15928
1.15971
1.15971
1.15947
1.16009
1.16098
1.1602
1.15984
1.16227
1.16234
1.15971
1.16276
1.16542
1.1768
1.17698
1.17601
1.17447
1.17387
1.17329
1.172
1.17108
1.17069
1.1701
1.16957
1.16946
1.16948
1.16918
1.1681
1.16588
1.16271
1.15916
1.1555
1.15159
1.1471
1.14196
1.13652
1.13146
1.12733
1.12436
1.1224
1.12116
1.12036
1.11981
1.11938
1.11901
1.11868
1.11837
1.11807
1.11779
1.11753
1.11728
1.11704
1.11682
1.11662
1.11642
1.11625
1.11608
1.11594
1.1158
1.11568
1.11558
1.1155
1.11543
1.11537
1.11533
1.11531
1.11531
1.11533
1.11536
1.11542
1.1155
1.11563
1.1158
1.11603
1.11633
1.11673
1.11724
1.11786
1.11858
1.11942
1.12033
1.1213
1.1223
1.12328
1.12422
1.12509
1.12587
1.12654
1.12711
1.1276
1.12801
1.1284
1.12877
1.12917
1.12962
1.13013
1.1307
1.13133
1.13201
1.13273
1.13346
1.13421
1.13494
1.13565
1.13634
1.13698
1.13758
1.13812
1.13859
1.13898
1.13928
1.13949
1.13959
1.13959
1.13949
1.13929
1.139
1.13862
1.13816
1.13764
1.13707
1.13644
1.13579
1.1351
1.13439
1.13367
1.13295
1.13223
1.13154
1.13089
1.13028
1.12974
1.12925
1.12882
1.12842
1.12804
1.12764
1.1272
1.12668
1.12607
1.12535
1.12453
1.12361
1.12263
1.1216
1.12056
1.11955
1.1186
1.11774
1.11699
1.11635
1.11583
1.11542
1.11511
1.11488
1.11471
1.11459
1.11451
1.11446
1.11443
1.11442
1.11443
1.11445
1.11448
1.11453
1.11459
1.11467
1.11476
1.11486
1.11497
1.1151
1.11524
1.11539
1.11556
1.11574
1.11593
1.11613
1.11635
1.11659
1.11684
1.11713
1.11751
1.11807
1.11907
1.12111
1.1254
1.13427
1.15113
1.1784
1.21262
1.24297
1.26052
1.26708
1.27044
1.27516
1.28023
1.28289
1.28253
1.28089
1.27983
1.27997
1.28087
1.28176
1.28226
1.28243
1.28249
1.2826
1.28278
1.28299
1.2832
1.28342
1.28368
1.28399
1.28436
1.28476
1.28516
1.2856
1.28621
1.2871
1.28825
1.28954
1.29081
1.29208
1.2936
1.29553
1.29772
1.29991
1.3018
1.30226
1.29853
1.28753
1.26949
1.24944
1.23315
1.22187
1.21158
1.197
1.17696
1.1558
1.13893
1.12824
1.12245
1.11957
1.11815
1.1174
1.11693
1.11659
1.1163
1.11604
1.1158
1.11556
1.11534
1.11513
1.11494
1.11476
1.11459
1.11443
1.11429
1.11416
1.11404
1.11393
1.11383
1.11375
1.11368
1.11362
1.11357
1.11354
1.11352
1.11352
1.11355
1.1136
1.1137
1.11385
1.11406
1.11435
1.11474
1.11525
1.11587
1.1166
1.11745
1.11837
1.11936
1.12037
1.12137
1.12232
1.12321
1.12401
1.1247
1.12529
1.1258
1.12623
1.12664
1.12704
1.12745
1.12791
1.12843
1.12901
1.12964
1.13032
1.13101
1.13172
1.13241
1.13308
1.13372
1.13432
1.13487
1.13538
1.13583
1.13622
1.13655
1.13682
1.13702
1.13714
1.13718
1.13714
1.13701
1.1368
1.1365
1.13613
1.13568
1.13517
1.13461
1.13399
1.13333
1.13264
1.13192
1.13119
1.13047
1.12976
1.12908
1.12845
1.12787
1.12736
1.12689
1.12647
1.12606
1.12563
1.12517
1.12462
1.12399
1.12325
1.1224
1.12146
1.12045
1.1194
1.11834
1.11731
1.11634
1.11546
1.11469
1.11405
1.11352
1.1131
1.11279
1.11257
1.11241
1.11231
1.11224
1.11221
1.1122
1.11221
1.11223
1.11227
1.11231
1.11237
1.11243
1.1125
1.11259
1.11268
1.11278
1.1129
1.11302
1.11316
1.1133
1.11346
1.11362
1.1138
1.11398
1.11417
1.11437
1.11458
1.11481
1.11505
1.11533
1.11569
1.11622
1.11708
1.11853
1.12094
1.12459
1.12948
1.13503
1.14018
1.14398
1.14638
1.14823
1.15044
1.15329
1.1564
1.15884
1.1598
1.15985
1.16017
1.16039
1.15996
1.16046
1.16198
1.16145
1.16036
1.16277
1.16473
1.16323
1.16361
1.17512
1.17583
1.17501
1.17394
1.17361
1.17262
1.17155
1.17111
1.17055
1.16984
1.16947
1.16924
1.16894
1.16843
1.16719
1.16479
1.16151
1.15799
1.15458
1.15124
1.14756
1.14316
1.1381
1.133
1.12856
1.12519
1.1229
1.12143
1.12051
1.11989
1.11944
1.11906
1.11873
1.11842
1.11812
1.11785
1.11758
1.11733
1.11709
1.11687
1.11666
1.11646
1.11628
1.11611
1.11595
1.1158
1.11567
1.11556
1.11546
1.11538
1.11531
1.11527
1.11524
1.11523
1.11525
1.11529
1.11536
1.11547
1.11564
1.11586
1.11617
1.11657
1.11708
1.11771
1.11844
1.11928
1.12018
1.12113
1.12209
1.12302
1.12389
1.12469
1.12538
1.12596
1.12645
1.12685
1.12719
1.12749
1.12778
1.1281
1.12846
1.12887
1.12933
1.12984
1.1304
1.13098
1.13157
1.13217
1.13277
1.13337
1.13395
1.13452
1.13506
1.13557
1.13604
1.13645
1.13681
1.13708
1.13727
1.13736
1.13737
1.13728
1.13709
1.13683
1.13649
1.13608
1.13562
1.13513
1.13459
1.13404
1.13348
1.1329
1.13232
1.13174
1.13115
1.13057
1.13001
1.12947
1.12897
1.12851
1.1281
1.12773
1.1274
1.12708
1.12675
1.12639
1.12595
1.12542
1.12479
1.12405
1.12322
1.12231
1.12134
1.12035
1.11937
1.11845
1.1176
1.11685
1.11622
1.11571
1.11531
1.11501
1.1148
1.11464
1.11454
1.11448
1.11444
1.11443
1.11443
1.11445
1.11449
1.11454
1.1146
1.11468
1.11477
1.11487
1.11499
1.11512
1.11526
1.11542
1.11558
1.11576
1.11595
1.11615
1.11637
1.1166
1.11686
1.11715
1.11754
1.11814
1.11923
1.12147
1.1262
1.13582
1.15354
1.18089
1.21351
1.24129
1.25721
1.26376
1.26805
1.27386
1.27986
1.28319
1.28318
1.2815
1.28011
1.2799
1.28057
1.28138
1.28191
1.28218
1.28236
1.28256
1.28277
1.28297
1.28317
1.28339
1.28367
1.28398
1.28431
1.2847
1.28515
1.28571
1.28638
1.28721
1.28823
1.28939
1.29061
1.29186
1.29322
1.29488
1.29681
1.29884
1.30048
1.30021
1.29514
1.28266
1.26363
1.24334
1.22767
1.21833
1.21162
1.20138
1.18426
1.16316
1.14428
1.13134
1.12399
1.12027
1.11845
1.11752
1.11698
1.11661
1.11632
1.11605
1.11581
1.11558
1.11536
1.11515
1.11496
1.11478
1.11461
1.11445
1.1143
1.11417
1.11405
1.11394
1.11384
1.11376
1.11368
1.11362
1.11358
1.11355
1.11354
1.11355
1.11359
1.11367
1.1138
1.11399
1.11427
1.11466
1.11515
1.11576
1.11649
1.11732
1.11823
1.11919
1.12016
1.1211
1.12198
1.12279
1.1235
1.1241
1.1246
1.12503
1.12538
1.1257
1.12602
1.12636
1.12674
1.12716
1.12764
1.12816
1.12871
1.12929
1.12986
1.13043
1.13098
1.13151
1.13202
1.1325
1.13295
1.13338
1.13376
1.1341
1.1344
1.13464
1.13482
1.13493
1.13497
1.13494
1.13482
1.13464
1.13438
1.13405
1.13366
1.13323
1.13275
1.13224
1.1317
1.13114
1.13057
1.12998
1.12938
1.12878
1.1282
1.12763
1.1271
1.12661
1.12617
1.12578
1.12542
1.12507
1.12471
1.12432
1.12385
1.1233
1.12266
1.1219
1.12105
1.12012
1.11913
1.11812
1.11714
1.1162
1.11534
1.11459
1.11396
1.11345
1.11306
1.11277
1.11257
1.11244
1.11236
1.11231
1.11229
1.1123
1.11231
1.11234
1.11238
1.11243
1.11249
1.11255
1.11263
1.11272
1.11281
1.11292
1.11304
1.11317
1.11331
1.11346
1.11362
1.11379
1.11397
1.11416
1.11436
1.11457
1.1148
1.11505
1.11534
1.11572
1.1163
1.11726
1.11887
1.12149
1.12539
1.13043
1.13587
1.14063
1.14391
1.14581
1.14737
1.14966
1.15282
1.15615
1.15888
1.16038
1.16051
1.16034
1.16078
1.16098
1.16067
1.16157
1.1628
1.16227
1.16257
1.16452
1.165
1.16563
1.17466
1.17456
1.17431
1.17391
1.17298
1.17204
1.1716
1.17095
1.17017
1.16974
1.16937
1.16882
1.16832
1.16768
1.16627
1.16382
1.16055
1.15698
1.15368
1.15078
1.14781
1.14415
1.13959
1.13458
1.12989
1.12613
1.12348
1.12177
1.12069
1.12
1.11951
1.11912
1.11878
1.11846
1.11817
1.11789
1.11763
1.11738
1.11714
1.11691
1.1167
1.11649
1.1163
1.11613
1.11596
1.11581
1.11567
1.11554
1.11543
1.11534
1.11526
1.11521
1.11517
1.11516
1.11518
1.11523
1.11532
1.11547
1.11568
1.11598
1.11638
1.11688
1.11751
1.11824
1.11907
1.11997
1.1209
1.12183
1.12272
1.12354
1.12428
1.12492
1.12545
1.12589
1.12626
1.12656
1.12683
1.1271
1.12738
1.12769
1.12804
1.12844
1.12888
1.12934
1.12982
1.13032
1.13082
1.13133
1.13184
1.13235
1.13287
1.13337
1.13387
1.13434
1.13478
1.13517
1.1355
1.13576
1.13594
1.13603
1.13603
1.13595
1.13578
1.13553
1.13522
1.13484
1.13441
1.13394
1.13345
1.13294
1.13243
1.13192
1.13141
1.13091
1.13041
1.12992
1.12943
1.12895
1.12849
1.12805
1.12764
1.12727
1.12694
1.12663
1.12634
1.12603
1.1257
1.12529
1.12482
1.12425
1.12357
1.1228
1.12195
1.12104
1.12009
1.11915
1.11825
1.11742
1.11669
1.11608
1.11558
1.1152
1.11492
1.11472
1.11458
1.1145
1.11445
1.11443
1.11443
1.11445
1.11449
1.11454
1.11461
1.11469
1.11479
1.11489
1.11501
1.11514
1.11528
1.11544
1.1156
1.11578
1.11597
1.11617
1.11639
1.11662
1.11688
1.11718
1.1176
1.11826
1.11952
1.12212
1.12756
1.13832
1.15713
1.18419
1.21406
1.2381
1.2521
1.25931
1.26532
1.27246
1.27918
1.28309
1.28367
1.28228
1.2807
1.27998
1.28016
1.28081
1.28152
1.28207
1.28241
1.28261
1.28274
1.28288
1.28309
1.28337
1.28371
1.28405
1.28436
1.28468
1.2851
1.2857
1.28648
1.28739
1.28836
1.28931
1.2903
1.29139
1.2927
1.29431
1.29613
1.29793
1.29906
1.29775
1.29118
1.27735
1.25779
1.23771
1.22271
1.21478
1.21083
1.20454
1.19082
1.17065
1.15026
1.13502
1.1259
1.12115
1.11883
1.11768
1.11705
1.11664
1.11633
1.11607
1.11582
1.11559
1.11538
1.11517
1.11498
1.1148
1.11463
1.11447
1.11432
1.11419
1.11406
1.11395
1.11385
1.11377
1.11369
1.11363
1.11359
1.11356
1.11356
1.11358
1.11365
1.11376
1.11394
1.1142
1.11456
1.11504
1.11564
1.11636
1.11717
1.11806
1.11898
1.1199
1.1208
1.12162
1.12237
1.12302
1.12357
1.12402
1.12441
1.12473
1.12502
1.12531
1.12562
1.12595
1.12633
1.12674
1.12719
1.12766
1.12814
1.12863
1.12911
1.12959
1.13005
1.13051
1.13095
1.13137
1.13178
1.13216
1.13251
1.13283
1.13311
1.13333
1.13351
1.13362
1.13366
1.13363
1.13353
1.13335
1.13311
1.13281
1.13245
1.13204
1.13161
1.13114
1.13065
1.13016
1.12965
1.12915
1.12864
1.12813
1.12762
1.12711
1.12662
1.12615
1.12572
1.12531
1.12495
1.12462
1.12429
1.12397
1.1236
1.12318
1.12268
1.12209
1.1214
1.12061
1.11975
1.11883
1.11788
1.11694
1.11604
1.11521
1.11449
1.11389
1.11341
1.11304
1.11278
1.1126
1.11249
1.11242
1.11239
1.11238
1.11239
1.11241
1.11245
1.11249
1.11254
1.1126
1.11267
1.11276
1.11285
1.11295
1.11307
1.11319
1.11333
1.11347
1.11363
1.11379
1.11397
1.11416
1.11436
1.11457
1.1148
1.11505
1.11536
1.11579
1.11644
1.11752
1.11934
1.12224
1.12639
1.13152
1.13675
1.14097
1.14364
1.14517
1.14655
1.14881
1.1522
1.15584
1.15869
1.16054
1.16133
1.16103
1.16075
1.1615
1.16192
1.16151
1.16247
1.1641
1.1639
1.16386
1.16604
1.16756
1.17439
1.17414
1.17388
1.1734
1.17253
1.17195
1.17143
1.17064
1.17006
1.16962
1.16896
1.16832
1.16777
1.16692
1.16538
1.16293
1.15966
1.15609
1.1529
1.15033
1.14793
1.14496
1.14095
1.13612
1.13127
1.12716
1.12415
1.12216
1.12091
1.12012
1.11958
1.11917
1.11882
1.1185
1.11821
1.11793
1.11766
1.11741
1.11717
1.11694
1.11672
1.11652
1.11632
1.11614
1.11597
1.11581
1.11566
1.11553
1.11541
1.11531
1.11522
1.11516
1.11512
1.11511
1.11513
1.11519
1.11531
1.1155
1.11577
1.11615
1.11664
1.11726
1.11798
1.1188
1.11969
1.1206
1.1215
1.12236
1.12314
1.12384
1.12444
1.12495
1.12537
1.12572
1.12602
1.12628
1.12654
1.12681
1.1271
1.12743
1.12779
1.12819
1.1286
1.12903
1.12946
1.12991
1.13035
1.1308
1.13126
1.13173
1.13219
1.13265
1.1331
1.13353
1.13393
1.13428
1.13457
1.13481
1.13497
1.13505
1.13506
1.13498
1.13483
1.1346
1.13431
1.13396
1.13357
1.13314
1.13269
1.13223
1.13175
1.13129
1.13082
1.13036
1.12991
1.12947
1.12903
1.12859
1.12816
1.12773
1.12732
1.12694
1.12659
1.12627
1.12597
1.12568
1.12539
1.12507
1.12468
1.12423
1.1237
1.12307
1.12236
1.12157
1.1207
1.1198
1.1189
1.11802
1.11722
1.11651
1.11592
1.11545
1.11509
1.11483
1.11465
1.11453
1.11447
1.11444
1.11444
1.11446
1.1145
1.11455
1.11462
1.11471
1.1148
1.11491
1.11503
1.11516
1.11531
1.11546
1.11563
1.1158
1.11599
1.11619
1.11641
1.11664
1.1169
1.11722
1.11767
1.11844
1.11993
1.12303
1.12943
1.14164
1.16172
1.18819
1.21465
1.23427
1.24588
1.25359
1.26155
1.27045
1.27822
1.28277
1.28387
1.28281
1.28124
1.28025
1.28011
1.28057
1.28126
1.28186
1.28225
1.2825
1.28273
1.28296
1.2832
1.28345
1.2837
1.28399
1.28434
1.28475
1.28524
1.28584
1.28656
1.2874
1.28828
1.28917
1.2901
1.29114
1.29232
1.29368
1.29526
1.29686
1.29756
1.29515
1.28679
1.27138
1.25147
1.23228
1.21853
1.21186
1.20985
1.2067
1.1964
1.1779
1.15663
1.13924
1.12819
1.12224
1.11931
1.11788
1.11713
1.11668
1.11636
1.11608
1.11584
1.11561
1.1154
1.11519
1.115
1.11482
1.11465
1.11449
1.11435
1.11421
1.11408
1.11397
1.11387
1.11378
1.11371
1.11365
1.11361
1.11359
1.11359
1.11364
1.11373
1.11389
1.11413
1.11447
1.11493
1.1155
1.11619
1.11699
1.11784
1.11873
1.11961
1.12046
1.12123
1.12193
1.12254
1.12305
1.12348
1.12386
1.12417
1.12445
1.12473
1.12502
1.12534
1.12569
1.12608
1.12648
1.12691
1.12735
1.12779
1.12822
1.12865
1.12907
1.12948
1.12989
1.13028
1.13066
1.13102
1.13136
1.13167
1.13195
1.1322
1.1324
1.13256
1.13266
1.1327
1.13267
1.13258
1.13243
1.13221
1.13194
1.13161
1.13124
1.13084
1.13042
1.12997
1.12952
1.12906
1.1286
1.12814
1.12767
1.12721
1.12675
1.12629
1.12583
1.1254
1.12499
1.1246
1.12426
1.12394
1.12362
1.1233
1.12295
1.12255
1.12208
1.12153
1.12089
1.12017
1.11938
1.11852
1.11762
1.11673
1.11588
1.11509
1.1144
1.11383
1.11338
1.11304
1.11281
1.11265
1.11255
1.1125
1.11247
1.11247
1.11248
1.11251
1.11255
1.1126
1.11265
1.11272
1.1128
1.11289
1.11299
1.1131
1.11323
1.11336
1.1135
1.11365
1.11381
1.11399
1.11417
1.11437
1.11458
1.11481
1.11508
1.11541
1.11588
1.11662
1.11787
1.11994
1.12315
1.12756
1.13272
1.13763
1.14126
1.14329
1.14441
1.14574
1.14802
1.15138
1.15526
1.15852
1.16052
1.16158
1.1619
1.16151
1.16147
1.16234
1.1628
1.16282
1.16379
1.1649
1.16532
1.16625
1.16741
1.17419
1.17403
1.17354
1.17289
1.1724
1.17184
1.17106
1.17047
1.16998
1.16924
1.1685
1.1679
1.16719
1.16615
1.16456
1.16211
1.15885
1.15532
1.15222
1.14985
1.14791
1.14558
1.14215
1.13761
1.13269
1.12828
1.1249
1.1226
1.12116
1.12025
1.11965
1.11921
1.11885
1.11853
1.11824
1.11796
1.11769
1.11743
1.11719
1.11696
1.11674
1.11653
1.11633
1.11615
1.11597
1.11581
1.11566
1.11552
1.11539
1.11529
1.1152
1.11513
1.11508
1.11507
1.1151
1.11518
1.11534
1.11557
1.11592
1.11638
1.11697
1.11767
1.11848
1.11934
1.12023
1.12111
1.12194
1.12269
1.12336
1.12395
1.12444
1.12485
1.12521
1.12551
1.12577
1.12604
1.1263
1.12658
1.12689
1.12724
1.1276
1.12798
1.12838
1.12879
1.1292
1.12962
1.13005
1.1305
1.13096
1.13142
1.13189
1.13236
1.13281
1.13324
1.13364
1.13399
1.13429
1.13453
1.13468
1.13477
1.13478
1.1347
1.13454
1.13432
1.13402
1.13366
1.13327
1.13284
1.13237
1.1319
1.13142
1.13094
1.13047
1.13001
1.12956
1.12913
1.1287
1.12828
1.12787
1.12746
1.12706
1.12668
1.12631
1.12597
1.12567
1.12538
1.1251
1.12481
1.12449
1.12411
1.12368
1.12317
1.12258
1.12191
1.12116
1.12034
1.11948
1.11861
1.11777
1.11699
1.11631
1.11575
1.11531
1.11497
1.11474
1.11459
1.1145
1.11446
1.11445
1.11447
1.11451
1.11456
1.11463
1.11472
1.11482
1.11493
1.11505
1.11519
1.11533
1.11548
1.11565
1.11582
1.11601
1.11621
1.11643
1.11666
1.11693
1.11727
1.11778
1.11868
1.12048
1.12425
1.13185
1.14576
1.16704
1.19244
1.21498
1.23004