# vtk DataFile Version 2.0
LBE two cylinders
ASCII
DATASET STRUCTURED_POINTS
DIMENSIONS 400 100 1
ASPECT_RATIO 1 1 1
ORIGIN 0 0 0
POINT_DATA 40000
SCALARS rho double 1
LOOKUP_TABLE default
1.34012
1.33753
1.33777
1.33776
1.33685
1.33632
1.33596
1.33528
1.33464
1.33408
1.33346
1.33282
1.33222
1.33162
1.33101
1.33043
1.32987
1.32931
1.32877
1.32825
1.32775
1.32726
1.32679
1.32635
1.32592
1.32551
1.32513
1.32476
1.32441
1.32409
1.32378
1.32349
1.32323
1.32299
1.32276
1.32256
1.32238
1.32221
1.32207
1.32195
1.32184
1.32176
1.32169
1.32164
1.32162
1.32161
1.32162
1.32164
1.32169
1.32176
1.32184
1.32194
1.32206
1.3222
1.32236
1.32254
1.32273
1.32295
1.32319
1.32344
1.32371
1.32401
1.32433
1.32466
1.32503
1.32541
1.32581
1.32624
1.3267
1.32718
1.32768
1.32821
1.32876
1.32934
1.32994
1.33057
1.33123
1.33191
1.33261
1.33334
1.33409
1.33486
1.33566
1.33648
1.33731
1.33817
1.33904
1.33993
1.34083
1.34175
1.34267
1.3436
1.34453
1.34547
1.3464
1.34733
1.34825
1.34917
1.35007
1.35096
1.35183
1.35268
1.35351
1.35431
1.35508
1.35583
1.35654
1.35722
1.35786
1.35847
1.35903
1.35957
1.36006
1.36051
1.36092
1.36129
1.36163
1.36192
1.36218
1.36241
1.36259
1.36275
1.36287
1.36297
1.36304
1.36308
1.3631
1.3631
1.36308
1.36304
1.36299
1.36293
1.36285
1.36277
1.36268
1.36258
1.36247
1.36237
1.36225
1.36214
1.36203
1.36192
1.3618
1.36169
1.36158
1.36147
1.36137
1.36127
1.36117
1.36107
1.36098
1.36089
1.36081
1.36073
1.36065
1.36058
1.36051
1.36044
1.36038
1.36033
1.36028
1.36023
1.36019
1.36015
1.36011
1.36008
1.36005
1.36002
1.36
1.35998
1.35996
1.35994
1.35992
1.3599
1.35988
1.35986
1.35983
1.35981
1.35978
1.35975
1.35972
1.35968
1.35964
1.3596
1.35956
1.35951
1.35947
1.35942
1.35937
1.35933
1.35928
1.35924
1.35919
1.35916
1.35912
1.35909
1.35906
1.35904
1.35902
1.359
1.35899
1.35899
1.35899
1.35899
1.359
1.35902
1.35903
1.35905
1.35907
1.35909
1.35911
1.35914
1.35916
1.35918
1.3592
1.35923
1.35925
1.35926
1.35928
1.3593
1.35931
1.35933
1.35934
1.35936
1.35937
1.35939
1.35941
1.35943
1.35945
1.35947
1.3595
1.35953
1.35957
1.35961
1.35965
1.3597
1.35975
1.35981
1.35987
1.35993
1.36
1.36007
1.36015
1.36023
1.36031
1.36039
1.36048
1.36057
1.36066
1.36076
1.36085
1.36095
1.36105
1.36115
1.36125
1.36135
1.36145
1.36155
1.36166
1.36176
1.36186
1.36196
1.36206
1.36216
1.36225
1.36234
1.36243
1.36252
1.3626
1.36267
1.36273
1.36279
1.36284
1.36287
1.36289
1.36289
1.36288
1.36285
1.3628
1.36272
1.36262
1.36249
1.36233
1.36214
1.36192
1.36167
1.36138
1.36105
1.36068
1.36028
1.35984
1.35936
1.35884
1.35828
1.35768
1.35705
1.35639
1.35569
1.35496
1.3542
1.35341
1.3526
1.35177
1.35092
1.35005
1.34916
1.34827
1.34736
1.34645
1.34553
1.34461
1.34368
1.34276
1.34184
1.34092
1.34001
1.33911
1.33821
1.33733
1.33645
1.33558
1.33473
1.33389
1.33306
1.33225
1.33145
1.33067
1.3299
1.32914
1.32841
1.32768
1.32697
1.32628
1.3256
1.32494
1.32429
1.32365
1.32303
1.32242
1.32183
1.32126
1.32069
1.32014
1.31961
1.31909
1.31859
1.31811
1.31764
1.31719
1.31675
1.31634
1.31594
1.31556
1.3152
1.31485
1.31453
1.31422
1.31393
1.31365
1.31339
1.31315
1.31292
1.31271
1.31251
1.31233
1.31216
1.312
1.31185
1.31172
1.3116
1.31148
1.31138
1.31129
1.31121
1.31114
1.31108
1.31103
1.311
1.31096
1.31094
1.31094
1.31094
1.31092
1.31095
1.31103
1.31103
1.31098
1.31118
1.31139
1.31109
1.31102
1.312
1.31193
1.3099
1.31091
1.31486
1.31027
1.30151
1.3121
1.3212
1.33833
1.33846
1.33798
1.33731
1.33699
1.33649
1.33589
1.33529
1.33473
1.3341
1.33348
1.33287
1.33226
1.33165
1.33105
1.33047
1.3299
1.32934
1.3288
1.32828
1.32777
1.32729
1.32682
1.32637
1.32594
1.32554
1.32515
1.32478
1.32443
1.32411
1.3238
1.32351
1.32325
1.323
1.32278
1.32257
1.32239
1.32223
1.32208
1.32196
1.32185
1.32177
1.3217
1.32165
1.32163
1.32162
1.32162
1.32165
1.3217
1.32176
1.32184
1.32195
1.32207
1.32221
1.32236
1.32254
1.32273
1.32295
1.32318
1.32344
1.32371
1.32401
1.32432
1.32466
1.32502
1.3254
1.32581
1.32624
1.32669
1.32717
1.32767
1.3282
1.32875
1.32933
1.32993
1.33055
1.33121
1.33188
1.33259
1.33331
1.33406
1.33483
1.33563
1.33644
1.33728
1.33813
1.339
1.33989
1.34079
1.3417
1.34262
1.34354
1.34447
1.34541
1.34634
1.34727
1.34819
1.3491
1.35
1.35089
1.35176
1.35261
1.35344
1.35424
1.35501
1.35576
1.35647
1.35715
1.3578
1.3584
1.35898
1.35951
1.36
1.36046
1.36087
1.36125
1.36159
1.36189
1.36215
1.36237
1.36257
1.36273
1.36285
1.36295
1.36302
1.36307
1.36309
1.36309
1.36308
1.36304
1.36299
1.36293
1.36286
1.36278
1.36268
1.36259
1.36248
1.36238
1.36227
1.36216
1.36204
1.36193
1.36182
1.36171
1.3616
1.36149
1.36139
1.36129
1.36119
1.3611
1.361
1.36092
1.36083
1.36075
1.36068
1.3606
1.36054
1.36047
1.36041
1.36036
1.36031
1.36026
1.36022
1.36018
1.36014
1.36011
1.36008
1.36006
1.36003
1.36001
1.35999
1.35997
1.35995
1.35993
1.35991
1.35989
1.35987
1.35984
1.35981
1.35979
1.35975
1.35972
1.35968
1.35964
1.3596
1.35955
1.35951
1.35946
1.35942
1.35937
1.35933
1.35928
1.35924
1.3592
1.35917
1.35914
1.35911
1.35909
1.35907
1.35905
1.35904
1.35904
1.35904
1.35904
1.35905
1.35906
1.35908
1.35909
1.35911
1.35913
1.35915
1.35918
1.3592
1.35922
1.35924
1.35926
1.35928
1.3593
1.35931
1.35933
1.35934
1.35936
1.35937
1.35939
1.3594
1.35942
1.35943
1.35945
1.35947
1.3595
1.35953
1.35956
1.35959
1.35963
1.35967
1.35972
1.35977
1.35982
1.35988
1.35994
1.36001
1.36008
1.36016
1.36023
1.36031
1.3604
1.36048
1.36057
1.36066
1.36076
1.36085
1.36095
1.36104
1.36114
1.36124
1.36134
1.36144
1.36154
1.36164
1.36174
1.36184
1.36193
1.36203
1.36213
1.36222
1.36231
1.3624
1.36248
1.36255
1.36262
1.36269
1.36274
1.36278
1.36281
1.36283
1.36283
1.36281
1.36278
1.36272
1.36264
1.36254
1.36241
1.36225
1.36206
1.36184
1.36158
1.36129
1.36096
1.3606
1.3602
1.35976
1.35928
1.35876
1.35821
1.35761
1.35699
1.35632
1.35563
1.3549
1.35415
1.35337
1.35256
1.35173
1.35089
1.35002
1.34915
1.34825
1.34735
1.34644
1.34553
1.34461
1.34369
1.34277
1.34186
1.34094
1.34004
1.33914
1.33824
1.33736
1.33648
1.33562
1.33477
1.33393
1.3331
1.33229
1.33149
1.33071
1.32994
1.32918
1.32845
1.32772
1.32701
1.32632
1.32564
1.32497
1.32432
1.32368
1.32306
1.32245
1.32186
1.32128
1.32072
1.32017
1.31964
1.31912
1.31862
1.31813
1.31766
1.31721
1.31677
1.31636
1.31596
1.31558
1.31521
1.31487
1.31454
1.31423
1.31393
1.31366
1.3134
1.31315
1.31292
1.31271
1.31251
1.31232
1.31215
1.31199
1.31184
1.3117
1.31157
1.31146
1.31135
1.31126
1.31118
1.3111
1.31104
1.31098
1.31093
1.3109
1.31087
1.31085
1.31084
1.31085
1.31084
1.31083
1.31091
1.31096
1.31088
1.31092
1.31122
1.31109
1.31063
1.3111
1.31181
1.31013
1.30867
1.31137
1.31083
1.30094
1.29545
1.33769
1.33862
1.33792
1.33722
1.33716
1.33658
1.33587
1.33536
1.33479
1.33411
1.3335
1.3329
1.33227
1.33165
1.33106
1.33047
1.32989
1.32934
1.3288
1.32827
1.32777
1.32728
1.32681
1.32636
1.32593
1.32552
1.32513
1.32477
1.32442
1.32409
1.32378
1.3235
1.32323
1.32298
1.32276
1.32255
1.32237
1.3222
1.32206
1.32193
1.32183
1.32174
1.32168
1.32163
1.3216
1.32159
1.32159
1.32162
1.32167
1.32173
1.32181
1.32191
1.32203
1.32217
1.32233
1.3225
1.3227
1.32291
1.32314
1.3234
1.32367
1.32396
1.32428
1.32462
1.32498
1.32536
1.32576
1.32619
1.32664
1.32712
1.32762
1.32815
1.3287
1.32927
1.32987
1.3305
1.33115
1.33183
1.33253
1.33325
1.334
1.33477
1.33557
1.33638
1.33721
1.33807
1.33893
1.33982
1.34072
1.34163
1.34255
1.34347
1.3444
1.34534
1.34627
1.3472
1.34812
1.34904
1.34994
1.35083
1.3517
1.35255
1.35338
1.35418
1.35496
1.35571
1.35643
1.35711
1.35776
1.35837
1.35895
1.35948
1.35998
1.36044
1.36086
1.36124
1.36158
1.36188
1.36215
1.36238
1.36257
1.36273
1.36286
1.36297
1.36304
1.36309
1.36311
1.36312
1.3631
1.36307
1.36302
1.36296
1.36289
1.36281
1.36272
1.36262
1.36252
1.36242
1.36231
1.3622
1.36209
1.36197
1.36186
1.36175
1.36164
1.36154
1.36144
1.36134
1.36124
1.36114
1.36105
1.36097
1.36088
1.36081
1.36073
1.36066
1.3606
1.36053
1.36048
1.36042
1.36037
1.36033
1.36029
1.36025
1.36022
1.36018
1.36016
1.36013
1.36011
1.36009
1.36006
1.36005
1.36003
1.36001
1.35999
1.35997
1.35994
1.35992
1.35989
1.35986
1.35983
1.3598
1.35976
1.35972
1.35968
1.35964
1.3596
1.35955
1.35951
1.35946
1.35942
1.35938
1.35934
1.3593
1.35927
1.35924
1.35921
1.35919
1.35917
1.35916
1.35915
1.35914
1.35914
1.35915
1.35915
1.35916
1.35918
1.35919
1.35921
1.35923
1.35925
1.35927
1.35929
1.35931
1.35933
1.35935
1.35936
1.35938
1.35939
1.35941
1.35942
1.35944
1.35945
1.35946
1.35947
1.35949
1.35951
1.35952
1.35954
1.35957
1.35959
1.35962
1.35965
1.35969
1.35973
1.35978
1.35982
1.35988
1.35993
1.35999
1.36006
1.36013
1.3602
1.36027
1.36035
1.36043
1.36052
1.3606
1.36069
1.36078
1.36087
1.36097
1.36106
1.36116
1.36125
1.36135
1.36145
1.36154
1.36164
1.36174
1.36184
1.36193
1.36203
1.36212
1.36221
1.3623
1.36238
1.36246
1.36253
1.3626
1.36266
1.36271
1.36275
1.36277
1.36279
1.36279
1.36277
1.36273
1.36267
1.36259
1.36248
1.36235
1.36219
1.362
1.36177
1.36152
1.36123
1.3609
1.36053
1.36013
1.35969
1.35921
1.3587
1.35815
1.35755
1.35693
1.35627
1.35558
1.35485
1.3541
1.35332
1.35252
1.35169
1.35085
1.34999
1.34911
1.34823
1.34733
1.34642
1.34551
1.3446
1.34368
1.34276
1.34185
1.34094
1.34003
1.33913
1.33824
1.33736
1.33649
1.33562
1.33477
1.33394
1.33311
1.3323
1.3315
1.33072
1.32995
1.32919
1.32845
1.32773
1.32702
1.32632
1.32564
1.32497
1.32432
1.32368
1.32306
1.32245
1.32186
1.32128
1.32071
1.32017
1.31963
1.31911
1.31861
1.31812
1.31766
1.3172
1.31677
1.31635
1.31595
1.31557
1.3152
1.31486
1.31453
1.31422
1.31392
1.31364
1.31338
1.31314
1.3129
1.31269
1.31249
1.3123
1.31212
1.31196
1.31181
1.31167
1.31154
1.31142
1.31131
1.31122
1.31113
1.31105
1.31098
1.31092
1.31087
1.31083
1.3108
1.31077
1.31073
1.31075
1.31076
1.31071
1.31071
1.31086
1.31082
1.31057
1.31085
1.31128
1.31046
1.30991
1.31181
1.31151
1.30672
1.30875
1.31564
1.30323
1.29101
1.3381
1.33815
1.338
1.33773
1.33719
1.33652
1.33603
1.33543
1.33476
1.33413
1.33352
1.33287
1.33225
1.33164
1.33103
1.33043
1.32986
1.3293
1.32875
1.32823
1.32772
1.32723
1.32676
1.32631
1.32588
1.32547
1.32508
1.32471
1.32436
1.32403
1.32373
1.32344
1.32317
1.32293
1.3227
1.3225
1.32231
1.32215
1.322
1.32187
1.32177
1.32168
1.32161
1.32156
1.32153
1.32152
1.32153
1.32155
1.3216
1.32166
1.32174
1.32184
1.32196
1.32209
1.32225
1.32242
1.32262
1.32283
1.32306
1.32332
1.32359
1.32388
1.3242
1.32453
1.32489
1.32527
1.32568
1.32611
1.32656
1.32703
1.32753
1.32806
1.32861
1.32918
1.32978
1.33041
1.33106
1.33174
1.33244
1.33316
1.33391
1.33468
1.33547
1.33628
1.33712
1.33797
1.33884
1.33973
1.34062
1.34154
1.34246
1.34338
1.34432
1.34525
1.34619
1.34712
1.34805
1.34896
1.34987
1.35076
1.35164
1.35249
1.35333
1.35414
1.35492
1.35568
1.3564
1.35709
1.35774
1.35836
1.35894
1.35949
1.35999
1.36045
1.36088
1.36126
1.3616
1.36191
1.36218
1.36241
1.36261
1.36277
1.36291
1.36301
1.36309
1.36314
1.36316
1.36317
1.36315
1.36312
1.36308
1.36302
1.36295
1.36287
1.36278
1.36268
1.36258
1.36248
1.36237
1.36226
1.36215
1.36204
1.36193
1.36182
1.36171
1.36161
1.36151
1.36141
1.36131
1.36122
1.36113
1.36105
1.36096
1.36089
1.36082
1.36075
1.36069
1.36063
1.36057
1.36052
1.36047
1.36043
1.36039
1.36036
1.36032
1.36029
1.36027
1.36024
1.36022
1.3602
1.36018
1.36016
1.36014
1.36012
1.3601
1.36008
1.36006
1.36004
1.36001
1.35998
1.35995
1.35992
1.35988
1.35985
1.35981
1.35977
1.35973
1.35969
1.35965
1.3596
1.35956
1.35952
1.35949
1.35945
1.35942
1.35939
1.35937
1.35935
1.35933
1.35932
1.35931
1.3593
1.3593
1.3593
1.35931
1.35932
1.35933
1.35934
1.35936
1.35938
1.35939
1.35941
1.35943
1.35945
1.35946
1.35948
1.35949
1.35951
1.35952
1.35954
1.35955
1.35956
1.35957
1.35958
1.35959
1.35961
1.35962
1.35964
1.35965
1.35968
1.3597
1.35973
1.35976
1.35979
1.35983
1.35987
1.35992
1.35997
1.36002
1.36008
1.36014
1.36021
1.36028
1.36035
1.36042
1.3605
1.36058
1.36067
1.36075
1.36084
1.36093
1.36102
1.36111
1.3612
1.36129
1.36139
1.36148
1.36158
1.36167
1.36177
1.36186
1.36195
1.36204
1.36213
1.36222
1.36231
1.36239
1.36246
1.36253
1.3626
1.36265
1.3627
1.36273
1.36276
1.36277
1.36276
1.36274
1.3627
1.36264
1.36255
1.36245
1.36231
1.36215
1.36195
1.36173
1.36147
1.36117
1.36084
1.36048
1.36007
1.35963
1.35915
1.35863
1.35808
1.35749
1.35686
1.3562
1.3555
1.35478
1.35403
1.35325
1.35245
1.35162
1.35078
1.34992
1.34904
1.34816
1.34726
1.34636
1.34545
1.34454
1.34362
1.34271
1.3418
1.34089
1.33998
1.33909
1.3382
1.33732
1.33645
1.33559
1.33474
1.3339
1.33308
1.33226
1.33147
1.33068
1.32991
1.32916
1.32842
1.32769
1.32698
1.32629
1.3256
1.32494
1.32429
1.32365
1.32302
1.32242
1.32182
1.32124
1.32068
1.32013
1.3196
1.31908
1.31858
1.31809
1.31762
1.31717
1.31674
1.31632
1.31592
1.31554
1.31518
1.31483
1.3145
1.31419
1.31389
1.31362
1.31335
1.31311
1.31287
1.31266
1.31245
1.31226
1.31209
1.31192
1.31177
1.31163
1.3115
1.31138
1.31127
1.31117
1.31108
1.311
1.31093
1.31087
1.31082
1.31076
1.31072
1.31071
1.31069
1.31064
1.31065
1.31072
1.31065
1.31056
1.31079
1.3109
1.31044
1.3105
1.31143
1.31085
1.30919
1.31087
1.31257
1.30784
1.30581
1.31121
1.31184
1.33885
1.33853
1.33835
1.33796
1.33722
1.33665
1.33616
1.33543
1.33475
1.33415
1.33349
1.33282
1.3322
1.33158
1.33096
1.33036
1.32978
1.32921
1.32866
1.32814
1.32763
1.32713
1.32666
1.32621
1.32578
1.32537
1.32498
1.32462
1.32427
1.32394
1.32363
1.32335
1.32308
1.32283
1.32261
1.3224
1.32222
1.32205
1.3219
1.32178
1.32167
1.32158
1.32151
1.32146
1.32143
1.32142
1.32142
1.32145
1.32149
1.32155
1.32163
1.32173
1.32184
1.32198
1.32213
1.32231
1.3225
1.32271
1.32294
1.32319
1.32347
1.32376
1.32407
1.32441
1.32477
1.32515
1.32555
1.32598
1.32643
1.32691
1.32741
1.32793
1.32848
1.32906
1.32966
1.33028
1.33093
1.3316
1.3323
1.33303
1.33377
1.33454
1.33534
1.33615
1.33699
1.33784
1.33871
1.3396
1.3405
1.34141
1.34234
1.34327
1.34421
1.34514
1.34608
1.34702
1.34795
1.34888
1.34979
1.35069
1.35157
1.35243
1.35328
1.35409
1.35489
1.35565
1.35638
1.35708
1.35774
1.35837
1.35895
1.3595
1.36001
1.36048
1.36091
1.3613
1.36165
1.36196
1.36224
1.36247
1.36267
1.36284
1.36298
1.36308
1.36316
1.36321
1.36324
1.36325
1.36323
1.3632
1.36316
1.3631
1.36303
1.36295
1.36286
1.36277
1.36267
1.36256
1.36246
1.36235
1.36224
1.36213
1.36202
1.36191
1.36181
1.3617
1.3616
1.3615
1.36141
1.36132
1.36123
1.36115
1.36107
1.361
1.36093
1.36087
1.36081
1.36075
1.3607
1.36065
1.36061
1.36057
1.36053
1.3605
1.36047
1.36044
1.36042
1.36039
1.36037
1.36035
1.36034
1.36032
1.3603
1.36028
1.36026
1.36024
1.36022
1.3602
1.36017
1.36015
1.36012
1.36009
1.36005
1.36002
1.35998
1.35995
1.35991
1.35987
1.35983
1.35979
1.35976
1.35972
1.35969
1.35965
1.35962
1.3596
1.35957
1.35955
1.35954
1.35953
1.35952
1.35951
1.35951
1.35951
1.35952
1.35952
1.35953
1.35955
1.35956
1.35957
1.35959
1.3596
1.35962
1.35963
1.35965
1.35966
1.35967
1.35969
1.3597
1.35971
1.35972
1.35973
1.35973
1.35974
1.35975
1.35976
1.35978
1.35979
1.35981
1.35983
1.35985
1.35987
1.3599
1.35993
1.35997
1.36001
1.36005
1.3601
1.36015
1.3602
1.36026
1.36032
1.36039
1.36046
1.36053
1.3606
1.36068
1.36076
1.36084
1.36093
1.36101
1.3611
1.36118
1.36127
1.36136
1.36145
1.36154
1.36164
1.36173
1.36182
1.36191
1.362
1.36209
1.36217
1.36226
1.36234
1.36242
1.36249
1.36256
1.36262
1.36267
1.36271
1.36274
1.36276
1.36277
1.36276
1.36274
1.36269
1.36263
1.36254
1.36243
1.36229
1.36212
1.36192
1.36169
1.36142
1.36112
1.36079
1.36042
1.36001
1.35956
1.35907
1.35855
1.35799
1.35739
1.35676
1.35609
1.3554
1.35467
1.35391
1.35313
1.35233
1.3515
1.35066
1.3498
1.34892
1.34804
1.34714
1.34624
1.34533
1.34442
1.34351
1.34259
1.34168
1.34078
1.33988
1.33898
1.3381
1.33722
1.33635
1.33549
1.33464
1.33381
1.33299
1.33218
1.33138
1.3306
1.32983
1.32908
1.32834
1.32762
1.32691
1.32621
1.32553
1.32487
1.32422
1.32358
1.32296
1.32235
1.32176
1.32118
1.32062
1.32007
1.31954
1.31902
1.31852
1.31804
1.31757
1.31713
1.31669
1.31628
1.31588
1.3155
1.31514
1.31479
1.31447
1.31416
1.31386
1.31358
1.31332
1.31308
1.31284
1.31263
1.31242
1.31223
1.31206
1.31189
1.31174
1.3116
1.31147
1.31135
1.31124
1.31114
1.31105
1.31097
1.3109
1.31084
1.31079
1.31075
1.3107
1.31067
1.31068
1.31066
1.31061
1.31066
1.31076
1.31065
1.3106
1.31098
1.31099
1.3104
1.31092
1.31197
1.31047
1.30956
1.313
1.31233
1.30739
1.31076
1.31331
1.33973
1.33927
1.33871
1.33804
1.33747
1.33687
1.33613
1.33542
1.3348
1.3341
1.3334
1.33276
1.33211
1.33146
1.33084
1.33024
1.32965
1.32908
1.32853
1.328
1.32749
1.32699
1.32652
1.32607
1.32564
1.32523
1.32485
1.32448
1.32413
1.3238
1.3235
1.32321
1.32295
1.3227
1.32247
1.32227
1.32208
1.32192
1.32177
1.32165
1.32154
1.32145
1.32138
1.32133
1.32129
1.32128
1.32128
1.32131
1.32135
1.32141
1.32148
1.32158
1.32169
1.32183
1.32198
1.32215
1.32235
1.32256
1.32279
1.32304
1.32331
1.3236
1.32391
1.32425
1.32461
1.32499
1.32539
1.32582
1.32627
1.32674
1.32724
1.32776
1.32831
1.32889
1.32949
1.33011
1.33076
1.33143
1.33213
1.33286
1.3336
1.33437
1.33517
1.33598
1.33682
1.33768
1.33855
1.33944
1.34034
1.34126
1.34219
1.34313
1.34407
1.34501
1.34596
1.3469
1.34784
1.34877
1.34969
1.3506
1.35149
1.35236
1.35322
1.35404
1.35485
1.35562
1.35636
1.35707
1.35774
1.35838
1.35898
1.35953
1.36005
1.36053
1.36097
1.36136
1.36172
1.36204
1.36231
1.36255
1.36276
1.36293
1.36307
1.36317
1.36325
1.36331
1.36333
1.36334
1.36333
1.3633
1.36326
1.3632
1.36313
1.36305
1.36297
1.36287
1.36277
1.36267
1.36256
1.36246
1.36235
1.36224
1.36213
1.36203
1.36192
1.36182
1.36172
1.36163
1.36154
1.36145
1.36137
1.36129
1.36121
1.36114
1.36108
1.36102
1.36096
1.36091
1.36086
1.36082
1.36078
1.36074
1.36071
1.36068
1.36065
1.36063
1.3606
1.36059
1.36057
1.36055
1.36053
1.36051
1.3605
1.36048
1.36046
1.36044
1.36042
1.3604
1.36038
1.36035
1.36033
1.3603
1.36027
1.36024
1.3602
1.36017
1.36013
1.3601
1.36006
1.36003
1.36
1.35996
1.35993
1.3599
1.35988
1.35985
1.35983
1.35981
1.3598
1.35979
1.35978
1.35977
1.35977
1.35977
1.35977
1.35978
1.35979
1.3598
1.35981
1.35982
1.35983
1.35984
1.35986
1.35987
1.35988
1.35989
1.3599
1.35991
1.35992
1.35992
1.35993
1.35994
1.35994
1.35995
1.35996
1.35997
1.35998
1.35999
1.36
1.36002
1.36004
1.36006
1.36009
1.36011
1.36015
1.36018
1.36022
1.36027
1.36031
1.36036
1.36042
1.36048
1.36054
1.3606
1.36067
1.36074
1.36081
1.36089
1.36096
1.36104
1.36112
1.3612
1.36129
1.36137
1.36146
1.36155
1.36163
1.36172
1.36181
1.3619
1.36198
1.36207
1.36215
1.36224
1.36232
1.3624
1.36247
1.36254
1.3626
1.36266
1.36271
1.36275
1.36278
1.36279
1.36279
1.36278
1.36275
1.3627
1.36263
1.36254
1.36242
1.36227
1.3621
1.36189
1.36165
1.36138
1.36107
1.36073
1.36035
1.35993
1.35947
1.35898
1.35844
1.35787
1.35727
1.35663
1.35595
1.35525
1.35451
1.35375
1.35297
1.35216
1.35133
1.35048
1.34962
1.34874
1.34785
1.34695
1.34605
1.34514
1.34423
1.34332
1.34241
1.3415
1.3406
1.3397
1.33881
1.33792
1.33705
1.33618
1.33533
1.33449
1.33366
1.33284
1.33204
1.33124
1.33047
1.3297
1.32895
1.32822
1.3275
1.32679
1.3261
1.32542
1.32476
1.32411
1.32348
1.32286
1.32225
1.32166
1.32109
1.32053
1.31999
1.31946
1.31895
1.31845
1.31797
1.31751
1.31707
1.31664
1.31623
1.31583
1.31546
1.3151
1.31476
1.31443
1.31412
1.31383
1.31355
1.31329
1.31305
1.31282
1.3126
1.3124
1.31221
1.31204
1.31188
1.31172
1.31159
1.31146
1.31134
1.31123
1.31114
1.31105
1.31097
1.31091
1.31085
1.3108
1.31076
1.31075
1.31071
1.31069
1.31074
1.31076
1.31069
1.31078
1.311
1.31088
1.31074
1.31136
1.31162
1.31071
1.31122
1.3131
1.31175
1.31009
1.31344
1.31529
1.31229
1.31198
1.34073
1.33988
1.33913
1.33836
1.33771
1.33694
1.33614
1.33546
1.33475
1.33399
1.33331
1.33264
1.33196
1.33131
1.33068
1.33007
1.32947
1.3289
1.32834
1.32781
1.3273
1.32681
1.32634
1.32589
1.32546
1.32505
1.32466
1.3243
1.32395
1.32363
1.32332
1.32304
1.32277
1.32253
1.32231
1.3221
1.32192
1.32175
1.32161
1.32148
1.32137
1.32128
1.32121
1.32116
1.32113
1.32111
1.32111
1.32113
1.32117
1.32123
1.32131
1.3214
1.32151
1.32165
1.3218
1.32197
1.32216
1.32237
1.3226
1.32285
1.32312
1.32341
1.32372
1.32405
1.32441
1.32479
1.32519
1.32561
1.32607
1.32654
1.32704
1.32756
1.32811
1.32868
1.32928
1.3299
1.33055
1.33122
1.33192
1.33265
1.33339
1.33417
1.33496
1.33578
1.33662
1.33747
1.33835
1.33924
1.34015
1.34107
1.34201
1.34295
1.34389
1.34485
1.3458
1.34675
1.3477
1.34864
1.34957
1.35049
1.35139
1.35228
1.35314
1.35398
1.3548
1.35558
1.35634
1.35706
1.35774
1.35839
1.359
1.35957
1.3601
1.36059
1.36104
1.36144
1.3618
1.36212
1.36241
1.36265
1.36286
1.36303
1.36318
1.36328
1.36337
1.36342
1.36345
1.36346
1.36345
1.36343
1.36338
1.36332
1.36326
1.36318
1.36309
1.363
1.3629
1.3628
1.3627
1.36259
1.36248
1.36238
1.36227
1.36217
1.36207
1.36197
1.36187
1.36178
1.36169
1.36161
1.36153
1.36145
1.36138
1.36132
1.36126
1.3612
1.36115
1.3611
1.36106
1.36102
1.36098
1.36095
1.36092
1.3609
1.36087
1.36085
1.36083
1.36082
1.3608
1.36078
1.36077
1.36075
1.36074
1.36072
1.3607
1.36069
1.36067
1.36065
1.36063
1.3606
1.36058
1.36055
1.36053
1.3605
1.36047
1.36044
1.36041
1.36038
1.36035
1.36032
1.36029
1.36026
1.36023
1.3602
1.36018
1.36016
1.36014
1.36012
1.36011
1.3601
1.36009
1.36008
1.36008
1.36008
1.36008
1.36008
1.36009
1.3601
1.3601
1.36011
1.36012
1.36013
1.36014
1.36015
1.36016
1.36016
1.36017
1.36018
1.36018
1.36019
1.36019
1.36019
1.3602
1.3602
1.36021
1.36021
1.36022
1.36023
1.36024
1.36025
1.36027
1.36029
1.36031
1.36034
1.36036
1.3604
1.36043
1.36047
1.36051
1.36056
1.36061
1.36066
1.36072
1.36078
1.36084
1.3609
1.36097
1.36104
1.36111
1.36119
1.36126
1.36134
1.36142
1.3615
1.36158
1.36166
1.36175
1.36183
1.36191
1.362
1.36208
1.36216
1.36225
1.36232
1.3624
1.36248
1.36255
1.36261
1.36267
1.36272
1.36277
1.36281
1.36283
1.36284
1.36284
1.36282
1.36278
1.36273
1.36265
1.36255
1.36242
1.36227
1.36209
1.36187
1.36162
1.36134
1.36102
1.36067
1.36027
1.35984
1.35937
1.35886
1.35832
1.35773
1.35711
1.35646
1.35578
1.35506
1.35432
1.35355
1.35275
1.35193
1.3511
1.35025
1.34938
1.34849
1.34761
1.34671
1.3458
1.34489
1.34398
1.34307
1.34216
1.34125
1.34035
1.33945
1.33857
1.33768
1.33681
1.33595
1.3351
1.33426
1.33344
1.33262
1.33183
1.33104
1.33027
1.32951
1.32877
1.32804
1.32732
1.32663
1.32594
1.32527
1.32461
1.32397
1.32334
1.32273
1.32213
1.32154
1.32098
1.32042
1.31989
1.31936
1.31886
1.31837
1.3179
1.31744
1.317
1.31658
1.31617
1.31578
1.31541
1.31506
1.31472
1.3144
1.3141
1.31381
1.31354
1.31328
1.31304
1.31281
1.3126
1.3124
1.31222
1.31204
1.31189
1.31174
1.3116
1.31148
1.31137
1.31126
1.31117
1.31109
1.31102
1.31096
1.31092
1.31088
1.31084
1.31083
1.31085
1.31083
1.31084
1.31094
1.31099
1.31094
1.31113
1.31145
1.31129
1.3113
1.31219
1.31232
1.31154
1.31282
1.31437
1.313
1.31326
1.31586
1.31616
1.31685
1.34169
1.34041
1.33957
1.33872
1.33781
1.33696
1.3362
1.33542
1.33462
1.33388
1.33318
1.33245
1.33176
1.33111
1.33046
1.32983
1.32924
1.32866
1.32811
1.32757
1.32706
1.32657
1.3261
1.32565
1.32523
1.32482
1.32444
1.32408
1.32374
1.32341
1.32311
1.32283
1.32257
1.32233
1.3221
1.3219
1.32172
1.32155
1.32141
1.32128
1.32118
1.32109
1.32102
1.32096
1.32093
1.32091
1.32091
1.32093
1.32097
1.32103
1.3211
1.32119
1.32131
1.32144
1.32159
1.32175
1.32194
1.32215
1.32238
1.32262
1.32289
1.32318
1.32349
1.32382
1.32418
1.32456
1.32496
1.32538
1.32583
1.3263
1.3268
1.32732
1.32787
1.32843
1.32904
1.32966
1.3303
1.33098
1.33168
1.3324
1.33315
1.33392
1.33471
1.33553
1.33637
1.33723
1.33811
1.33901
1.33992
1.34085
1.34179
1.34273
1.34369
1.34465
1.34561
1.34657
1.34753
1.34848
1.34942
1.35035
1.35127
1.35217
1.35305
1.3539
1.35473
1.35553
1.3563
1.35704
1.35774
1.3584
1.35903
1.35961
1.36015
1.36065
1.36111
1.36152
1.3619
1.36223
1.36252
1.36277
1.36298
1.36316
1.3633
1.36342
1.3635
1.36355
1.36359
1.3636
1.36359
1.36357
1.36352
1.36347
1.3634
1.36333
1.36324
1.36315
1.36305
1.36295
1.36285
1.36275
1.36264
1.36254
1.36243
1.36233
1.36224
1.36214
1.36205
1.36196
1.36188
1.3618
1.36172
1.36165
1.36159
1.36152
1.36147
1.36142
1.36137
1.36133
1.36129
1.36126
1.36122
1.3612
1.36117
1.36115
1.36113
1.36111
1.3611
1.36108
1.36107
1.36106
1.36104
1.36103
1.36102
1.361
1.36099
1.36097
1.36095
1.36094
1.36092
1.3609
1.36087
1.36085
1.36083
1.3608
1.36078
1.36075
1.36072
1.3607
1.36067
1.36065
1.36062
1.3606
1.36057
1.36055
1.36053
1.36051
1.36049
1.36048
1.36046
1.36045
1.36044
1.36044
1.36043
1.36043
1.36043
1.36044
1.36044
1.36044
1.36045
1.36045
1.36046
1.36047
1.36047
1.36048
1.36048
1.36048
1.36049
1.36049
1.36049
1.36049
1.36049
1.36049
1.36049
1.36049
1.3605
1.3605
1.3605
1.36051
1.36052
1.36053
1.36054
1.36056
1.36057
1.36059
1.36062
1.36065
1.36068
1.36071
1.36075
1.36079
1.36084
1.36088
1.36093
1.36099
1.36104
1.3611
1.36116
1.36123
1.36129
1.36136
1.36143
1.36151
1.36158
1.36165
1.36173
1.36181
1.36189
1.36197
1.36204
1.36212
1.3622
1.36228
1.36236
1.36244
1.36251
1.36258
1.36265
1.36271
1.36276
1.36281
1.36285
1.36288
1.3629
1.36291
1.3629
1.36288
1.36284
1.36277
1.36269
1.36258
1.36245
1.36228
1.36209
1.36186
1.3616
1.3613
1.36097
1.3606
1.36019
1.35974
1.35925
1.35873
1.35817
1.35757
1.35693
1.35626
1.35557
1.35483
1.35408
1.3533
1.35249
1.35166
1.35082
1.34996
1.34909
1.3482
1.3473
1.3464
1.34549
1.34458
1.34367
1.34275
1.34184
1.34094
1.34004
1.33914
1.33826
1.33738
1.33651
1.33566
1.33481
1.33398
1.33316
1.33235
1.33156
1.33078
1.33002
1.32926
1.32853
1.32781
1.3271
1.32641
1.32573
1.32507
1.32442
1.32379
1.32317
1.32256
1.32197
1.3214
1.32084
1.32029
1.31976
1.31925
1.31875
1.31827
1.31781
1.31736
1.31693
1.31651
1.31612
1.31573
1.31537
1.31502
1.31469
1.31438
1.31408
1.3138
1.31353
1.31328
1.31305
1.31282
1.31262
1.31242
1.31225
1.31208
1.31192
1.31178
1.31165
1.31153
1.31143
1.31133
1.31125
1.31118
1.31112
1.31107
1.31103
1.31101
1.311
1.31098
1.31101
1.31108
1.31108
1.31112
1.31133
1.31144
1.31138
1.31171
1.31223
1.31204
1.3121
1.31342
1.31372
1.31289
1.31441
1.31658
1.31605
1.31611
1.31898
1.32107
1.34245
1.34094
1.33993
1.3389
1.3379
1.33701
1.33616
1.33528
1.33447
1.33372
1.33295
1.33221
1.33152
1.33084
1.33018
1.32956
1.32896
1.32838
1.32782
1.32729
1.32678
1.32629
1.32583
1.32538
1.32496
1.32456
1.32418
1.32382
1.32348
1.32316
1.32287
1.32259
1.32233
1.32209
1.32187
1.32167
1.32149
1.32133
1.32119
1.32106
1.32096
1.32087
1.3208
1.32074
1.32071
1.32069
1.32069
1.32071
1.32075
1.3208
1.32087
1.32096
1.32107
1.3212
1.32135
1.32151
1.3217
1.3219
1.32213
1.32238
1.32264
1.32293
1.32324
1.32357
1.32392
1.32429
1.32469
1.32512
1.32556
1.32603
1.32653
1.32704
1.32759
1.32816
1.32875
1.32937
1.33002
1.33069
1.33139
1.33211
1.33286
1.33363
1.33442
1.33524
1.33608
1.33695
1.33783
1.33873
1.33965
1.34058
1.34152
1.34248
1.34344
1.34441
1.34538
1.34635
1.34732
1.34828
1.34924
1.35018
1.35111
1.35203
1.35292
1.35379
1.35464
1.35546
1.35625
1.357
1.35772
1.35841
1.35905
1.35965
1.36021
1.36072
1.36119
1.36162
1.362
1.36234
1.36263
1.36289
1.36311
1.36329
1.36344
1.36356
1.36365
1.3637
1.36374
1.36376
1.36375
1.36372
1.36368
1.36363
1.36356
1.36349
1.36341
1.36332
1.36322
1.36313
1.36303
1.36293
1.36283
1.36272
1.36262
1.36253
1.36243
1.36234
1.36225
1.36217
1.36209
1.36201
1.36194
1.36188
1.36182
1.36176
1.36171
1.36167
1.36163
1.36159
1.36156
1.36153
1.3615
1.36148
1.36146
1.36144
1.36143
1.36141
1.3614
1.36139
1.36138
1.36137
1.36136
1.36135
1.36134
1.36132
1.36131
1.3613
1.36128
1.36127
1.36125
1.36123
1.36121
1.36119
1.36117
1.36115
1.36113
1.36111
1.36109
1.36107
1.36104
1.36102
1.361
1.36098
1.36096
1.36094
1.36092
1.36091
1.36089
1.36088
1.36087
1.36086
1.36085
1.36084
1.36084
1.36084
1.36083
1.36084
1.36084
1.36084
1.36084
1.36084
1.36084
1.36085
1.36085
1.36085
1.36085
1.36085
1.36084
1.36084
1.36084
1.36084
1.36084
1.36083
1.36083
1.36083
1.36083
1.36083
1.36083
1.36083
1.36084
1.36084
1.36085
1.36086
1.36088
1.36089
1.36091
1.36094
1.36096
1.36099
1.36102
1.36106
1.3611
1.36114
1.36118
1.36123
1.36128
1.36133
1.36139
1.36145
1.36151
1.36157
1.36163
1.3617
1.36177
1.36184
1.36191
1.36198
1.36205
1.36213
1.3622
1.36228
1.36235
1.36242
1.3625
1.36257
1.36264
1.3627
1.36277
1.36283
1.36288
1.36292
1.36296
1.36298
1.363
1.363
1.36298
1.36295
1.36291
1.36284
1.36274
1.36262
1.36248
1.3623
1.3621
1.36186
1.36158
1.36127
1.36092
1.36053
1.3601
1.35963
1.35913
1.35858
1.358
1.35738
1.35673
1.35604
1.35532
1.35457
1.35381
1.35301
1.35219
1.35135
1.3505
1.34963
1.34875
1.34785
1.34695
1.34604
1.34513
1.34422
1.3433
1.34239
1.34148
1.34057
1.33967
1.33877
1.33789
1.33702
1.33615
1.3353
1.33446
1.33363
1.33282
1.33202
1.33124
1.33046
1.32971
1.32897
1.32824
1.32753
1.32684
1.32615
1.32548
1.32483
1.32419
1.32357
1.32296
1.32237
1.32179
1.32122
1.32068
1.32014
1.31962
1.31912
1.31864
1.31816
1.31771
1.31727
1.31685
1.31645
1.31606
1.31569
1.31534
1.315
1.31468
1.31437
1.31408
1.31381
1.31355
1.3133
1.31308
1.31286
1.31266
1.31248
1.3123
1.31214
1.312
1.31186
1.31174
1.31163
1.31153
1.31145
1.31137
1.31131
1.31126
1.31123
1.3112
1.31119
1.31121
1.31123
1.31125
1.31133
1.31146
1.3115
1.3116
1.31192
1.31209
1.31209
1.31262
1.31325
1.31311
1.31354
1.315
1.31533
1.3153
1.31694
1.31855
1.31944
1.32082
1.32246
1.34296
1.3413
1.34014
1.33898
1.33794
1.33697
1.33599
1.33511
1.33428
1.33346
1.33266
1.33193
1.33122
1.33052
1.32986
1.32923
1.32862
1.32804
1.32749
1.32696
1.32645
1.32597
1.32551
1.32507
1.32465
1.32426
1.32388
1.32353
1.3232
1.32289
1.32259
1.32232
1.32207
1.32183
1.32162
1.32142
1.32124
1.32108
1.32094
1.32082
1.32072
1.32063
1.32056
1.3205
1.32047
1.32045
1.32045
1.32047
1.3205
1.32055
1.32062
1.32071
1.32082
1.32094
1.32109
1.32125
1.32144
1.32164
1.32186
1.3221
1.32237
1.32265
1.32296
1.32329
1.32363
1.32401
1.3244
1.32482
1.32526
1.32573
1.32622
1.32673
1.32728
1.32785
1.32843
1.32905
1.3297
1.33036
1.33106
1.33178
1.33252
1.3333
1.33409
1.33491
1.33575
1.33662
1.3375
1.33841
1.33933
1.34027
1.34122
1.34218
1.34315
1.34413
1.34511
1.34609
1.34707
1.34805
1.34902
1.34998
1.35093
1.35186
1.35277
1.35366
1.35453
1.35537
1.35618
1.35695
1.35769
1.3584
1.35906
1.35968
1.36025
1.36079
1.36127
1.36171
1.3621
1.36246
1.36276
1.36303
1.36325
1.36344
1.3636
1.36372
1.36381
1.36387
1.36391
1.36392
1.36392
1.3639
1.36386
1.36381
1.36375
1.36367
1.3636
1.36351
1.36342
1.36332
1.36323
1.36313
1.36303
1.36293
1.36284
1.36275
1.36265
1.36257
1.36248
1.36241
1.36233
1.36226
1.3622
1.36214
1.36208
1.36204
1.36199
1.36195
1.36192
1.36189
1.36186
1.36184
1.36182
1.3618
1.36178
1.36177
1.36176
1.36175
1.36174
1.36174
1.36173
1.36172
1.36171
1.3617
1.36169
1.36168
1.36167
1.36166
1.36165
1.36164