# vtk DataFile Version 2.0
LBE two cylinders
ASCII
DATASET STRUCTURED_POINTS
DIMENSIONS 400 100 1
ASPECT_RATIO 1 1 1
ORIGIN 0 0 0
POINT_DATA 40000
SCALARS rho double 1
LOOKUP_TABLE default
1.33909
1.33638
1.33663
1.33663
1.33569
1.33515
1.3348
1.33411
1.33347
1.33292
1.33231
1.33168
1.33109
1.3305
1.32991
1.32935
1.3288
1.32826
1.32774
1.32724
1.32676
1.32629
1.32585
1.32543
1.32502
1.32463
1.32427
1.32392
1.32359
1.32328
1.32299
1.32272
1.32247
1.32223
1.32201
1.32181
1.32162
1.32146
1.32131
1.32117
1.32106
1.32096
1.32088
1.32081
1.32076
1.32073
1.32072
1.32072
1.32075
1.32079
1.32085
1.32092
1.32102
1.32114
1.32127
1.32143
1.3216
1.32179
1.32201
1.32224
1.3225
1.32278
1.32308
1.3234
1.32374
1.32411
1.3245
1.32492
1.32535
1.32582
1.3263
1.32682
1.32735
1.32791
1.3285
1.32911
1.32975
1.33041
1.3311
1.33181
1.33254
1.3333
1.33409
1.33489
1.33571
1.33656
1.33742
1.3383
1.33919
1.3401
1.34101
1.34194
1.34287
1.3438
1.34474
1.34568
1.34661
1.34754
1.34845
1.34936
1.35025
1.35113
1.35198
1.35281
1.35362
1.35441
1.35516
1.35588
1.35657
1.35722
1.35784
1.35843
1.35897
1.35948
1.35995
1.36039
1.36078
1.36114
1.36147
1.36176
1.36201
1.36224
1.36243
1.3626
1.36274
1.36285
1.36294
1.36301
1.36306
1.3631
1.36311
1.36311
1.3631
1.36308
1.36305
1.36301
1.36296
1.36291
1.36285
1.36279
1.36273
1.36266
1.3626
1.36253
1.36246
1.3624
1.36233
1.36227
1.36221
1.36215
1.36209
1.36204
1.36199
1.36194
1.3619
1.36185
1.36182
1.36178
1.36175
1.36172
1.36169
1.36166
1.36164
1.36162
1.3616
1.36158
1.36157
1.36155
1.36154
1.36153
1.36152
1.36151
1.3615
1.36149
1.36148
1.36147
1.36146
1.36145
1.36145
1.36144
1.36143
1.36142
1.36141
1.36141
1.3614
1.36139
1.36139
1.36138
1.36137
1.36136
1.36136
1.36135
1.36135
1.36134
1.36133
1.36133
1.36132
1.36132
1.36131
1.36131
1.36131
1.3613
1.3613
1.3613
1.3613
1.3613
1.3613
1.3613
1.3613
1.3613
1.3613
1.36131
1.36131
1.36132
1.36132
1.36133
1.36134
1.36135
1.36136
1.36137
1.36138
1.3614
1.36141
1.36143
1.36145
1.36147
1.36148
1.36151
1.36153
1.36155
1.36157
1.3616
1.36162
1.36165
1.36167
1.3617
1.36173
1.36176
1.36179
1.36181
1.36184
1.36187
1.3619
1.36193
1.36196
1.36199
1.36202
1.36204
1.36207
1.3621
1.36212
1.36215
1.36217
1.36219
1.36221
1.36224
1.36226
1.36228
1.36229
1.36231
1.36233
1.36234
1.36235
1.36236
1.36237
1.36237
1.36237
1.36237
1.36236
1.36235
1.36233
1.3623
1.36226
1.36222
1.36216
1.36209
1.362
1.3619
1.36178
1.36164
1.36148
1.3613
1.36109
1.36085
1.36058
1.36029
1.35996
1.35959
1.3592
1.35876
1.3583
1.35779
1.35725
1.35667
1.35606
1.35542
1.35474
1.35403
1.35329
1.35253
1.35174
1.35092
1.35009
1.34924
1.34837
1.34749
1.3466
1.3457
1.34479
1.34388
1.34297
1.34206
1.34115
1.34024
1.33934
1.33844
1.33755
1.33667
1.3358
1.33494
1.33409
1.33325
1.33243
1.33162
1.33082
1.33004
1.32927
1.32852
1.32779
1.32707
1.32636
1.32567
1.325
1.32434
1.3237
1.32308
1.32247
1.32188
1.32131
1.32075
1.32021
1.31968
1.31918
1.31869
1.31821
1.31775
1.31731
1.31688
1.31647
1.31607
1.31569
1.31532
1.31497
1.31463
1.3143
1.31399
1.31369
1.31341
1.31313
1.31287
1.31263
1.31239
1.31216
1.31195
1.31175
1.31155
1.31137
1.3112
1.31104
1.31089
1.31075
1.31062
1.31049
1.31038
1.31028
1.31019
1.3101
1.31003
1.30997
1.30991
1.30988
1.30985
1.30981
1.30981
1.30986
1.30985
1.30977
1.30995
1.31014
1.30983
1.30974
1.31071
1.31063
1.3086
1.30959
1.31352
1.30893
1.30021
1.31078
1.31987
1.33724
1.33735
1.33685
1.33617
1.33584
1.33534
1.33473
1.33414
1.33358
1.33296
1.33234
1.33174
1.33114
1.33054
1.32996
1.32939
1.32884
1.3283
1.32778
1.32728
1.32679
1.32633
1.32588
1.32546
1.32505
1.32467
1.3243
1.32395
1.32362
1.32331
1.32302
1.32275
1.32249
1.32225
1.32203
1.32183
1.32165
1.32148
1.32133
1.32119
1.32108
1.32098
1.3209
1.32083
1.32078
1.32075
1.32074
1.32074
1.32076
1.3208
1.32086
1.32094
1.32104
1.32115
1.32128
1.32144
1.32161
1.32181
1.32202
1.32225
1.32251
1.32279
1.32308
1.32341
1.32375
1.32411
1.3245
1.32492
1.32535
1.32581
1.3263
1.32681
1.32734
1.3279
1.32848
1.32909
1.32973
1.33039
1.33107
1.33178
1.33252
1.33327
1.33405
1.33485
1.33567
1.33652
1.33737
1.33825
1.33914
1.34004
1.34096
1.34188
1.34281
1.34374
1.34468
1.34561
1.34654
1.34747
1.34839
1.34929
1.35018
1.35106
1.35191
1.35275
1.35356
1.35434
1.35509
1.35582
1.35651
1.35717
1.35779
1.35837
1.35892
1.35944
1.35991
1.36035
1.36075
1.36111
1.36144
1.36173
1.36199
1.36222
1.36242
1.36259
1.36273
1.36284
1.36294
1.36301
1.36306
1.3631
1.36312
1.36312
1.36311
1.36309
1.36306
1.36302
1.36298
1.36293
1.36287
1.36281
1.36275
1.36269
1.36262
1.36255
1.36249
1.36242
1.36236
1.3623
1.36223
1.36218
1.36212
1.36207
1.36202
1.36197
1.36193
1.36188
1.36185
1.36181
1.36178
1.36175
1.36172
1.36169
1.36167
1.36165
1.36163
1.36162
1.3616
1.36159
1.36157
1.36156
1.36155
1.36154
1.36153
1.36152
1.36151
1.36151
1.3615
1.36149
1.36148
1.36147
1.36147
1.36146
1.36145
1.36144
1.36144
1.36143
1.36142
1.36142
1.36141
1.3614
1.36139
1.36139
1.36138
1.36138
1.36137
1.36137
1.36136
1.36136
1.36135
1.36135
1.36134
1.36134
1.36134
1.36133
1.36133
1.36133
1.36133
1.36133
1.36133
1.36133
1.36133
1.36134
1.36134
1.36135
1.36135
1.36136
1.36137
1.36138
1.36139
1.3614
1.36141
1.36142
1.36144
1.36145
1.36147
1.36149
1.36151
1.36153
1.36155
1.36157
1.36159
1.36162
1.36164
1.36166
1.36169
1.36172
1.36174
1.36177
1.3618
1.36183
1.36185
1.36188
1.36191
1.36194
1.36197
1.36199
1.36202
1.36205
1.36207
1.3621
1.36212
1.36215
1.36217
1.36219
1.36221
1.36223
1.36225
1.36227
1.36228
1.3623
1.36231
1.36232
1.36233
1.36234
1.36234
1.36235
1.36235
1.36234
1.36233
1.36231
1.36229
1.36226
1.36222
1.36217
1.36211
1.36203
1.36194
1.36184
1.36172
1.36157
1.36141
1.36122
1.36101
1.36077
1.36051
1.36021
1.35988
1.35952
1.35912
1.35869
1.35822
1.35772
1.35718
1.35661
1.356
1.35536
1.35468
1.35398
1.35324
1.35248
1.3517
1.35089
1.35006
1.34921
1.34835
1.34747
1.34659
1.34569
1.34479
1.34388
1.34298
1.34207
1.34116
1.34026
1.33936
1.33846
1.33758
1.3367
1.33583
1.33497
1.33413
1.33329
1.33247
1.33166
1.33086
1.33008
1.32932
1.32857
1.32783
1.32711
1.3264
1.32571
1.32504
1.32439
1.32374
1.32312
1.32251
1.32192
1.32135
1.32079
1.32025
1.31972
1.31921
1.31872
1.31824
1.31778
1.31734
1.31691
1.31649
1.3161
1.31571
1.31534
1.31499
1.31465
1.31432
1.31401
1.31371
1.31342
1.31314
1.31288
1.31263
1.31239
1.31216
1.31195
1.31174
1.31155
1.31136
1.31119
1.31103
1.31087
1.31073
1.31059
1.31047
1.31035
1.31025
1.31015
1.31006
1.30998
1.30992
1.30986
1.3098
1.30977
1.30975
1.30971
1.30968
1.30973
1.30976
1.30966
1.30968
1.30997
1.30982
1.30935
1.3098
1.31051
1.30882
1.30736
1.31005
1.30952
1.29965
1.29419
1.33657
1.33752
1.33679
1.33607
1.33602
1.33544
1.33472
1.33422
1.33365
1.33298
1.33237
1.33178
1.33116
1.33056
1.32998
1.32941
1.32885
1.32831
1.32779
1.32729
1.3268
1.32634
1.32589
1.32546
1.32506
1.32467
1.3243
1.32395
1.32362
1.32331
1.32302
1.32275
1.32249
1.32225
1.32203
1.32183
1.32164
1.32148
1.32132
1.32119
1.32107
1.32097
1.32089
1.32082
1.32078
1.32075
1.32073
1.32074
1.32076
1.3208
1.32085
1.32093
1.32103
1.32114
1.32127
1.32143
1.3216
1.32179
1.322
1.32224
1.32249
1.32276
1.32306
1.32338
1.32372
1.32409
1.32447
1.32488
1.32532
1.32578
1.32626
1.32676
1.3273
1.32785
1.32843
1.32904
1.32967
1.33033
1.33101
1.33172
1.33245
1.33321
1.33398
1.33478
1.3356
1.33644
1.3373
1.33818
1.33906
1.33997
1.34088
1.34181
1.34273
1.34367
1.3446
1.34554
1.34647
1.3474
1.34832
1.34923
1.35012
1.351
1.35186
1.35269
1.35351
1.35429
1.35505
1.35578
1.35647
1.35714
1.35776
1.35836
1.35891
1.35942
1.3599
1.36034
1.36075
1.36112
1.36145
1.36174
1.362
1.36224
1.36244
1.36261
1.36275
1.36287
1.36297
1.36304
1.36309
1.36313
1.36315
1.36316
1.36315
1.36313
1.3631
1.36307
1.36302
1.36297
1.36292
1.36286
1.3628
1.36273
1.36267
1.3626
1.36254
1.36247
1.36241
1.36235
1.36229
1.36223
1.36218
1.36213
1.36208
1.36203
1.36199
1.36195
1.36191
1.36187
1.36184
1.36181
1.36178
1.36176
1.36174
1.36172
1.3617
1.36168
1.36167
1.36166
1.36164
1.36163
1.36162
1.36161
1.3616
1.3616
1.36159
1.36158
1.36157
1.36156
1.36156
1.36155
1.36154
1.36154
1.36153
1.36152
1.36151
1.36151
1.3615
1.3615
1.36149
1.36148
1.36148
1.36147
1.36146
1.36146
1.36145
1.36145
1.36144
1.36144
1.36143
1.36143
1.36142
1.36142
1.36142
1.36141
1.36141
1.36141
1.36141
1.36141
1.36141
1.36141
1.36141
1.36142
1.36142
1.36142
1.36143
1.36144
1.36144
1.36145
1.36146
1.36147
1.36148
1.36149
1.36151
1.36152
1.36154
1.36155
1.36157
1.36159
1.36161
1.36163
1.36165
1.36167
1.3617
1.36172
1.36174
1.36177
1.36179
1.36182
1.36185
1.36187
1.3619
1.36193
1.36195
1.36198
1.36201
1.36203
1.36206
1.36208
1.36211
1.36213
1.36215
1.36218
1.3622
1.36222
1.36223
1.36225
1.36227
1.36228
1.3623
1.36231
1.36232
1.36233
1.36234
1.36234
1.36234
1.36234
1.36234
1.36233
1.36232
1.3623
1.36227
1.36223
1.36219
1.36214
1.36207
1.362
1.36191
1.3618
1.36167
1.36153
1.36136
1.36118
1.36096
1.36072
1.36045
1.36015
1.35982
1.35946
1.35906
1.35863
1.35817
1.35766
1.35713
1.35655
1.35595
1.35531
1.35463
1.35393
1.3532
1.35244
1.35165
1.35085
1.35002
1.34918
1.34832
1.34744
1.34656
1.34566
1.34477
1.34386
1.34296
1.34205
1.34115
1.34024
1.33935
1.33846
1.33757
1.3367
1.33583
1.33497
1.33413
1.3333
1.33247
1.33167
1.33087
1.33009
1.32933
1.32858
1.32784
1.32712
1.32642
1.32573
1.32506
1.3244
1.32376
1.32314
1.32253
1.32194
1.32136
1.32081
1.32026
1.31974
1.31923
1.31874
1.31826
1.3178
1.31735
1.31692
1.3165
1.3161
1.31572
1.31535
1.31499
1.31465
1.31432
1.31401
1.3137
1.31342
1.31314
1.31288
1.31262
1.31238
1.31215
1.31194
1.31173
1.31153
1.31135
1.31117
1.311
1.31085
1.3107
1.31056
1.31044
1.31032
1.31021
1.31011
1.31002
1.30993
1.30986
1.3098
1.30974
1.30967
1.30966
1.30965
1.30957
1.30955
1.30968
1.30962
1.30935
1.30962
1.31004
1.3092
1.30864
1.31052
1.31021
1.30544
1.30746
1.31433
1.30196
1.2898
1.33698
1.33703
1.33688
1.3366
1.33606
1.33539
1.3349
1.33431
1.33364
1.33302
1.33242
1.33178
1.33116
1.33057
1.32998
1.3294
1.32884
1.3283
1.32777
1.32727
1.32678
1.32631
1.32586
1.32544
1.32503
1.32464
1.32427
1.32392
1.32359
1.32328
1.32299
1.32271
1.32246
1.32222
1.322
1.3218
1.32161
1.32145
1.32129
1.32116
1.32104
1.32094
1.32086
1.32079
1.32074
1.32071
1.3207
1.3207
1.32072
1.32076
1.32082
1.3209
1.32099
1.3211
1.32123
1.32139
1.32156
1.32175
1.32196
1.32219
1.32244
1.32271
1.32301
1.32332
1.32366
1.32403
1.32441
1.32482
1.32525
1.3257
1.32618
1.32669
1.32722
1.32777
1.32835
1.32895
1.32958
1.33024
1.33092
1.33162
1.33235
1.3331
1.33388
1.33468
1.3355
1.33634
1.33719
1.33807
1.33896
1.33986
1.34078
1.3417
1.34264
1.34357
1.34451
1.34545
1.34639
1.34732
1.34824
1.34916
1.35006
1.35094
1.3518
1.35265
1.35347
1.35426
1.35502
1.35576
1.35646
1.35713
1.35776
1.35836
1.35892
1.35944
1.35993
1.36037
1.36078
1.36115
1.36149
1.36179
1.36205
1.36229
1.36249
1.36266
1.36281
1.36293
1.36303
1.3631
1.36315
1.36319
1.36321
1.36322
1.36321
1.3632
1.36317
1.36313
1.36309
1.36304
1.36299
1.36293
1.36287
1.36281
1.36274
1.36268
1.36262
1.36255
1.36249
1.36243
1.36237
1.36232
1.36226
1.36221
1.36216
1.36212
1.36208
1.36204
1.362
1.36197
1.36194
1.36191
1.36188
1.36186
1.36184
1.36182
1.3618
1.36179
1.36177
1.36176
1.36175
1.36174
1.36173
1.36172
1.36171
1.36171
1.3617
1.36169
1.36169
1.36168
1.36167
1.36167
1.36166
1.36166
1.36165
1.36164
1.36164
1.36163
1.36162
1.36162
1.36161
1.36161
1.3616
1.36159
1.36159
1.36158
1.36158
1.36157
1.36157
1.36156
1.36156
1.36155
1.36155
1.36155
1.36154
1.36154
1.36154
1.36154
1.36153
1.36153
1.36153
1.36153
1.36153
1.36154
1.36154
1.36154
1.36155
1.36155
1.36156
1.36157
1.36157
1.36158
1.36159
1.36161
1.36162
1.36163
1.36164
1.36166
1.36168
1.36169
1.36171
1.36173
1.36175
1.36177
1.36179
1.36181
1.36184
1.36186
1.36188
1.36191
1.36193
1.36196
1.36198
1.36201
1.36203
1.36206
1.36208
1.36211
1.36213
1.36215
1.36217
1.3622
1.36222
1.36224
1.36225
1.36227
1.36229
1.3623
1.36231
1.36233
1.36234
1.36235
1.36236
1.36236
1.36237
1.36237
1.36237
1.36236
1.36235
1.36234
1.36233
1.3623
1.36227
1.36224
1.36219
1.36214
1.36207
1.36199
1.36189
1.36178
1.36166
1.36151
1.36134
1.36115
1.36093
1.36069
1.36042
1.36012
1.35978
1.35942
1.35902
1.35858
1.35812
1.35761
1.35707
1.3565
1.35589
1.35524
1.35457
1.35386
1.35313
1.35237
1.35158
1.35078
1.34995
1.3491
1.34825
1.34737
1.34649
1.3456
1.3447
1.3438
1.34289
1.34199
1.34108
1.34018
1.33929
1.3384
1.33752
1.33665
1.33578
1.33493
1.33409
1.33325
1.33244
1.33163
1.33084
1.33006
1.3293
1.32855
1.32782
1.3271
1.3264
1.32571
1.32504
1.32439
1.32375
1.32313
1.32252
1.32193
1.32136
1.3208
1.32026
1.31973
1.31923
1.31873
1.31826
1.31779
1.31735
1.31692
1.3165
1.3161
1.31572
1.31534
1.31499
1.31464
1.31432
1.314
1.3137
1.31341
1.31313
1.31286
1.31261
1.31237
1.31214
1.31192
1.31171
1.31151
1.31133
1.31115
1.31098
1.31082
1.31068
1.31054
1.31041
1.31029
1.31018
1.31007
1.30998
1.3099
1.30981
1.30974
1.3097
1.30965
1.30957
1.30956
1.3096
1.30951
1.30941
1.30961
1.30971
1.30923
1.30927
1.31019
1.3096
1.30793
1.3096
1.31129
1.30657
1.30454
1.30993
1.31058
1.33774
1.33741
1.33723
1.33684
1.3361
1.33553
1.33505
1.33432
1.33366
1.33307
1.33241
1.33176
1.33115
1.33054
1.32993
1.32935
1.32879
1.32824
1.32771
1.32721
1.32672
1.32625
1.3258
1.32537
1.32496
1.32457
1.3242
1.32386
1.32353
1.32322
1.32292
1.32265
1.3224
1.32216
1.32194
1.32174
1.32155
1.32139
1.32123
1.3211
1.32098
1.32088
1.3208
1.32074
1.32069
1.32066
1.32064
1.32064
1.32066
1.3207
1.32076
1.32083
1.32093
1.32104
1.32117
1.32132
1.32149
1.32168
1.32188
1.32211
1.32236
1.32263
1.32292
1.32324
1.32357
1.32393
1.32431
1.32472
1.32514
1.32559
1.32607
1.32657
1.3271
1.32765
1.32822
1.32883
1.32945
1.33011
1.33078
1.33149
1.33221
1.33296
1.33374
1.33454
1.33536
1.3362
1.33705
1.33793
1.33882
1.33973
1.34065
1.34158
1.34251
1.34346
1.3444
1.34535
1.34629
1.34723
1.34816
1.34908
1.34998
1.35088
1.35175
1.3526
1.35343
1.35423
1.35501
1.35575
1.35646
1.35714
1.35778
1.35839
1.35895
1.35948
1.35997
1.36043
1.36084
1.36121
1.36155
1.36186
1.36213
1.36236
1.36257
1.36274
1.36289
1.36301
1.36311
1.36319
1.36324
1.36328
1.3633
1.36331
1.3633
1.36329
1.36326
1.36323
1.36318
1.36314
1.36308
1.36303
1.36297
1.36291
1.36284
1.36278
1.36272
1.36266
1.3626
1.36254
1.36248
1.36243
1.36238
1.36233
1.36228
1.36224
1.3622
1.36216
1.36212
1.36209
1.36206
1.36204
1.36201
1.36199
1.36197
1.36195
1.36194
1.36192
1.36191
1.3619
1.36189
1.36188
1.36187
1.36187
1.36186
1.36186
1.36185
1.36184
1.36184
1.36183
1.36183
1.36182
1.36182
1.36181
1.36181
1.3618
1.3618
1.36179
1.36179
1.36178
1.36178
1.36177
1.36177
1.36176
1.36176
1.36175
1.36174
1.36174
1.36174
1.36173
1.36173
1.36172
1.36172
1.36171
1.36171
1.36171
1.3617
1.3617
1.3617
1.3617
1.3617
1.3617
1.3617
1.3617
1.3617
1.36171
1.36171
1.36171
1.36172
1.36172
1.36173
1.36174
1.36175
1.36176
1.36177
1.36178
1.36179
1.36181
1.36182
1.36183
1.36185
1.36187
1.36189
1.36191
1.36192
1.36195
1.36197
1.36199
1.36201
1.36203
1.36205
1.36208
1.3621
1.36212
1.36215
1.36217
1.36219
1.36221
1.36223
1.36225
1.36227
1.36229
1.36231
1.36232
1.36234
1.36235
1.36237
1.36238
1.36239
1.3624
1.36241
1.36241
1.36242
1.36242
1.36242
1.36242
1.36242
1.36241
1.3624
1.36238
1.36236
1.36234
1.36231
1.36226
1.36221
1.36216
1.36209
1.362
1.3619
1.36179
1.36166
1.36151
1.36134
1.36114
1.36092
1.36067
1.36039
1.36009
1.35975
1.35938
1.35897
1.35853
1.35806
1.35755
1.357
1.35642
1.3558
1.35515
1.35447
1.35376
1.35302
1.35226
1.35147
1.35066
1.34983
1.34898
1.34812
1.34725
1.34636
1.34547
1.34457
1.34367
1.34277
1.34186
1.34096
1.34006
1.33917
1.33828
1.3374
1.33653
1.33567
1.33482
1.33399
1.33316
1.33234
1.33154
1.33076
1.32998
1.32923
1.32848
1.32775
1.32704
1.32634
1.32566
1.325
1.32435
1.32371
1.32309
1.32249
1.3219
1.32133
1.32078
1.32024
1.31971
1.31921
1.31872
1.31824
1.31778
1.31734
1.31691
1.31649
1.31609
1.31571
1.31534
1.31498
1.31464
1.31431
1.31399
1.31369
1.3134
1.31312
1.31286
1.31261
1.31236
1.31213
1.31191
1.31171
1.31151
1.31132
1.31114
1.31098
1.31082
1.31067
1.31053
1.3104
1.31028
1.31017
1.31007
1.30997
1.30989
1.30982
1.30975
1.30969
1.30967
1.30962
1.30955
1.30958
1.30965
1.30952
1.30945
1.30981
1.30981
1.30921
1.30971
1.31074
1.30924
1.30832
1.31174
1.31108
1.30615
1.30951
1.31207
1.33861
1.33816
1.3376
1.33693
1.33637
1.33578
1.33505
1.33434
1.33373
1.33305
1.33236
1.33173
1.33109
1.33046
1.32985
1.32927
1.3287
1.32814
1.32761
1.3271
1.32661
1.32614
1.32569
1.32527
1.32486
1.32447
1.3241
1.32375
1.32343
1.32312
1.32283
1.32255
1.3223
1.32207
1.32185
1.32165
1.32146
1.3213
1.32115
1.32101
1.3209
1.3208
1.32072
1.32065
1.3206
1.32057
1.32056
1.32056
1.32058
1.32062
1.32067
1.32075
1.32084
1.32095
1.32108
1.32122
1.32139
1.32158
1.32178
1.32201
1.32225
1.32252
1.32281
1.32312
1.32345
1.32381
1.32418
1.32458
1.32501
1.32545
1.32593
1.32642
1.32694
1.32749
1.32806
1.32866
1.32929
1.32993
1.33061
1.33131
1.33203
1.33278
1.33356
1.33436
1.33518
1.33602
1.33688
1.33776
1.33865
1.33956
1.34048
1.34142
1.34236
1.34331
1.34426
1.34521
1.34616
1.34711
1.34805
1.34898
1.3499
1.3508
1.35169
1.35255
1.35339
1.3542
1.35499
1.35575
1.35647
1.35716
1.35781
1.35842
1.359
1.35954
1.36004
1.3605
1.36092
1.3613
1.36164
1.36195
1.36222
1.36246
1.36267
1.36285
1.363
1.36312
1.36322
1.3633
1.36335
1.36339
1.36341
1.36342
1.36342
1.3634
1.36337
1.36334
1.3633
1.36325
1.3632
1.36315
1.36309
1.36303
1.36297
1.36291
1.36285
1.36279
1.36273
1.36267
1.36262
1.36257
1.36252
1.36247
1.36242
1.36238
1.36234
1.36231
1.36228
1.36225
1.36222
1.36219
1.36217
1.36215
1.36213
1.36212
1.3621
1.36209
1.36208
1.36207
1.36207
1.36206
1.36205
1.36205
1.36204
1.36204
1.36203
1.36203
1.36203
1.36202
1.36202
1.36202
1.36201
1.36201
1.36201
1.362
1.362
1.36199
1.36199
1.36199
1.36198
1.36198
1.36197
1.36197
1.36196
1.36196
1.36195
1.36195
1.36194
1.36194
1.36194
1.36193
1.36193
1.36193
1.36192
1.36192
1.36191
1.36191
1.36191
1.36191
1.36191
1.36191
1.36191
1.36191
1.36191
1.36191
1.36191
1.36191
1.36192
1.36192
1.36193
1.36193
1.36194
1.36195
1.36196
1.36197
1.36198
1.36199
1.362
1.36201
1.36203
1.36204
1.36206
1.36208
1.36209
1.36211
1.36213
1.36215
1.36217
1.36219
1.36221
1.36223
1.36225
1.36227
1.36229
1.36231
1.36233
1.36235
1.36236
1.36238
1.3624
1.36241
1.36243
1.36244
1.36245
1.36246
1.36247
1.36248
1.36249
1.3625
1.3625
1.3625
1.36251
1.36251
1.3625
1.3625
1.36249
1.36248
1.36247
1.36245
1.36242
1.3624
1.36236
1.36232
1.36226
1.3622
1.36213
1.36204
1.36194
1.36182
1.36168
1.36153
1.36135
1.36114
1.36092
1.36066
1.36038
1.36006
1.35972
1.35934
1.35892
1.35847
1.35798
1.35746
1.3569
1.35631
1.35569
1.35503
1.35434
1.35362
1.35287
1.3521
1.35131
1.35049
1.34965
1.3488
1.34794
1.34706
1.34617
1.34527
1.34438
1.34347
1.34257
1.34167
1.34077
1.33987
1.33898
1.3381
1.33722
1.33635
1.3355
1.33465
1.33382
1.333
1.33219
1.3314
1.33062
1.32985
1.3291
1.32836
1.32764
1.32693
1.32625
1.32557
1.32491
1.32427
1.32364
1.32302
1.32243
1.32185
1.32128
1.32073
1.3202
1.31968
1.31918
1.31869
1.31822
1.31776
1.31732
1.31689
1.31648
1.31608
1.3157
1.31533
1.31498
1.31464
1.31431
1.31399
1.31369
1.3134
1.31313
1.31286
1.31261
1.31237
1.31214
1.31192
1.31172
1.31152
1.31134
1.31116
1.31099
1.31084
1.31069
1.31056
1.31043
1.31031
1.3102
1.31011
1.31002
1.30993
1.30987
1.30982
1.30976
1.30971
1.30973
1.30973
1.30963
1.3097
1.30991
1.30976
1.3096
1.31021
1.31046
1.30953
1.31003
1.31189
1.31053
1.30886
1.31219
1.31403
1.31105
1.31074
1.33962
1.33879
1.33804
1.33728
1.33663
1.33587
1.33508
1.33442
1.33372
1.33297
1.3323
1.33165
1.33098
1.33034
1.32974
1.32914
1.32856
1.328
1.32747
1.32696
1.32647
1.326
1.32555
1.32512
1.32471
1.32433
1.32396
1.32362
1.32329
1.32298
1.3227
1.32243
1.32217
1.32194
1.32173
1.32153
1.32135
1.32118
1.32103
1.3209
1.32079
1.32069
1.32061
1.32054
1.3205
1.32046
1.32045
1.32045
1.32047
1.32051
1.32056
1.32064
1.32073
1.32083
1.32096
1.32111
1.32127
1.32145
1.32166
1.32188
1.32212
1.32238
1.32267
1.32297
1.3233
1.32365
1.32402
1.32442
1.32484
1.32528
1.32575
1.32624
1.32676
1.3273
1.32787
1.32846
1.32908
1.32973
1.3304
1.3311
1.33182
1.33257
1.33334
1.33414
1.33496
1.3358
1.33666
1.33755
1.33844
1.33936
1.34029
1.34123
1.34218
1.34313
1.34409
1.34505
1.34601
1.34697
1.34792
1.34886
1.3498
1.35071
1.35161
1.35249
1.35334
1.35417
1.35497
1.35574
1.35647
1.35718
1.35784
1.35847
1.35906
1.35961
1.36012
1.36058
1.36101
1.3614
1.36175
1.36206
1.36234
1.36258
1.36279
1.36297
1.36312
1.36325
1.36335
1.36343
1.36348
1.36352
1.36354
1.36355
1.36355
1.36353
1.36351
1.36348
1.36343
1.36339
1.36334
1.36329
1.36323
1.36317
1.36311
1.36306
1.363
1.36294
1.36288
1.36283
1.36278
1.36273
1.36268
1.36264
1.36259
1.36256
1.36252
1.36249
1.36246
1.36243
1.3624
1.36238
1.36236
1.36234
1.36233
1.36232
1.3623
1.36229
1.36229
1.36228
1.36227
1.36227
1.36226
1.36226
1.36226
1.36226
1.36225
1.36225
1.36225
1.36225
1.36225
1.36225
1.36224
1.36224
1.36224
1.36224
1.36223
1.36223
1.36223
1.36223
1.36222
1.36222
1.36222
1.36221
1.36221
1.36221
1.3622
1.3622
1.36219
1.36219
1.36219
1.36218
1.36218
1.36217
1.36217
1.36217
1.36216
1.36216
1.36216
1.36216
1.36215
1.36215
1.36215
1.36215
1.36215
1.36215
1.36215
1.36215
1.36215
1.36216
1.36216
1.36217
1.36217
1.36218
1.36218
1.36219
1.3622
1.36221
1.36222
1.36223
1.36224
1.36225
1.36227
1.36228
1.36229
1.36231
1.36233
1.36234
1.36236
1.36238
1.36239
1.36241
1.36243
1.36244
1.36246
1.36248
1.36249
1.36251
1.36252
1.36254
1.36255
1.36256
1.36257
1.36258
1.36259
1.3626
1.3626
1.36261
1.36261
1.36262
1.36262
1.36262
1.36262
1.36261
1.36261
1.3626
1.36259
1.36258
1.36256
1.36254
1.36251
1.36248
1.36244
1.36239
1.36233
1.36227
1.36219
1.3621
1.36199
1.36186
1.36172
1.36156
1.36137
1.36116
1.36093
1.36066
1.36037
1.36004
1.35968
1.35929
1.35886
1.3584
1.3579
1.35736
1.35679
1.35618
1.35554
1.35487
1.35417
1.35344
1.35268
1.3519
1.35109
1.35026
1.34942
1.34856
1.34769
1.34681
1.34592
1.34502
1.34412
1.34321
1.34231
1.3414
1.3405
1.33961
1.33872
1.33784
1.33697
1.3361
1.33525
1.33441
1.33359
1.33277
1.33197
1.33118
1.33042
1.32966
1.32891
1.32819
1.32748
1.32678
1.3261
1.32543
1.32478
1.32415
1.32353
1.32293
1.32234
1.32177
1.32121
1.32067
1.32014
1.31963
1.31913
1.31865
1.31819
1.31774
1.3173
1.31688
1.31647
1.31608
1.3157
1.31533
1.31498
1.31464
1.31432
1.31401
1.31371
1.31343
1.31315
1.31289
1.31264
1.3124
1.31218
1.31196
1.31176
1.31156
1.31138
1.31121
1.31105
1.3109
1.31075
1.31062
1.3105
1.31039
1.31029
1.31019
1.31012
1.31005
1.30998
1.30995
1.30993
1.30989
1.30987
1.30995
1.30997
1.3099
1.31007
1.31036
1.31019
1.31018
1.31105
1.31117
1.31037
1.31163
1.31316
1.31179
1.31204
1.31462
1.31491
1.31559
1.3406
1.33934
1.3385
1.33766
1.33677
1.33593
1.33518
1.33441
1.33362
1.3329
1.33221
1.3315
1.33082
1.33019
1.32956
1.32895
1.32837
1.32782
1.32728
1.32677
1.32628
1.32581
1.32536
1.32494
1.32453
1.32415
1.32379
1.32344
1.32312
1.32282
1.32253
1.32227
1.32202
1.32179
1.32158
1.32138
1.3212
1.32104
1.32089
1.32076
1.32065
1.32056
1.32048
1.32041
1.32037
1.32033
1.32032
1.32032
1.32034
1.32038
1.32043
1.3205
1.32059
1.3207
1.32082
1.32096
1.32112
1.32131
1.3215
1.32172
1.32196
1.32222
1.3225
1.3228
1.32313
1.32347
1.32384
1.32423
1.32464
1.32508
1.32554
1.32603
1.32654
1.32707
1.32764
1.32823
1.32884
1.32948
1.33015
1.33084
1.33157
1.33232
1.33309
1.33388
1.3347
1.33555
1.33641
1.3373
1.3382
1.33912
1.34005
1.341
1.34196
1.34292
1.34389
1.34486
1.34583
1.3468
1.34777
1.34872
1.34967
1.3506
1.35151
1.3524
1.35327
1.35412
1.35494
1.35572
1.35648
1.35719
1.35787
1.35852
1.35912
1.35968
1.3602
1.36068
1.36112
1.36151
1.36187
1.36219
1.36247
1.36272
1.36293
1.36311
1.36326
1.36339
1.36349
1.36357
1.36363
1.36367
1.36369
1.3637
1.3637
1.36368
1.36366
1.36363
1.36359
1.36354
1.36349
1.36344
1.36339
1.36333
1.36328
1.36322
1.36317
1.36311
1.36306
1.36301
1.36296
1.36291
1.36287
1.36283
1.36279
1.36275
1.36272
1.36269
1.36266
1.36264
1.36261
1.36259
1.36258
1.36256
1.36255
1.36254
1.36253
1.36252
1.36252
1.36251
1.36251
1.36251
1.3625
1.3625
1.3625
1.3625
1.3625
1.36251
1.3625
1.36251
1.36251
1.36251
1.36251
1.36251
1.36251
1.36251
1.36251
1.36251
1.3625
1.3625
1.3625
1.3625
1.36249
1.36249
1.36249
1.36249
1.36248
1.36248
1.36248
1.36247
1.36247
1.36247
1.36246
1.36246
1.36246
1.36245
1.36245
1.36245
1.36244
1.36244
1.36244
1.36243
1.36243
1.36243
1.36243
1.36243
1.36243
1.36243
1.36243
1.36243
1.36243
1.36243
1.36244
1.36244
1.36244
1.36245
1.36245
1.36246
1.36247
1.36248
1.36249
1.3625
1.36251
1.36252
1.36253
1.36254
1.36255
1.36257
1.36258
1.36259
1.36261
1.36262
1.36263
1.36265
1.36266
1.36267
1.36268
1.3627
1.36271
1.36272
1.36273
1.36273
1.36274
1.36275
1.36275
1.36275
1.36276
1.36276
1.36276
1.36276
1.36276
1.36275
1.36275
1.36274
1.36273
1.36272
1.36271
1.36269
1.36267
1.36265
1.36262
1.36258
1.36254
1.36249
1.36242
1.36235
1.36227
1.36217
1.36206
1.36193
1.36178
1.36161
1.36141
1.36119
1.36095
1.36067
1.36036
1.36002
1.35965
1.35924
1.35879
1.35831
1.35779
1.35724
1.35665
1.35603
1.35537
1.35468
1.35396
1.35322
1.35244
1.35165
1.35083
1.34999
1.34914
1.34827
1.34739
1.3465
1.34561
1.3447
1.3438
1.34289
1.34198
1.34108
1.34018
1.33928
1.3384
1.33752
1.33665
1.33579
1.33494
1.33411
1.33329
1.33248
1.3317
1.33092
1.33015
1.32941
1.32868
1.32796
1.32726
1.32658
1.32591
1.32525
1.32462
1.32399
1.32339
1.3228
1.32222
1.32166
1.32111
1.32058
1.32007
1.31956
1.31908
1.31861
1.31815
1.31771
1.31728
1.31686
1.31646
1.31608
1.3157
1.31535
1.315
1.31467
1.31435
1.31404
1.31375
1.31347
1.3132
1.31294
1.3127
1.31246
1.31224
1.31203
1.31183
1.31164
1.31146
1.3113
1.31114
1.31099
1.31086
1.31073
1.31062
1.31051
1.31043
1.31034
1.31027
1.31022
1.31018
1.31014
1.31014
1.31017
1.31015
1.31017
1.31035
1.31044
1.31035
1.31066
1.31116
1.31095
1.31099
1.31229
1.31258
1.31172
1.31322
1.31537
1.31483
1.31487
1.31771
1.31978
1.34138
1.33989
1.33889
1.33788
1.33689
1.33601
1.33517
1.33431
1.33351
1.33278
1.33203
1.3313
1.33063
1.32997
1.32933
1.32873
1.32815
1.32758
1.32705
1.32654
1.32605
1.32558
1.32514
1.32471
1.32431
1.32394
1.32358
1.32324
1.32292
1.32262
1.32234
1.32208
1.32184
1.32161
1.3214
1.32121
1.32103
1.32087
1.32073
1.32061
1.3205
1.3204
1.32032
1.32026
1.32021
1.32018
1.32017
1.32017
1.32019
1.32023
1.32028
1.32035
1.32044
1.32054
1.32066
1.3208
1.32096
1.32114
1.32133
1.32155
1.32178
1.32204
1.32231
1.32261
1.32292
1.32326
1.32362
1.32401
1.32441
1.32484
1.3253
1.32578
1.32628
1.32682
1.32738
1.32796
1.32857
1.32921
1.32987
1.33056
1.33128
1.33202
1.33279
1.33359
1.33441
1.33525
1.33612
1.33701
1.33792
1.33884
1.33978
1.34073
1.3417
1.34267
1.34365
1.34464
1.34562
1.3466
1.34758
1.34855
1.34951
1.35046
1.35139
1.3523
1.35319
1.35405
1.35489
1.35569
1.35647
1.3572
1.3579
1.35856
1.35918
1.35976
1.36029
1.36078
1.36123
1.36163
1.362
1.36232
1.36261
1.36286
1.36308
1.36326
1.36342
1.36355
1.36365
1.36373
1.36379
1.36383
1.36385
1.36386
1.36386
1.36385
1.36382
1.36379
1.36375
1.36371
1.36367
1.36362
1.36357
1.36351
1.36346
1.36341
1.36335
1.3633
1.36325
1.3632
1.36316
1.36311
1.36307
1.36304
1.363
1.36297
1.36294
1.36291
1.36289
1.36287
1.36285
1.36283
1.36282
1.36281
1.3628
1.36279
1.36278
1.36278
1.36277
1.36277
1.36277
1.36277
1.36277
1.36278
1.36278
1.36278
1.36278
1.36279
1.36279
1.36279
1.36279
1.3628
1.3628
1.3628
1.3628
1.36281
1.36281
1.36281
1.36281
1.36281
1.36281
1.36281
1.36281
1.36281
1.3628
1.3628
1.3628
1.3628
1.36279
1.36279
1.36279
1.36279
1.36278
1.36278
1.36277
1.36277
1.36277
1.36276
1.36276
1.36276
1.36275
1.36275
1.36275
1.36274
1.36274
1.36274
1.36274
1.36273
1.36273
1.36273
1.36273
1.36273
1.36273
1.36273
1.36273
1.36274
1.36274
1.36274
1.36275
1.36275
1.36276
1.36277
1.36277
1.36278
1.36279
1.3628
1.36281
1.36282
1.36283
1.36284
1.36285
1.36286
1.36286
1.36287
1.36288
1.36289
1.3629
1.36291
1.36291
1.36292
1.36292
1.36293
1.36293
1.36293
1.36293
1.36293
1.36293
1.36293
1.36292
1.36292
1.36291
1.36291
1.3629
1.36289
1.36288
1.36286
1.36285
1.36283
1.3628
1.36277
1.36274
1.3627
1.36266
1.3626
1.36253
1.36246
1.36237
1.36226
1.36215
1.36201
1.36185
1.36167
1.36146
1.36123
1.36097
1.36068
1.36036
1.36
1.35961
1.35918
1.35872
1.35822
1.35768
1.35711
1.35649
1.35585
1.35517
1.35446
1.35372
1.35296
1.35217
1.35136
1.35053
1.34968
1.34882
1.34793
1.34705
1.34615
1.34525
1.34434
1.34343
1.34251
1.3416
1.3407
1.3398
1.3389
1.33802
1.33714
1.33627
1.33542
1.33458
1.33375
1.33294
1.33214
1.33136
1.3306
1.32985
1.32911
1.32839
1.32769
1.327
1.32633
1.32568
1.32503
1.32441
1.32381
1.32321
1.32263
1.32207
1.32153
1.32099
1.32047
1.31997
1.31948
1.31901
1.31855
1.3181
1.31767
1.31725
1.31685
1.31646
1.31608
1.31572
1.31537
1.31503
1.3147
1.31439
1.31409
1.31381
1.31353
1.31327
1.31302
1.31278
1.31255
1.31234
1.31213
1.31194
1.31176
1.31158
1.31142
1.31127
1.31113
1.31101
1.31089
1.31079
1.31069
1.31061
1.31055
1.31049
1.31045
1.31044
1.31043
1.31042
1.31047
1.31057
1.31058
1.31066
1.31095
1.3111
1.31108
1.31159
1.31219
1.31203
1.31244
1.31387
1.31418
1.31413
1.31574
1.31733
1.31819
1.31954
1.32116
1.34193
1.34028
1.33914
1.33799
1.33696
1.33601
1.33505
1.33418
1.33337
1.33256
1.33179
1.33107
1.33038
1.3297
1.32906
1.32845
1.32786
1.3273
1.32677
1.32626
1.32577
1.32531
1.32488
1.32446
1.32406
1.32369
1.32334
1.32301
1.32269
1.3224
1.32213
1.32187
1.32163
1.32141
1.3212
1.32102
1.32085
1.32069
1.32055
1.32043
1.32032
1.32023
1.32015
1.32009
1.32005
1.32002
1.32
1.32001
1.32003
1.32006
1.32011
1.32018
1.32027
1.32037
1.32049
1.32062
1.32078
1.32095
1.32114
1.32135
1.32158
1.32183
1.3221
1.32239
1.3227
1.32303
1.32339
1.32376
1.32416
1.32459
1.32504
1.32551
1.32601
1.32653
1.32708
1.32766
1.32827
1.32889
1.32955
1.33024
1.33095
1.33169
1.33246
1.33326
1.33408
1.33492
1.33579
1.33668
1.33759
1.33852
1.33947
1.34043
1.3414
1.34238
1.34338
1.34437
1.34537
1.34636
1.34736
1.34834
1.34932
1.35028
1.35123
1.35217
1.35308
1.35396
1.35482
1.35565
1.35644
1.3572
1.35792
1.3586
1.35923
1.35983
1.36038
1.36088
1.36134
1.36176
1.36213
1.36246
1.36276
1.36302
1.36324
1.36342
1.36358
1.36371
1.36381
1.3639
1.36396
1.364
1.36402
1.36404
1.36403
1.36402
1.364
1.36397
1.36393
1.36389
1.36385
1.3638
1.36375
1.3637
1.36365
1.3636
1.36355
1.36351
1.36346
1.36342
1.36337
1.36333
1.3633
1.36326
1.36323
1.3632
1.36318
1.36315
1.36313
1.36312
1.3631
1.36309
1.36308
1.36307
1.36306
1.36306
1.36305
1.36305
1.36305
1.36306
1.36306
1.36306
1.36306
1.36307
1.36307
1.36308
1.36309
1.36309
1.3631
1.3631