# vtk DataFile Version 2.0
LBE two cylinders
ASCII
DATASET STRUCTURED_POINTS
DIMENSIONS 400 100 1
ASPECT_RATIO 1 1 1
ORIGIN 0 0 0
POINT_DATA 40000
SCALARS rho double 1
LOOKUP_TABLE default
1.33859
1.33587
1.33614
1.33615
1.33522
1.33469
1.33435
1.33367
1.33303
1.33248
1.33187
1.33124
1.33065
1.33006
1.32947
1.3289
1.32835
1.32781
1.32729
1.32679
1.3263
1.32584
1.32539
1.32496
1.32456
1.32417
1.3238
1.32345
1.32312
1.32281
1.32252
1.32225
1.32199
1.32175
1.32153
1.32133
1.32114
1.32097
1.32082
1.32068
1.32056
1.32046
1.32037
1.3203
1.32024
1.3202
1.32017
1.32016
1.32017
1.32019
1.32023
1.32029
1.32036
1.32045
1.32056
1.32068
1.32083
1.32099
1.32117
1.32137
1.32159
1.32183
1.3221
1.32238
1.32269
1.32302
1.32338
1.32376
1.32416
1.32459
1.32504
1.32553
1.32603
1.32657
1.32713
1.32772
1.32834
1.32899
1.32966
1.33036
1.33109
1.33185
1.33263
1.33343
1.33426
1.33511
1.33599
1.33688
1.33779
1.33872
1.33966
1.34062
1.34158
1.34256
1.34353
1.34451
1.34549
1.34647
1.34744
1.34841
1.34936
1.3503
1.35123
1.35213
1.35302
1.35388
1.35472
1.35553
1.35631
1.35706
1.35777
1.35846
1.35911
1.35973
1.36031
1.36086
1.36137
1.36185
1.3623
1.36271
1.36309
1.36344
1.36377
1.36406
1.36433
1.36457
1.3648
1.365
1.36517
1.36533
1.36548
1.36561
1.36572
1.36582
1.36591
1.36598
1.36605
1.36611
1.36616
1.36621
1.36625
1.36628
1.36631
1.36633
1.36635
1.36637
1.36638
1.36639
1.3664
1.36641
1.36642
1.36642
1.36643
1.36643
1.36643
1.36644
1.36644
1.36644
1.36644
1.36644
1.36645
1.36645
1.36645
1.36645
1.36645
1.36645
1.36645
1.36646
1.36646
1.36646
1.36646
1.36646
1.36646
1.36647
1.36647
1.36647
1.36647
1.36647
1.36648
1.36648
1.36648
1.36648
1.36649
1.36649
1.36649
1.3665
1.3665
1.36651
1.36651
1.36652
1.36652
1.36653
1.36653
1.36654
1.36655
1.36656
1.36656
1.36657
1.36658
1.36659
1.36661
1.36662
1.36663
1.36664
1.36666
1.36667
1.36669
1.36671
1.36672
1.36674
1.36676
1.36678
1.3668
1.36682
1.36684
1.36686
1.36689
1.36691
1.36693
1.36695
1.36698
1.367
1.36702
1.36704
1.36707
1.36709
1.36711
1.36712
1.36714
1.36716
1.36717
1.36718
1.36719
1.36719
1.3672
1.36719
1.36719
1.36718
1.36717
1.36715
1.36713
1.3671
1.36707
1.36703
1.36699
1.36694
1.36689
1.36683
1.36677
1.3667
1.36663
1.36655
1.36646
1.36637
1.36628
1.36618
1.36607
1.36596
1.36585
1.36573
1.36561
1.36549
1.36536
1.36523
1.36509
1.36495
1.3648
1.36466
1.3645
1.36434
1.36417
1.364
1.36382
1.36363
1.36343
1.36322
1.36299
1.36275
1.3625
1.36222
1.36193
1.36161
1.36128
1.36092
1.36053
1.36011
1.35967
1.3592
1.35869
1.35815
1.35758
1.35698
1.35635
1.35568
1.35499
1.35426
1.35351
1.35273
1.35193
1.3511
1.35025
1.34939
1.34851
1.34762
1.34671
1.3458
1.34488
1.34396
1.34304
1.34212
1.3412
1.34028
1.33937
1.33846
1.33757
1.33669
1.33581
1.33495
1.3341
1.33327
1.33245
1.33164
1.33086
1.33008
1.32933
1.32859
1.32786
1.32716
1.32647
1.32579
1.32514
1.3245
1.32388
1.32327
1.32268
1.3221
1.32155
1.321
1.32047
1.31996
1.31946
1.31898
1.31851
1.31806
1.31761
1.31719
1.31677
1.31637
1.31598
1.3156
1.31524
1.31489
1.31454
1.31422
1.3139
1.31359
1.3133
1.31301
1.31274
1.31247
1.31222
1.31198
1.31174
1.31152
1.31131
1.3111
1.31091
1.31072
1.31055
1.31038
1.31023
1.31008
1.30994
1.30981
1.30969
1.30958
1.30947
1.30938
1.3093
1.30922
1.30917
1.30912
1.30906
1.30903
1.30907
1.30903
1.30893
1.30908
1.30926
1.30892
1.3088
1.30974
1.30964
1.30759
1.30856
1.31245
1.30784
1.29911
1.30965
1.3187
1.33672
1.33685
1.33636
1.33569
1.33538
1.33488
1.33428
1.33369
1.33314
1.33252
1.3319
1.33131
1.3307
1.3301
1.32952
1.32896
1.3284
1.32786
1.32734
1.32683
1.32635
1.32588
1.32543
1.32501
1.3246
1.32421
1.32384
1.32349
1.32316
1.32285
1.32255
1.32228
1.32202
1.32178
1.32156
1.32136
1.32117
1.321
1.32085
1.32071
1.32059
1.32048
1.32039
1.32032
1.32026
1.32022
1.3202
1.32019
1.32019
1.32021
1.32025
1.32031
1.32038
1.32047
1.32058
1.3207
1.32084
1.32101
1.32119
1.32139
1.32161
1.32185
1.32211
1.3224
1.3227
1.32303
1.32339
1.32376
1.32416
1.32459
1.32505
1.32553
1.32603
1.32657
1.32713
1.32772
1.32833
1.32898
1.32965
1.33035
1.33107
1.33182
1.3326
1.3334
1.33423
1.33508
1.33595
1.33684
1.33775
1.33868
1.33961
1.34057
1.34153
1.3425
1.34348
1.34445
1.34543
1.34641
1.34738
1.34834
1.3493
1.35024
1.35116
1.35207
1.35295
1.35381
1.35465
1.35546
1.35624
1.357
1.35772
1.3584
1.35906
1.35967
1.36026
1.36081
1.36133
1.36181
1.36226
1.36267
1.36306
1.36341
1.36374
1.36403
1.36431
1.36455
1.36477
1.36498
1.36516
1.36532
1.36546
1.36559
1.36571
1.36581
1.3659
1.36598
1.36604
1.3661
1.36616
1.3662
1.36624
1.36627
1.3663
1.36632
1.36635
1.36636
1.36638
1.36639
1.3664
1.36641
1.36641
1.36642
1.36642
1.36643
1.36643
1.36643
1.36644
1.36644
1.36644
1.36644
1.36644
1.36644
1.36644
1.36645
1.36645
1.36645
1.36645
1.36645
1.36645
1.36645
1.36646
1.36646
1.36646
1.36646
1.36646
1.36646
1.36647
1.36647
1.36647
1.36647
1.36648
1.36648
1.36648
1.36648
1.36649
1.36649
1.3665
1.3665
1.3665
1.36651
1.36651
1.36652
1.36653
1.36653
1.36654
1.36655
1.36656
1.36657
1.36658
1.36659
1.3666
1.36661
1.36662
1.36663
1.36665
1.36666
1.36668
1.36669
1.36671
1.36673
1.36675
1.36676
1.36678
1.3668
1.36683
1.36685
1.36687
1.36689
1.36691
1.36694
1.36696
1.36698
1.367
1.36702
1.36704
1.36706
1.36708
1.3671
1.36712
1.36713
1.36714
1.36716
1.36716
1.36717
1.36717
1.36717
1.36716
1.36715
1.36714
1.36712
1.3671
1.36708
1.36704
1.36701
1.36696
1.36692
1.36686
1.36681
1.36674
1.36667
1.3666
1.36652
1.36643
1.36634
1.36624
1.36614
1.36604
1.36593
1.36581
1.3657
1.36557
1.36545
1.36532
1.36518
1.36505
1.3649
1.36476
1.36461
1.36445
1.36429
1.36412
1.36394
1.36376
1.36357
1.36336
1.36315
1.36292
1.36268
1.36242
1.36215
1.36185
1.36154
1.3612
1.36084
1.36045
1.36003
1.35959
1.35912
1.35861
1.35808
1.35751
1.35691
1.35628
1.35562
1.35493
1.3542
1.35345
1.35268
1.35188
1.35106
1.35022
1.34936
1.34848
1.3476
1.3467
1.34579
1.34488
1.34396
1.34304
1.34212
1.34121
1.34029
1.33939
1.33849
1.3376
1.33672
1.33585
1.33499
1.33414
1.33331
1.33249
1.33169
1.3309
1.33013
1.32937
1.32863
1.32791
1.32721
1.32652
1.32584
1.32519
1.32455
1.32392
1.32332
1.32273
1.32215
1.32159
1.32105
1.32052
1.32
1.31951
1.31902
1.31855
1.31809
1.31765
1.31722
1.3168
1.3164
1.31601
1.31563
1.31527
1.31491
1.31457
1.31424
1.31392
1.31361
1.31331
1.31303
1.31275
1.31249
1.31223
1.31199
1.31175
1.31152
1.31131
1.3111
1.31091
1.31072
1.31054
1.31037
1.31021
1.31006
1.30992
1.30978
1.30966
1.30954
1.30944
1.30934
1.30925
1.30917
1.30909
1.30904
1.309
1.30895
1.30889
1.30892
1.30892
1.3088
1.3088
1.30906
1.30889
1.3084
1.30882
1.3095
1.30779
1.30631
1.30896
1.30841
1.29854
1.29307
1.33604
1.33703
1.33631
1.3356
1.33557
1.33499
1.33428
1.33378
1.33322
1.33255
1.33195
1.33136
1.33074
1.33014
1.32956
1.32899
1.32842
1.32789
1.32736
1.32685
1.32637
1.3259
1.32545
1.32502
1.32461
1.32422
1.32385
1.3235
1.32317
1.32286
1.32257
1.32229
1.32203
1.3218
1.32157
1.32137
1.32118
1.32101
1.32086
1.32072
1.3206
1.32049
1.3204
1.32033
1.32027
1.32023
1.3202
1.32019
1.3202
1.32022
1.32026
1.32031
1.32038
1.32047
1.32058
1.3207
1.32084
1.321
1.32118
1.32138
1.3216
1.32184
1.3221
1.32238
1.32269
1.32302
1.32337
1.32374
1.32414
1.32457
1.32502
1.3255
1.326
1.32653
1.32709
1.32768
1.32829
1.32893
1.3296
1.3303
1.33102
1.33177
1.33254
1.33334
1.33417
1.33502
1.33589
1.33677
1.33768
1.33861
1.33955
1.3405
1.34146
1.34243
1.34341
1.34438
1.34536
1.34634
1.34731
1.34828
1.34923
1.35017
1.3511
1.35201
1.3529
1.35376
1.3546
1.35542
1.3562
1.35696
1.35768
1.35837
1.35903
1.35965
1.36024
1.36079
1.36131
1.3618
1.36225
1.36266
1.36305
1.36341
1.36373
1.36403
1.3643
1.36455
1.36477
1.36498
1.36516
1.36532
1.36546
1.36559
1.36571
1.36581
1.3659
1.36598
1.36605
1.3661
1.36616
1.3662
1.36624
1.36627
1.3663
1.36632
1.36634
1.36636
1.36638
1.36639
1.3664
1.36641
1.36641
1.36642
1.36642
1.36643
1.36643
1.36643
1.36643
1.36644
1.36644
1.36644
1.36644
1.36644
1.36644
1.36644
1.36644
1.36644
1.36645
1.36645
1.36645
1.36645
1.36645
1.36645
1.36645
1.36646
1.36646
1.36646
1.36646
1.36646
1.36647
1.36647
1.36647
1.36647
1.36648
1.36648
1.36648
1.36649
1.36649
1.36649
1.3665
1.3665
1.36651
1.36651
1.36652
1.36653
1.36653
1.36654
1.36655
1.36656
1.36657
1.36658
1.36659
1.3666
1.36661
1.36662
1.36664
1.36665
1.36667
1.36668
1.3667
1.36671
1.36673
1.36675
1.36677
1.36679
1.36681
1.36683
1.36685
1.36687
1.3669
1.36692
1.36694
1.36696
1.36698
1.367
1.36702
1.36704
1.36706
1.36708
1.3671
1.36711
1.36712
1.36713
1.36714
1.36715
1.36715
1.36715
1.36714
1.36713
1.36712
1.3671
1.36708
1.36705
1.36702
1.36698
1.36694
1.36689
1.36684
1.36678
1.36672
1.36665
1.36657
1.36649
1.3664
1.36631
1.36622
1.36612
1.36601
1.3659
1.36578
1.36566
1.36554
1.36541
1.36528
1.36515
1.36501
1.36486
1.36471
1.36456
1.3644
1.36424
1.36407
1.36389
1.36371
1.36351
1.36331
1.36309
1.36286
1.36262
1.36236
1.36208
1.36179
1.36147
1.36113
1.36077
1.36038
1.35997
1.35952
1.35905
1.35855
1.35801
1.35745
1.35685
1.35622
1.35556
1.35487
1.35415
1.35341
1.35263
1.35184
1.35102
1.35018
1.34932
1.34845
1.34757
1.34667
1.34577
1.34486
1.34394
1.34303
1.34211
1.3412
1.34029
1.33939
1.33849
1.3376
1.33672
1.33585
1.335
1.33415
1.33332
1.33251
1.33171
1.33092
1.33015
1.3294
1.32866
1.32794
1.32723
1.32654
1.32587
1.32522
1.32458
1.32395
1.32335
1.32276
1.32218
1.32162
1.32108
1.32055
1.32003
1.31953
1.31905
1.31858
1.31812
1.31767
1.31724
1.31683
1.31642
1.31603
1.31565
1.31528
1.31493
1.31458
1.31425
1.31393
1.31362
1.31332
1.31303
1.31276
1.31249
1.31223
1.31199
1.31175
1.31152
1.31131
1.3111
1.3109
1.31071
1.31053
1.31036
1.31019
1.31004
1.3099
1.30976
1.30963
1.30951
1.3094
1.30929
1.3092
1.30912
1.30904
1.30896
1.30892
1.30889
1.30879
1.30874
1.30885
1.30877
1.30848
1.30872
1.30911
1.30825
1.30767
1.30952
1.30919
1.3044
1.30639
1.31322
1.30086
1.28873
1.33647
1.33654
1.33641
1.33615
1.33562
1.33495
1.33447
1.33389
1.33322
1.33261
1.33201
1.33137
1.33076
1.33016
1.32957
1.32899
1.32843
1.32789
1.32736
1.32685
1.32636
1.32589
1.32544
1.32501
1.3246
1.32421
1.32384
1.32349
1.32316
1.32285
1.32256
1.32228
1.32202
1.32178
1.32156
1.32136
1.32117
1.321
1.32085
1.32071
1.32059
1.32048
1.32039
1.32032
1.32026
1.32022
1.32019
1.32018
1.32019
1.32021
1.32025
1.3203
1.32037
1.32046
1.32056
1.32068
1.32082
1.32098
1.32116
1.32136
1.32157
1.32181
1.32207
1.32235
1.32265
1.32298
1.32333
1.3237
1.3241
1.32452
1.32497
1.32544
1.32594
1.32647
1.32702
1.32761
1.32822
1.32886
1.32952
1.33021
1.33094
1.33168
1.33246
1.33325
1.33408
1.33492
1.33579
1.33668
1.33759
1.33851
1.33945
1.3404
1.34137
1.34234
1.34332
1.3443
1.34528
1.34626
1.34724
1.34821
1.34917
1.35011
1.35105
1.35196
1.35285
1.35372
1.35457
1.35539
1.35618
1.35694
1.35767
1.35836
1.35902
1.35965
1.36024
1.3608
1.36132
1.36181
1.36226
1.36268
1.36307
1.36342
1.36375
1.36405
1.36432
1.36457
1.36479
1.36499
1.36517
1.36533
1.36548
1.36561
1.36572
1.36582
1.36591
1.36599
1.36605
1.36611
1.36616
1.36621
1.36624
1.36628
1.3663
1.36633
1.36635
1.36636
1.36638
1.36639
1.3664
1.36641
1.36641
1.36642
1.36642
1.36642
1.36643
1.36643
1.36643
1.36643
1.36643
1.36644
1.36644
1.36644
1.36644
1.36644
1.36644
1.36644
1.36644
1.36644
1.36645
1.36645
1.36645
1.36645
1.36645
1.36645
1.36645
1.36646
1.36646
1.36646
1.36646
1.36646
1.36647
1.36647
1.36647
1.36647
1.36648
1.36648
1.36648
1.36649
1.36649
1.3665
1.3665
1.36651
1.36651
1.36652
1.36653
1.36653
1.36654
1.36655
1.36656
1.36657
1.36658
1.36659
1.3666
1.36661
1.36663
1.36664
1.36665
1.36667
1.36668
1.3667
1.36672
1.36674
1.36676
1.36678
1.3668
1.36682
1.36684
1.36686
1.36688
1.3669
1.36692
1.36694
1.36696
1.36699
1.36701
1.36703
1.36704
1.36706
1.36708
1.36709
1.3671
1.36711
1.36712
1.36712
1.36713
1.36713
1.36712
1.36711
1.3671
1.36708
1.36706
1.36703
1.367
1.36696
1.36692
1.36687
1.36682
1.36676
1.3667
1.36663
1.36655
1.36647
1.36638
1.36629
1.36619
1.36609
1.36598
1.36587
1.36576
1.36564
1.36551
1.36538
1.36525
1.36511
1.36497
1.36483
1.36468
1.36452
1.36436
1.3642
1.36403
1.36385
1.36366
1.36347
1.36326
1.36304
1.36281
1.36257
1.36231
1.36203
1.36173
1.36142
1.36108
1.36071
1.36033
1.35991
1.35947
1.35899
1.35849
1.35795
1.35738
1.35679
1.35616
1.3555
1.3548
1.35409
1.35334
1.35257
1.35177
1.35095
1.35011
1.34926
1.34839
1.3475
1.34661
1.3457
1.3448
1.34389
1.34297
1.34206
1.34115
1.34024
1.33934
1.33845
1.33756
1.33668
1.33582
1.33497
1.33412
1.3333
1.33249
1.33169
1.3309
1.33014
1.32939
1.32865
1.32793
1.32723
1.32654
1.32587
1.32522
1.32458
1.32396
1.32335
1.32276
1.32219
1.32163
1.32109
1.32056
1.32005
1.31955
1.31906
1.31859
1.31813
1.31769
1.31726
1.31684
1.31644
1.31604
1.31566
1.3153
1.31494
1.3146
1.31426
1.31394
1.31363
1.31333
1.31304
1.31277
1.3125
1.31224
1.31199
1.31175
1.31153
1.31131
1.3111
1.3109
1.31071
1.31052
1.31035
1.31019
1.31003
1.30988
1.30975
1.30962
1.30949
1.30938
1.30928
1.30918
1.30908
1.30902
1.30895
1.30885
1.30882
1.30884
1.30872
1.3086
1.30878
1.30885
1.30835
1.30837
1.30925
1.30864
1.30695
1.30859
1.31024
1.30551
1.30346
1.30882
1.30946
1.33725
1.33694
1.33678
1.33641
1.33567
1.33512
1.33464
1.33392
1.33326
1.33267
1.33202
1.33136
1.33076
1.33015
1.32954
1.32896
1.3284
1.32785
1.32732
1.32681
1.32632
1.32585
1.3254
1.32497
1.32456
1.32417
1.3238
1.32345
1.32312
1.32281
1.32252
1.32224
1.32199
1.32175
1.32153
1.32133
1.32114
1.32097
1.32082
1.32068
1.32056
1.32045
1.32036
1.32029
1.32023
1.32019
1.32016
1.32015
1.32016
1.32018
1.32021
1.32027
1.32034
1.32042
1.32052
1.32064
1.32078
1.32094
1.32112
1.32131
1.32152
1.32176
1.32201
1.32229
1.32259
1.32291
1.32326
1.32363
1.32402
1.32444
1.32488
1.32535
1.32585
1.32637
1.32693
1.3275
1.32811
1.32875
1.32941
1.3301
1.33082
1.33156
1.33233
1.33313
1.33395
1.3348
1.33567
1.33656
1.33746
1.33839
1.33933
1.34029
1.34125
1.34223
1.34321
1.3442
1.34518
1.34617
1.34715
1.34813
1.34909
1.35005
1.35099
1.35191
1.35281
1.35369
1.35454
1.35537
1.35616
1.35693
1.35767
1.35837
1.35903
1.35967
1.36026
1.36082
1.36135
1.36184
1.36229
1.36271
1.3631
1.36346
1.36378
1.36408
1.36435
1.3646
1.36482
1.36502
1.3652
1.36536
1.3655
1.36563
1.36574
1.36584
1.36593
1.366
1.36607
1.36613
1.36617
1.36622
1.36625
1.36628
1.36631
1.36633
1.36635
1.36637
1.36638
1.36639
1.3664
1.36641
1.36641
1.36642
1.36642
1.36642
1.36643
1.36643
1.36643
1.36643
1.36643
1.36643
1.36643
1.36643
1.36644
1.36644
1.36644
1.36644
1.36644
1.36644
1.36644
1.36644
1.36644
1.36645
1.36645
1.36645
1.36645
1.36645
1.36645
1.36646
1.36646
1.36646
1.36646
1.36646
1.36647
1.36647
1.36647
1.36648
1.36648
1.36648
1.36649
1.36649
1.3665
1.3665
1.36651
1.36651
1.36652
1.36652
1.36653
1.36654
1.36655
1.36656
1.36657
1.36658
1.36659
1.3666
1.36661
1.36663
1.36664
1.36666
1.36667
1.36669
1.36671
1.36672
1.36674
1.36676
1.36678
1.3668
1.36682
1.36684
1.36686
1.36688
1.36691
1.36693
1.36695
1.36697
1.36699
1.36701
1.36703
1.36704
1.36706
1.36707
1.36708
1.36709
1.3671
1.36711
1.36711
1.36711
1.3671
1.36709
1.36708
1.36706
1.36704
1.36701
1.36698
1.36694
1.3669
1.36685
1.3668
1.36674
1.36668
1.36661
1.36653
1.36645
1.36636
1.36627
1.36617
1.36607
1.36596
1.36585
1.36573
1.36561
1.36549
1.36536
1.36522
1.36509
1.36495
1.3648
1.36465
1.36449
1.36433
1.36417
1.364
1.36381
1.36363
1.36343
1.36322
1.363
1.36277
1.36253
1.36227
1.36199
1.36169
1.36137
1.36103
1.36066
1.36027
1.35985
1.3594
1.35893
1.35842
1.35788
1.35731
1.3567
1.35607
1.3554
1.35471
1.35399
1.35324
1.35246
1.35166
1.35084
1.35
1.34914
1.34827
1.34739
1.34649
1.34559
1.34468
1.34377
1.34286
1.34195
1.34104
1.34013
1.33923
1.33834
1.33746
1.33659
1.33573
1.33488
1.33404
1.33322
1.33241
1.33162
1.33084
1.33008
1.32933
1.3286
1.32789
1.32719
1.3265
1.32584
1.32519
1.32456
1.32394
1.32334
1.32275
1.32218
1.32163
1.32108
1.32056
1.32005
1.31955
1.31907
1.3186
1.31814
1.3177
1.31727
1.31685
1.31645
1.31606
1.31568
1.31531
1.31496
1.31461
1.31428
1.31396
1.31365
1.31335
1.31306
1.31278
1.31251
1.31226
1.31201
1.31177
1.31154
1.31132
1.31111
1.31091
1.31072
1.31054
1.31037
1.3102
1.31005
1.3099
1.30976
1.30963
1.30951
1.30939
1.30929
1.3092
1.30911
1.30902
1.30898
1.30892
1.30882
1.30883
1.30888
1.30872
1.30863
1.30897
1.30894
1.30831
1.30879
1.3098
1.30827
1.30733
1.31071
1.31002
1.30509
1.30842
1.31095
1.33815
1.33773
1.33718
1.33652
1.33597
1.33539
1.33466
1.33396
1.33336
1.33267
1.33199
1.33136
1.33073
1.33009
1.32949
1.3289
1.32833
1.32778
1.32725
1.32674
1.32624
1.32577
1.32532
1.32489
1.32449
1.3241
1.32373
1.32338
1.32305
1.32274
1.32245
1.32218
1.32193
1.32169
1.32147
1.32127
1.32108
1.32092
1.32076
1.32063
1.32051
1.3204
1.32032
1.32024
1.32018
1.32014
1.32012
1.3201
1.32011
1.32013
1.32016
1.32021
1.32028
1.32037
1.32047
1.32059
1.32072
1.32088
1.32105
1.32124
1.32145
1.32168
1.32194
1.32221
1.3225
1.32282
1.32316
1.32353
1.32392
1.32433
1.32477
1.32523
1.32573
1.32625
1.32679
1.32737
1.32797
1.3286
1.32926
1.32995
1.33067
1.33141
1.33218
1.33297
1.33379
1.33464
1.33551
1.3364
1.33731
1.33824
1.33918
1.34014
1.34111
1.34209
1.34308
1.34407
1.34506
1.34606
1.34705
1.34803
1.349
1.34997
1.35091
1.35185
1.35276
1.35364
1.35451
1.35534
1.35615
1.35693
1.35767
1.35838
1.35905
1.35969
1.36029
1.36086
1.36139
1.36188
1.36234
1.36276
1.36315
1.36351
1.36383
1.36413
1.3644
1.36464
1.36486
1.36506
1.36524
1.36539
1.36553
1.36566
1.36577
1.36586
1.36595
1.36602
1.36609
1.36614
1.36619
1.36623
1.36626
1.36629
1.36632
1.36634
1.36636
1.36637
1.36638
1.36639
1.3664
1.36641
1.36641
1.36642
1.36642
1.36642
1.36643
1.36643
1.36643
1.36643
1.36643
1.36643
1.36643
1.36643
1.36643
1.36643
1.36644
1.36644
1.36644
1.36644
1.36644
1.36644
1.36644
1.36644
1.36644
1.36645
1.36645
1.36645
1.36645
1.36645
1.36645
1.36646
1.36646
1.36646
1.36646
1.36646
1.36647
1.36647
1.36647
1.36648
1.36648
1.36649
1.36649
1.36649
1.3665
1.36651
1.36651
1.36652
1.36653
1.36653
1.36654
1.36655
1.36656
1.36657
1.36658
1.36659
1.3666
1.36662
1.36663
1.36665
1.36666
1.36668
1.36669
1.36671
1.36673
1.36675
1.36677
1.36679
1.36681
1.36683
1.36685
1.36687
1.36689
1.36691
1.36693
1.36695
1.36697
1.36699
1.36701
1.36702
1.36704
1.36705
1.36707
1.36708
1.36708
1.36709
1.36709
1.36709
1.36708
1.36707
1.36706
1.36704
1.36702
1.367
1.36696
1.36693
1.36688
1.36684
1.36678
1.36672
1.36666
1.36659
1.36651
1.36643
1.36634
1.36625
1.36615
1.36605
1.36594
1.36583
1.36571
1.36559
1.36547
1.36534
1.3652
1.36507
1.36492
1.36478
1.36463
1.36447
1.36431
1.36415
1.36397
1.36379
1.3636
1.36341
1.3632
1.36298
1.36274
1.3625
1.36223
1.36195
1.36165
1.36133
1.36098
1.36061
1.36021
1.35979
1.35934
1.35885
1.35834
1.35779
1.35721
1.3566
1.35596
1.35528
1.35458
1.35385
1.35309
1.35231
1.35151
1.35068
1.34984
1.34897
1.3481
1.34721
1.34632
1.34541
1.3445
1.34359
1.34268
1.34177
1.34086
1.33996
1.33906
1.33818
1.3373
1.33643
1.33557
1.33473
1.3339
1.33308
1.33228
1.33149
1.33072
1.32996
1.32922
1.3285
1.32779
1.3271
1.32643
1.32577
1.32513
1.3245
1.32389
1.32329
1.32271
1.32215
1.3216
1.32106
1.32054
1.32004
1.31954
1.31906
1.3186
1.31815
1.31771
1.31728
1.31687
1.31647
1.31608
1.3157
1.31534
1.31498
1.31464
1.31431
1.31399
1.31368
1.31338
1.3131
1.31282
1.31255
1.31229
1.31205
1.31181
1.31158
1.31136
1.31116
1.31096
1.31077
1.31059
1.31041
1.31025
1.3101
1.30995
1.30982
1.30969
1.30957
1.30946
1.30936
1.30927
1.30921
1.30912
1.30905
1.30905
1.30902
1.3089
1.30895
1.30913
1.30896
1.30878
1.30935
1.30958
1.30862
1.30909
1.31092
1.30954
1.30785
1.31114
1.31296
1.30995
1.30963
1.3392
1.33839
1.33764
1.3369
1.33626
1.33551
1.33472
1.33406
1.33337
1.33263
1.33196
1.33131
1.33064
1.33
1.3294
1.3288
1.32822
1.32767
1.32713
1.32662
1.32613
1.32566
1.32521
1.32478
1.32438
1.32399
1.32362
1.32328
1.32295
1.32265
1.32236
1.32209
1.32184
1.3216
1.32139
1.32119
1.32101
1.32084
1.32069
1.32056
1.32044
1.32033
1.32025
1.32017
1.32012
1.32008
1.32005
1.32004
1.32004
1.32006
1.32009
1.32014
1.32021
1.32029
1.32039
1.32051
1.32064
1.32079
1.32096
1.32115
1.32136
1.32159
1.32184
1.3221
1.32239
1.32271
1.32304
1.3234
1.32379
1.3242
1.32463
1.32509
1.32558
1.32609
1.32663
1.32721
1.3278
1.32843
1.32909
1.32977
1.33048
1.33122
1.33199
1.33278
1.3336
1.33445
1.33532
1.33621
1.33712
1.33805
1.339
1.33996
1.34094
1.34193
1.34292
1.34392
1.34492
1.34592
1.34692
1.34791
1.3489
1.34987
1.35083
1.35177
1.35269
1.35359
1.35447
1.35532
1.35614
1.35692
1.35768
1.3584
1.35908
1.35972
1.36033
1.3609
1.36144
1.36193
1.36239
1.36282
1.36321
1.36356
1.36389
1.36419
1.36445
1.3647
1.36491
1.36511
1.36528
1.36544
1.36557
1.36569
1.3658
1.36589
1.36598
1.36605
1.36611
1.36616
1.36621
1.36625
1.36628
1.36631
1.36633
1.36635
1.36636
1.36638
1.36639
1.3664
1.3664
1.36641
1.36642
1.36642
1.36642
1.36642
1.36643
1.36643
1.36643
1.36643
1.36643
1.36643
1.36643
1.36643
1.36643
1.36643
1.36643
1.36643
1.36643
1.36644
1.36644
1.36644
1.36644
1.36644
1.36644
1.36644
1.36644
1.36645
1.36645
1.36645
1.36645
1.36645
1.36645
1.36646
1.36646
1.36646
1.36646
1.36647
1.36647
1.36647
1.36648
1.36648
1.36648
1.36649
1.36649
1.3665
1.36651
1.36651
1.36652
1.36653
1.36653
1.36654
1.36655
1.36656
1.36657
1.36658
1.36659
1.36661
1.36662
1.36663
1.36665
1.36666
1.36668
1.3667
1.36672
1.36673
1.36675
1.36677
1.36679
1.36681
1.36683
1.36685
1.36687
1.36689
1.36691
1.36693
1.36695
1.36697
1.36699
1.36701
1.36702
1.36704
1.36705
1.36706
1.36707
1.36707
1.36707
1.36707
1.36706
1.36706
1.36704
1.36703
1.367
1.36698
1.36695
1.36691
1.36687
1.36682
1.36676
1.36671
1.36664
1.36657
1.36649
1.36641
1.36632
1.36623
1.36613
1.36603
1.36592
1.36581
1.36569
1.36557
1.36545
1.36532
1.36519
1.36505
1.36491
1.36476
1.36461
1.36446
1.3643
1.36413
1.36395
1.36378
1.36359
1.36339
1.36318
1.36296
1.36272
1.36247
1.36221
1.36192
1.36161
1.36129
1.36094
1.36056
1.36015
1.35972
1.35926
1.35876
1.35824
1.35768
1.35709
1.35647
1.35582
1.35513
1.35442
1.35368
1.35291
1.35212
1.35131
1.35047
1.34962
1.34875
1.34787
1.34698
1.34608
1.34518
1.34427
1.34335
1.34244
1.34153
1.34062
1.33972
1.33883
1.33794
1.33707
1.3362
1.33535
1.33451
1.33369
1.33288
1.33208
1.3313
1.33054
1.32979
1.32906
1.32835
1.32765
1.32697
1.32631
1.32566
1.32502
1.32441
1.32381
1.32322
1.32265
1.32209
1.32155
1.32102
1.32051
1.32001
1.31953
1.31905
1.3186
1.31815
1.31772
1.3173
1.31689
1.31649
1.31611
1.31573
1.31537
1.31502
1.31468
1.31436
1.31404
1.31373
1.31344
1.31315
1.31288
1.31261
1.31236
1.31212
1.31188
1.31166
1.31144
1.31123
1.31104
1.31085
1.31067
1.3105
1.31034
1.31019
1.31005
1.30992
1.3098
1.30969
1.30959
1.3095
1.30941
1.30935
1.30932
1.30925
1.30921
1.30926
1.30927
1.30917
1.30931
1.30958
1.30938
1.30935
1.31019
1.31028
1.30945
1.31068
1.31218
1.31078
1.311
1.31354
1.31381
1.31446
1.34023
1.33897
1.33814
1.33732
1.33643
1.3356
1.33485
1.33409
1.3333
1.33258
1.3319
1.33119
1.33051
1.32988
1.32925
1.32864
1.32807
1.32751
1.32697
1.32646
1.32597
1.32551
1.32506
1.32464
1.32423
1.32385
1.32349
1.32315
1.32282
1.32252
1.32224
1.32197
1.32173
1.3215
1.32128
1.32109
1.32091
1.32074
1.3206
1.32047
1.32035
1.32025
1.32016
1.32009
1.32003
1.31999
1.31997
1.31995
1.31996
1.31998
1.32001
1.32006
1.32012
1.3202
1.3203
1.32041
1.32054
1.32069
1.32086
1.32104
1.32125
1.32147
1.32171
1.32198
1.32226
1.32257
1.3229
1.32326
1.32363
1.32404
1.32446
1.32492
1.3254
1.32591
1.32645
1.32701
1.3276
1.32822
1.32887
1.32955
1.33026
1.331
1.33176
1.33256
1.33338
1.33422
1.33509
1.33598
1.3369
1.33783
1.33878
1.33975
1.34073
1.34173
1.34273
1.34373
1.34475
1.34576
1.34677
1.34777
1.34877
1.34975
1.35072
1.35168
1.35262
1.35353
1.35442
1.35528
1.35611
1.35691
1.35768
1.35841
1.3591
1.35976
1.36037
1.36095
1.36149
1.36199
1.36245
1.36288
1.36327
1.36363
1.36396
1.36425
1.36452
1.36476
1.36497
1.36516
1.36533
1.36549
1.36562
1.36573
1.36584
1.36593
1.36601
1.36607
1.36613
1.36618
1.36622
1.36626
1.36629
1.36632
1.36634
1.36636
1.36637
1.36638
1.36639
1.3664
1.36641
1.36641
1.36642
1.36642
1.36642
1.36642
1.36643
1.36643
1.36643
1.36643
1.36643
1.36643
1.36643
1.36643
1.36643
1.36643
1.36643
1.36643
1.36643
1.36643
1.36643
1.36644
1.36644
1.36644
1.36644
1.36644
1.36644
1.36644
1.36644
1.36645
1.36645
1.36645
1.36645
1.36645
1.36646
1.36646
1.36646
1.36646
1.36647
1.36647
1.36647
1.36648
1.36648
1.36648
1.36649
1.36649
1.3665
1.36651
1.36651
1.36652
1.36653
1.36654
1.36654
1.36655
1.36656
1.36657
1.36659
1.3666
1.36661
1.36662
1.36664
1.36665
1.36667
1.36669
1.3667
1.36672
1.36674
1.36676
1.36678
1.3668
1.36682
1.36684
1.36686
1.36688
1.3669
1.36692
1.36694
1.36696
1.36697
1.36699
1.367
1.36702
1.36703
1.36704
1.36705
1.36705
1.36705
1.36705
1.36705
1.36704
1.36702
1.36701
1.36698
1.36696
1.36693
1.36689
1.36685
1.3668
1.36674
1.36669
1.36662
1.36655
1.36647
1.36639
1.3663
1.36621
1.36611
1.36601
1.3659
1.36579
1.36568
1.36556
1.36543
1.3653
1.36517
1.36503
1.36489
1.36475
1.3646
1.36445
1.36429
1.36412
1.36395
1.36377
1.36358
1.36338
1.36317
1.36294
1.36271
1.36246
1.36219
1.36189
1.36159
1.36125
1.36089
1.36051
1.36009
1.35965
1.35918
1.35867
1.35813
1.35756
1.35695
1.35632
1.35565
1.35495
1.35423
1.35347
1.35269
1.35189
1.35106
1.35022
1.34936
1.34848
1.3476
1.3467
1.3458
1.34489
1.34397
1.34306
1.34214
1.34123
1.34033
1.33943
1.33853
1.33765
1.33678
1.33592
1.33507
1.33424
1.33342
1.33262
1.33183
1.33106
1.33031
1.32957
1.32885
1.32815
1.32746
1.32679
1.32614
1.3255
1.32488
1.32428
1.32369
1.32311
1.32255
1.32201
1.32148
1.32096
1.32046
1.31997
1.3195
1.31904
1.31859
1.31815
1.31772
1.31731
1.31691
1.31652
1.31614
1.31578
1.31542
1.31508
1.31475
1.31442
1.31411
1.31381
1.31352
1.31324
1.31297
1.31271
1.31246
1.31222
1.31199
1.31176
1.31155
1.31135
1.31116
1.31097
1.3108
1.31064
1.31048
1.31034
1.31021
1.31008
1.30997
1.30987
1.30978
1.30971
1.30964
1.30957
1.30955
1.30956
1.30952
1.30951
1.30966
1.30973
1.30962
1.3099
1.31037
1.31013
1.31015
1.31141
1.31167
1.31079
1.31225
1.31436
1.31379
1.3138
1.31661
1.31864
1.34106
1.33957
1.33858
1.33757
1.33658
1.33572
1.33488
1.33402
1.33323
1.3325
1.33175
1.33102
1.33036
1.3297
1.32906
1.32845
1.32787
1.32731
1.32678
1.32627
1.32578
1.32532
1.32487
1.32445
1.32406
1.32368
1.32332
1.32299
1.32267
1.32237
1.32209
1.32183
1.32159
1.32137
1.32116
1.32097
1.32079
1.32063
1.32049
1.32036
1.32024
1.32014
1.32006
1.31999
1.31994
1.3199
1.31987
1.31986
1.31986
1.31988
1.31991
1.31996
1.32002
1.3201
1.32019
1.3203
1.32043
1.32058
1.32074
1.32092
1.32112
1.32134
1.32157
1.32183
1.32211
1.32241
1.32274
1.32309
1.32346
1.32385
1.32428
1.32472
1.32519
1.3257
1.32623
1.32678
1.32737
1.32799
1.32863
1.32931
1.33001
1.33074
1.33151
1.3323
1.33311
1.33396
1.33483
1.33572
1.33664
1.33758
1.33853
1.3395
1.34049
1.34149
1.3425
1.34352
1.34454
1.34556
1.34658
1.3476
1.34861
1.34961
1.3506
1.35156
1.35252
1.35345
1.35435
1.35523
1.35608
1.3569
1.35767
1.35842
1.35912
1.35979
1.36042
1.361
1.36155
1.36206
1.36252
1.36295
1.36335
1.3637
1.36403
1.36432
1.36459
1.36482
1.36503
1.36522
1.36539
1.36553
1.36567
1.36578
1.36588
1.36596
1.36604
1.3661
1.36616
1.36621
1.36625
1.36628
1.36631
1.36633
1.36635
1.36637
1.36638
1.36639
1.3664
1.36641
1.36641
1.36642
1.36642
1.36642
1.36642
1.36642
1.36643
1.36643
1.36643
1.36643
1.36643
1.36643
1.36643
1.36643
1.36643
1.36643
1.36643
1.36643
1.36643
1.36643
1.36643
1.36643
1.36643
1.36644
1.36644
1.36644
1.36644
1.36644
1.36644
1.36644
1.36645
1.36645
1.36645
1.36645
1.36645
1.36646
1.36646
1.36646
1.36646
1.36647
1.36647
1.36647
1.36648
1.36648
1.36648
1.36649
1.36649
1.3665
1.36651
1.36651
1.36652
1.36653
1.36654
1.36655
1.36656
1.36657
1.36658
1.36659
1.3666
1.36662
1.36663
1.36664
1.36666
1.36668
1.36669
1.36671
1.36673
1.36675
1.36676
1.36678
1.3668
1.36682
1.36684
1.36686
1.36688
1.3669
1.36692
1.36694
1.36696
1.36697
1.36699
1.367
1.36701
1.36702
1.36703
1.36703
1.36703
1.36703
1.36703
1.36702
1.367
1.36699
1.36696
1.36694
1.36691
1.36687
1.36682
1.36678
1.36672
1.36666
1.3666
1.36653
1.36645
1.36637
1.36628
1.36619
1.36609
1.36599
1.36588
1.36577
1.36566
1.36554
1.36542
1.36529
1.36516
1.36502
1.36488
1.36474
1.36459
1.36444
1.36428
1.36412
1.36394
1.36376
1.36357
1.36338
1.36316
1.36294
1.3627
1.36244
1.36217
1.36188
1.36156
1.36122
1.36085
1.36045
1.36003
1.35957
1.35909
1.35856
1.35801
1.35742
1.3568
1.35615
1.35546
1.35474
1.354
1.35323
1.35243
1.35162
1.35078
1.34993
1.34905
1.34817
1.34728
1.34637
1.34546
1.34455
1.34363
1.34271
1.3418
1.34089
1.33998
1.33908
1.33819
1.33731
1.33644
1.33558
1.33474
1.33391
1.3331
1.3323
1.33153
1.33077
1.33002
1.3293
1.32859
1.3279
1.32723
1.32657
1.32593
1.32531
1.3247
1.32411
1.32354
1.32298
1.32243
1.3219
1.32139
1.32088
1.32039
1.31992
1.31946
1.31901
1.31857
1.31814
1.31773
1.31733
1.31694
1.31656
1.31619
1.31583
1.31549
1.31515
1.31482
1.31451
1.3142
1.31391
1.31363
1.31335
1.31309
1.31283
1.31259
1.31235
1.31213
1.31191
1.3117
1.31151
1.31132
1.31114
1.31098
1.31082
1.31067
1.31054
1.31041
1.3103
1.3102
1.31011
1.31003
1.30996
1.30993
1.3099
1.30986
1.30989
1.30996
1.30995
1.31
1.31027
1.31038
1.31034
1.31082
1.31139
1.3112
1.31158
1.31298
1.31326
1.31317
1.31475
1.31629
1.31711
1.31843
1.32002
1.34165
1.34001
1.33887
1.33772
1.3367
1.33575
1.33479
1.33393
1.33312
1.33232
1.33154
1.33083
1.33014
1.32946
1.32883
1.32822
1.32763
1.32707
1.32654
1.32604
1.32555
1.32509
1.32466
1.32424
1.32385
1.32348
1.32313
1.3228
1.32249
1.3222
1.32193
1.32167
1.32144
1.32122
1.32101
1.32083
1.32066
1.3205
1.32036
1.32024
1.32012
1.32003
1.31995
1.31988
1.31982
1.31979
1.31976
1.31975
1.31975
1.31977
1.3198
1.31985
1.31991
1.31998
1.32007
1.32018
1.32031
1.32045
1.3206
1.32078
1.32097
1.32119
1.32142
1.32167
1.32194
1.32224
1.32256
1.3229
1.32326
1.32365
1.32406
1.3245
1.32497
1.32546
1.32598
1.32653
1.32712
1.32772
1.32836
1.32903
1.32973
1.33045
1.33121
1.332
1.33281
1.33366
1.33453
1.33542
1.33634
1.33728
1.33824
1.33922
1.34021
1.34122
1.34224
1.34326
1.34429
1.34533
1.34636
1.34739
1.34842
1.34943
1.35043
1.35142
1.35239
1.35334
1.35427
1.35516
1.35603
1.35686
1.35766
1.35842
1.35914
1.35982
1.36046
1.36105
1.36161
1.36212
1.36259
1.36302
1.36342
1.36378
1.3641
1.36439
1.36466
1.36489
1.3651
1.36528
1.36545
1.36559
1.36571
1.36583
1.36592
1.366
1.36607
1.36614
1.36619
1.36623
1.36627
1.3663
1.36632
1.36635
1.36637
1.36638
1.36639
1.3664
1.36641
1.36641
1.36642
1.36642
1.36642
1.36642
1.36643
1.36643
1.36643
1.36643
1.36643
1.36643
1.36643
1.36643
1.36643
1.36643
1.36643
1.36643
1.36643
1.36643
1.36643
1.36643
1.36643
1.36643
1.36643
1.36643
1.36644
1.36644
1.36644