# vtk DataFile Version 2.0
LBE two cylinders
ASCII
DATASET STRUCTURED_POINTS
DIMENSIONS 400 100 1
ASPECT_RATIO 1 1 1
ORIGIN 0 0 0
POINT_DATA 40000
SCALARS rho double 1
LOOKUP_TABLE default
1.3386
1.33587
1.33613
1.33613
1.33519
1.33466
1.33431
1.33363
1.33299
1.33244
1.33184
1.3312
1.33062
1.33004
1.32945
1.32889
1.32834
1.32781
1.32729
1.32679
1.32631
1.32585
1.32541
1.32499
1.32459
1.32421
1.32384
1.3235
1.32317
1.32287
1.32258
1.32231
1.32206
1.32182
1.3216
1.32141
1.32122
1.32106
1.32091
1.32077
1.32066
1.32056
1.32047
1.32041
1.32035
1.32032
1.3203
1.3203
1.32031
1.32034
1.32039
1.32045
1.32054
1.32064
1.32075
1.32089
1.32104
1.32121
1.3214
1.32162
1.32185
1.3221
1.32237
1.32267
1.32299
1.32333
1.32369
1.32408
1.32449
1.32493
1.32539
1.32588
1.3264
1.32694
1.32751
1.32811
1.32873
1.32938
1.33006
1.33076
1.33149
1.33225
1.33303
1.33383
1.33466
1.33551
1.33638
1.33726
1.33817
1.33909
1.34002
1.34096
1.34191
1.34287
1.34383
1.34479
1.34575
1.34671
1.34766
1.3486
1.34952
1.35044
1.35133
1.3522
1.35305
1.35388
1.35468
1.35545
1.35619
1.3569
1.35758
1.35822
1.35882
1.3594
1.35993
1.36043
1.3609
1.36133
1.36172
1.36209
1.36242
1.36272
1.36299
1.36323
1.36345
1.36364
1.36381
1.36396
1.36409
1.3642
1.3643
1.36438
1.36444
1.36449
1.36454
1.36457
1.36459
1.36461
1.36462
1.36462
1.36462
1.36462
1.36461
1.3646
1.36458
1.36457
1.36455
1.36454
1.36452
1.3645
1.36449
1.36447
1.36446
1.36444
1.36443
1.36441
1.3644
1.36439
1.36438
1.36438
1.36437
1.36437
1.36436
1.36436
1.36436
1.36436
1.36437
1.36437
1.36438
1.36438
1.36439
1.3644
1.36441
1.36442
1.36443
1.36444
1.36445
1.36446
1.36448
1.36449
1.3645
1.36452
1.36453
1.36455
1.36456
1.36457
1.36458
1.3646
1.36461
1.36462
1.36463
1.36464
1.36465
1.36466
1.36467
1.36467
1.36468
1.36469
1.36469
1.3647
1.3647
1.3647
1.3647
1.36471
1.36471
1.36471
1.36471
1.36471
1.36471
1.36471
1.36471
1.36471
1.36471
1.36471
1.36471
1.36471
1.36471
1.36471
1.36471
1.36471
1.36471
1.36472
1.36472
1.36472
1.36472
1.36473
1.36473
1.36473
1.36474
1.36474
1.36474
1.36474
1.36474
1.36474
1.36474
1.36473
1.36473
1.36472
1.36471
1.3647
1.36469
1.36467
1.36465
1.36463
1.36461
1.36459
1.36456
1.36453
1.3645
1.36446
1.36442
1.36438
1.36434
1.3643
1.36425
1.3642
1.36415
1.3641
1.36405
1.36399
1.36393
1.36387
1.36381
1.36374
1.36368
1.36361
1.36353
1.36345
1.36337
1.36328
1.36319
1.36309
1.36298
1.36286
1.36273
1.36259
1.36244
1.36227
1.36208
1.36187
1.36164
1.3614
1.36112
1.36082
1.3605
1.36014
1.35975
1.35933
1.35888
1.35839
1.35787
1.35732
1.35673
1.3561
1.35544
1.35476
1.35403
1.35328
1.35251
1.35171
1.35088
1.35003
1.34917
1.34829
1.34739
1.34649
1.34558
1.34466
1.34373
1.34281
1.34188
1.34096
1.34004
1.33913
1.33822
1.33732
1.33644
1.33556
1.3347
1.33384
1.33301
1.33218
1.33138
1.33058
1.32981
1.32905
1.32831
1.32758
1.32687
1.32618
1.3255
1.32484
1.3242
1.32358
1.32297
1.32238
1.3218
1.32124
1.3207
1.32018
1.31966
1.31917
1.31869
1.31822
1.31777
1.31733
1.3169
1.31649
1.3161
1.31571
1.31534
1.31498
1.31464
1.31431
1.31398
1.31368
1.31338
1.31309
1.31282
1.31255
1.3123
1.31206
1.31182
1.3116
1.31139
1.31119
1.311
1.31082
1.31064
1.31048
1.31033
1.31018
1.31005
1.30992
1.3098
1.3097
1.3096
1.30952
1.30944
1.30937
1.30932
1.30928
1.30922
1.3092
1.30925
1.30922
1.30914
1.30929
1.30948
1.30916
1.30905
1.31001
1.30992
1.30788
1.30887
1.31279
1.30819
1.29948
1.31004
1.31912
1.33673
1.33685
1.33635
1.33567
1.33535
1.33485
1.33424
1.33365
1.3331
1.33248
1.33186
1.33127
1.33067
1.33008
1.3295
1.32894
1.32838
1.32785
1.32733
1.32684
1.32636
1.3259
1.32545
1.32503
1.32463
1.32424
1.32388
1.32353
1.32321
1.3229
1.32261
1.32234
1.32209
1.32185
1.32163
1.32143
1.32125
1.32108
1.32093
1.3208
1.32068
1.32058
1.3205
1.32043
1.32038
1.32034
1.32032
1.32032
1.32033
1.32036
1.32041
1.32047
1.32056
1.32065
1.32077
1.3209
1.32106
1.32123
1.32142
1.32163
1.32186
1.32211
1.32238
1.32268
1.32299
1.32333
1.3237
1.32408
1.32449
1.32493
1.32539
1.32588
1.32639
1.32693
1.3275
1.32809
1.32872
1.32936
1.33004
1.33074
1.33147
1.33222
1.333
1.3338
1.33462
1.33547
1.33634
1.33722
1.33812
1.33904
1.33997
1.34091
1.34186
1.34281
1.34377
1.34473
1.34569
1.34665
1.34759
1.34853
1.34946
1.35037
1.35126
1.35214
1.35299
1.35382
1.35462
1.35539
1.35613
1.35684
1.35752
1.35816
1.35877
1.35934
1.35988
1.36039
1.36085
1.36129
1.36168
1.36205
1.36238
1.36269
1.36296
1.36321
1.36343
1.36362
1.36379
1.36395
1.36408
1.36419
1.36428
1.36437
1.36443
1.36449
1.36453
1.36456
1.36459
1.3646
1.36461
1.36462
1.36462
1.36461
1.36461
1.3646
1.36458
1.36457
1.36455
1.36454
1.36452
1.3645
1.36449
1.36447
1.36446
1.36444
1.36443
1.36442
1.3644
1.36439
1.36439
1.36438
1.36437
1.36437
1.36437
1.36436
1.36436
1.36437
1.36437
1.36437
1.36438
1.36438
1.36439
1.3644
1.36441
1.36442
1.36443
1.36444
1.36445
1.36446
1.36448
1.36449
1.3645
1.36452
1.36453
1.36454
1.36456
1.36457
1.36458
1.3646
1.36461
1.36462
1.36463
1.36464
1.36465
1.36466
1.36466
1.36467
1.36468
1.36468
1.36469
1.36469
1.36469
1.3647
1.3647
1.3647
1.3647
1.3647
1.3647
1.3647
1.3647
1.3647
1.3647
1.3647
1.3647
1.3647
1.3647
1.3647
1.3647
1.3647
1.3647
1.3647
1.3647
1.36471
1.36471
1.36471
1.36471
1.36472
1.36472
1.36472
1.36472
1.36472
1.36472
1.36473
1.36472
1.36472
1.36472
1.36472
1.36471
1.3647
1.36469
1.36468
1.36467
1.36465
1.36464
1.36462
1.36459
1.36457
1.36454
1.36451
1.36448
1.36444
1.3644
1.36436
1.36432
1.36427
1.36423
1.36418
1.36413
1.36407
1.36402
1.36396
1.3639
1.36384
1.36377
1.36371
1.36364
1.36356
1.36349
1.36341
1.36332
1.36323
1.36314
1.36303
1.36292
1.3628
1.36267
1.36252
1.36237
1.36219
1.362
1.36179
1.36157
1.36132
1.36104
1.36074
1.36041
1.36006
1.35967
1.35925
1.3588
1.35831
1.35779
1.35724
1.35665
1.35603
1.35538
1.35469
1.35398
1.35323
1.35246
1.35166
1.35084
1.35
1.34914
1.34826
1.34737
1.34648
1.34557
1.34465
1.34373
1.34281
1.34189
1.34097
1.34006
1.33915
1.33825
1.33735
1.33647
1.33559
1.33473
1.33388
1.33305
1.33223
1.33142
1.33063
1.32986
1.3291
1.32835
1.32763
1.32692
1.32623
1.32555
1.32489
1.32425
1.32363
1.32302
1.32243
1.32185
1.32129
1.32075
1.32022
1.3197
1.31921
1.31872
1.31826
1.3178
1.31736
1.31694
1.31652
1.31613
1.31574
1.31537
1.31501
1.31466
1.31433
1.314
1.31369
1.31339
1.31311
1.31283
1.31256
1.31231
1.31206
1.31183
1.31161
1.31139
1.31119
1.31099
1.31081
1.31063
1.31047
1.31031
1.31016
1.31002
1.30989
1.30977
1.30966
1.30956
1.30947
1.30939
1.30932
1.30924
1.3092
1.30917
1.30912
1.30907
1.30911
1.30912
1.30901
1.30902
1.30929
1.30914
1.30866
1.3091
1.3098
1.3081
1.30664
1.30931
1.30878
1.29892
1.29346
1.33606
1.33702
1.33629
1.33557
1.33554
1.33496
1.33424
1.33374
1.33318
1.33251
1.33191
1.33132
1.3307
1.3301
1.32953
1.32896
1.32841
1.32787
1.32735
1.32685
1.32637
1.32591
1.32547
1.32504
1.32464
1.32426
1.32389
1.32354
1.32322
1.32291
1.32262
1.32235
1.32209
1.32186
1.32164
1.32144
1.32125
1.32109
1.32094
1.3208
1.32069
1.32059
1.3205
1.32043
1.32038
1.32035
1.32033
1.32032
1.32034
1.32037
1.32041
1.32048
1.32055
1.32065
1.32077
1.3209
1.32105
1.32122
1.32141
1.32162
1.32185
1.3221
1.32237
1.32267
1.32298
1.32332
1.32368
1.32406
1.32447
1.32491
1.32536
1.32585
1.32636
1.3269
1.32746
1.32805
1.32867
1.32932
1.32999
1.33069
1.33141
1.33217
1.33294
1.33374
1.33456
1.33541
1.33627
1.33715
1.33805
1.33897
1.3399
1.34084
1.34179
1.34274
1.3437
1.34466
1.34562
1.34658
1.34752
1.34847
1.34939
1.35031
1.3512
1.35208
1.35293
1.35377
1.35457
1.35535
1.35609
1.3568
1.35749
1.35813
1.35874
1.35932
1.35986
1.36037
1.36084
1.36128
1.36168
1.36205
1.36238
1.36269
1.36296
1.36321
1.36343
1.36363
1.3638
1.36395
1.36408
1.3642
1.36429
1.36437
1.36444
1.36449
1.36453
1.36457
1.36459
1.36461
1.36462
1.36463
1.36462
1.36462
1.36461
1.3646
1.36459
1.36458
1.36456
1.36454
1.36453
1.36451
1.36449
1.36448
1.36446
1.36445
1.36443
1.36442
1.36441
1.3644
1.36439
1.36439
1.36438
1.36438
1.36437
1.36437
1.36437
1.36437
1.36437
1.36438
1.36438
1.36439
1.3644
1.36441
1.36441
1.36443
1.36444
1.36445
1.36446
1.36447
1.36448
1.3645
1.36451
1.36452
1.36454
1.36455
1.36456
1.36458
1.36459
1.3646
1.36461
1.36462
1.36463
1.36464
1.36465
1.36466
1.36467
1.36468
1.36468
1.36469
1.36469
1.3647
1.3647
1.3647
1.3647
1.3647
1.36471
1.36471
1.36471
1.36471
1.3647
1.3647
1.3647
1.3647
1.3647
1.3647
1.3647
1.3647
1.3647
1.3647
1.3647
1.3647
1.3647
1.3647
1.36471
1.36471
1.36471
1.36471
1.36471
1.36472
1.36472
1.36472
1.36472
1.36472
1.36472
1.36472
1.36471
1.36471
1.3647
1.36469
1.36469
1.36467
1.36466
1.36464
1.36463
1.36461
1.36458
1.36456
1.36453
1.3645
1.36446
1.36443
1.36439
1.36435
1.3643
1.36426
1.36421
1.36416
1.3641
1.36405
1.36399
1.36393
1.36387
1.36381
1.36374
1.36367
1.3636
1.36353
1.36345
1.36337
1.36328
1.36319
1.36309
1.36298
1.36287
1.36275
1.36261
1.36247
1.36231
1.36213
1.36194
1.36173
1.3615
1.36125
1.36098
1.36068
1.36035
1.35999
1.3596
1.35918
1.35873
1.35825
1.35773
1.35718
1.35659
1.35597
1.35532
1.35464
1.35392
1.35318
1.35241
1.35162
1.3508
1.34996
1.3491
1.34823
1.34734
1.34645
1.34554
1.34463
1.34371
1.3428
1.34188
1.34096
1.34005
1.33914
1.33824
1.33735
1.33647
1.3356
1.33474
1.3339
1.33306
1.33224
1.33144
1.33065
1.32988
1.32912
1.32838
1.32765
1.32695
1.32625
1.32558
1.32492
1.32428
1.32365
1.32305
1.32245
1.32188
1.32132
1.32077
1.32024
1.31973
1.31923
1.31875
1.31828
1.31782
1.31738
1.31696
1.31654
1.31614
1.31576
1.31538
1.31502
1.31467
1.31434
1.31401
1.3137
1.3134
1.31311
1.31283
1.31256
1.31231
1.31206
1.31183
1.3116
1.31138
1.31118
1.31098
1.31079
1.31062
1.31045
1.31029
1.31014
1.31
1.30987
1.30974
1.30963
1.30952
1.30942
1.30933
1.30926
1.30919
1.30911
1.30908
1.30906
1.30896
1.30893
1.30905
1.30898
1.3087
1.30895
1.30936
1.30851
1.30794
1.30982
1.3095
1.30472
1.30673
1.31359
1.30123
1.28909
1.33648
1.33653
1.33639
1.33612
1.33558
1.33491
1.33443
1.33384
1.33317
1.33256
1.33196
1.33133
1.33071
1.33012
1.32953
1.32896
1.3284
1.32787
1.32734
1.32684
1.32636
1.3259
1.32545
1.32503
1.32462
1.32424
1.32387
1.32353
1.3232
1.32289
1.3226
1.32233
1.32208
1.32184
1.32162
1.32142
1.32124
1.32107
1.32092
1.32079
1.32067
1.32057
1.32048
1.32042
1.32036
1.32033
1.32031
1.32031
1.32032
1.32035
1.32039
1.32045
1.32053
1.32063
1.32074
1.32088
1.32103
1.3212
1.32138
1.32159
1.32182
1.32207
1.32234
1.32263
1.32294
1.32327
1.32363
1.32401
1.32442
1.32485
1.3253
1.32579
1.3263
1.32683
1.32739
1.32798
1.3286
1.32924
1.32991
1.3306
1.33133
1.33208
1.33285
1.33365
1.33447
1.33531
1.33617
1.33706
1.33796
1.33888
1.3398
1.34075
1.34169
1.34265
1.34361
1.34458
1.34554
1.3465
1.34745
1.3484
1.34933
1.35025
1.35115
1.35203
1.35289
1.35373
1.35453
1.35532
1.35607
1.35679
1.35747
1.35813
1.35874
1.35932
1.35987
1.36038
1.36085
1.36129
1.36169
1.36206
1.3624
1.36271
1.36298
1.36323
1.36345
1.36365
1.36382
1.36397
1.3641
1.36422
1.36431
1.36439
1.36446
1.36451
1.36455
1.36459
1.36461
1.36463
1.36463
1.36464
1.36464
1.36463
1.36462
1.36462
1.3646
1.36459
1.36457
1.36456
1.36454
1.36452
1.3645
1.36449
1.36447
1.36446
1.36444
1.36443
1.36442
1.36441
1.3644
1.3644
1.36439
1.36439
1.36438
1.36438
1.36438
1.36439
1.36439
1.36439
1.3644
1.3644
1.36441
1.36442
1.36443
1.36444
1.36445
1.36446
1.36447
1.36449
1.3645
1.36451
1.36453
1.36454
1.36455
1.36457
1.36458
1.36459
1.3646
1.36462
1.36463
1.36464
1.36465
1.36466
1.36467
1.36468
1.36468
1.36469
1.36469
1.3647
1.3647
1.36471
1.36471
1.36471
1.36471
1.36472
1.36472
1.36472
1.36472
1.36472
1.36471
1.36471
1.36471
1.36471
1.36471
1.36471
1.36471
1.36471
1.36471
1.36471
1.36471
1.36471
1.36471
1.36471
1.36471
1.36471
1.36471
1.36472
1.36472
1.36472
1.36472
1.36472
1.36472
1.36472
1.36472
1.36472
1.36471
1.36471
1.3647
1.3647
1.36469
1.36467
1.36466
1.36464
1.36462
1.3646
1.36458
1.36455
1.36452
1.36449
1.36446
1.36442
1.36438
1.36434
1.36429
1.36425
1.3642
1.36415
1.36409
1.36404
1.36398
1.36392
1.36385
1.36379
1.36372
1.36365
1.36358
1.3635
1.36342
1.36334
1.36325
1.36316
1.36306
1.36295
1.36283
1.36271
1.36257
1.36243
1.36226
1.36209
1.3619
1.36168
1.36145
1.3612
1.36092
1.36062
1.36029
1.35993
1.35955
1.35913
1.35867
1.35819
1.35767
1.35711
1.35653
1.35591
1.35525
1.35457
1.35385
1.35311
1.35234
1.35155
1.35073
1.34989
1.34903
1.34816
1.34728
1.34638
1.34548
1.34457
1.34365
1.34274
1.34182
1.34091
1.34
1.3391
1.3382
1.33731
1.33643
1.33556
1.33471
1.33387
1.33303
1.33222
1.33142
1.33063
1.32986
1.32911
1.32837
1.32764
1.32694
1.32625
1.32558
1.32492
1.32428
1.32366
1.32305
1.32246
1.32188
1.32132
1.32078
1.32025
1.31974
1.31924
1.31876
1.31829
1.31783
1.31739
1.31697
1.31655
1.31615
1.31576
1.31539
1.31503
1.31468
1.31434
1.31402
1.3137
1.3134
1.31311
1.31283
1.31256
1.31231
1.31206
1.31182
1.3116
1.31138
1.31117
1.31097
1.31079
1.31061
1.31044
1.31028
1.31012
1.30998
1.30985
1.30972
1.3096
1.3095
1.3094
1.3093
1.30922
1.30916
1.3091
1.30901
1.30898
1.30901
1.3089
1.30879
1.30898
1.30906
1.30858
1.30861
1.30951
1.30891
1.30723
1.3089
1.31057
1.30585
1.30381
1.30919
1.30984
1.33725
1.33692
1.33675
1.33637
1.33563
1.33507
1.33459
1.33386
1.3332
1.33262
1.33197
1.33131
1.33071
1.3301
1.3295
1.32893
1.32837
1.32782
1.3273
1.3268
1.32631
1.32585
1.3254
1.32498
1.32457
1.32419
1.32382
1.32348
1.32315
1.32284
1.32255
1.32228
1.32203
1.3218
1.32158
1.32138
1.3212
1.32103
1.32088
1.32075
1.32063
1.32053
1.32045
1.32038
1.32033
1.32029
1.32027
1.32027
1.32028
1.32031
1.32035
1.32041
1.32049
1.32059
1.3207
1.32083
1.32098
1.32115
1.32133
1.32154
1.32176
1.32201
1.32227
1.32256
1.32287
1.3232
1.32356
1.32394
1.32434
1.32476
1.32522
1.3257
1.3262
1.32673
1.32729
1.32787
1.32849
1.32913
1.32979
1.33049
1.33121
1.33195
1.33272
1.33352
1.33434
1.33519
1.33605
1.33693
1.33783
1.33875
1.33968
1.34063
1.34158
1.34254
1.34351
1.34448
1.34544
1.34641
1.34736
1.34832
1.34925
1.35018
1.35109
1.35198
1.35284
1.35369
1.35451
1.3553
1.35605
1.35678
1.35747
1.35813
1.35876
1.35934
1.35989
1.36041
1.36088
1.36132
1.36173
1.3621
1.36244
1.36275
1.36302
1.36327
1.36349
1.36369
1.36386
1.36401
1.36414
1.36425
1.36434
1.36442
1.36449
1.36454
1.36458
1.36461
1.36463
1.36465
1.36466
1.36466
1.36466
1.36465
1.36464
1.36463
1.36462
1.3646
1.36459
1.36457
1.36455
1.36454
1.36452
1.3645
1.36449
1.36447
1.36446
1.36445
1.36444
1.36443
1.36442
1.36441
1.36441
1.3644
1.3644
1.3644
1.3644
1.3644
1.36441
1.36441
1.36442
1.36442
1.36443
1.36444
1.36445
1.36446
1.36447
1.36448
1.36449
1.36451
1.36452
1.36453
1.36455
1.36456
1.36457
1.36459
1.3646
1.36461
1.36462
1.36464
1.36465
1.36466
1.36467
1.36468
1.36469
1.3647
1.3647
1.36471
1.36471
1.36472
1.36472
1.36473
1.36473
1.36473
1.36473
1.36473
1.36473
1.36473
1.36473
1.36473
1.36473
1.36473
1.36473
1.36473
1.36473
1.36473
1.36472
1.36472
1.36472
1.36472
1.36472
1.36472
1.36472
1.36472
1.36472
1.36473
1.36473
1.36473
1.36473
1.36473
1.36473
1.36473
1.36473
1.36473
1.36473
1.36473
1.36472
1.36472
1.36471
1.3647
1.36469
1.36468
1.36467
1.36465
1.36463
1.36461
1.36458
1.36456
1.36453
1.3645
1.36446
1.36442
1.36438
1.36434
1.36429
1.36425
1.3642
1.36414
1.36409
1.36403
1.36397
1.36391
1.36385
1.36378
1.36371
1.36364
1.36356
1.36349
1.36341
1.36332
1.36323
1.36314
1.36303
1.36292
1.36281
1.36268
1.36254
1.36239
1.36223
1.36206
1.36186
1.36165
1.36141
1.36116
1.36088
1.36057
1.36024
1.35988
1.35949
1.35906
1.35861
1.35812
1.35759
1.35703
1.35644
1.35582
1.35516
1.35447
1.35375
1.353
1.35223
1.35143
1.35061
1.34977
1.34892
1.34804
1.34716
1.34626
1.34536
1.34445
1.34354
1.34262
1.34171
1.3408
1.33989
1.33899
1.3381
1.33721
1.33634
1.33547
1.33462
1.33378
1.33296
1.33214
1.33135
1.33057
1.3298
1.32905
1.32832
1.3276
1.3269
1.32621
1.32554
1.32489
1.32426
1.32364
1.32303
1.32244
1.32187
1.32131
1.32077
1.32025
1.31974
1.31924
1.31876
1.31829
1.31784
1.3174
1.31697
1.31656
1.31616
1.31577
1.3154
1.31504
1.31469
1.31435
1.31403
1.31371
1.31341
1.31312
1.31284
1.31257
1.31232
1.31207
1.31183
1.3116
1.31139
1.31118
1.31098
1.31079
1.31061
1.31044
1.31028
1.31013
1.30999
1.30985
1.30973
1.30961
1.3095
1.30941
1.30932
1.30923
1.30916
1.30912
1.30907
1.30898
1.30899
1.30905
1.30891
1.30883
1.30917
1.30916
1.30855
1.30904
1.31006
1.30855
1.30762
1.31103
1.31036
1.30543
1.30878
1.31133
1.33814
1.3377
1.33714
1.33647
1.33592
1.33533
1.3346
1.3339
1.33329
1.33261
1.33192
1.3313
1.33067
1.33004
1.32944
1.32886
1.32829
1.32774
1.32722
1.32671
1.32622
1.32576
1.32531
1.32489
1.32449
1.3241
1.32374
1.32339
1.32307
1.32276
1.32248
1.32221
1.32196
1.32172
1.32151
1.32131
1.32113
1.32096
1.32082
1.32068
1.32057
1.32047
1.32039
1.32032
1.32027
1.32023
1.32021
1.32021
1.32022
1.32025
1.32029
1.32035
1.32043
1.32052
1.32063
1.32076
1.32091
1.32107
1.32126
1.32146
1.32168
1.32192
1.32219
1.32247
1.32278
1.3231
1.32345
1.32383
1.32423
1.32465
1.3251
1.32557
1.32607
1.3266
1.32715
1.32774
1.32834
1.32898
1.32964
1.33034
1.33105
1.3318
1.33257
1.33336
1.33418
1.33503
1.33589
1.33677
1.33768
1.3386
1.33953
1.34048
1.34144
1.3424
1.34337
1.34435
1.34532
1.34629
1.34726
1.34822
1.34917
1.3501
1.35102
1.35192
1.35279
1.35365
1.35448
1.35528
1.35604
1.35678
1.35748
1.35815
1.35878
1.35937
1.35993
1.36045
1.36093
1.36137
1.36178
1.36216
1.3625
1.3628
1.36308
1.36333
1.36355
1.36374
1.36391
1.36406
1.36419
1.36429
1.36439
1.36446
1.36452
1.36458
1.36461
1.36464
1.36466
1.36468
1.36469
1.36469
1.36468
1.36468
1.36467
1.36466
1.36464
1.36463
1.36461
1.36459
1.36457
1.36456
1.36454
1.36452
1.36451
1.36449
1.36448
1.36447
1.36446
1.36445
1.36444
1.36444
1.36443
1.36443
1.36442
1.36442
1.36442
1.36443
1.36443
1.36444
1.36444
1.36445
1.36446
1.36447
1.36448
1.36449
1.3645
1.36451
1.36452
1.36454
1.36455
1.36456
1.36458
1.36459
1.3646
1.36462
1.36463
1.36464
1.36465
1.36467
1.36468
1.36469
1.3647
1.36471
1.36472
1.36472
1.36473
1.36474
1.36474
1.36475
1.36475
1.36476
1.36476
1.36476
1.36476
1.36476
1.36476
1.36476
1.36476
1.36476
1.36476
1.36476
1.36475
1.36475
1.36475
1.36475
1.36475
1.36475
1.36475
1.36474
1.36474
1.36474
1.36474
1.36474
1.36475
1.36475
1.36475
1.36475
1.36475
1.36475
1.36475
1.36475
1.36475
1.36475
1.36475
1.36474
1.36474
1.36474
1.36473
1.36472
1.36471
1.3647
1.36468
1.36466
1.36464
1.36462
1.3646
1.36457
1.36454
1.36451
1.36447
1.36443
1.36439
1.36435
1.3643
1.36425
1.3642
1.36415
1.36409
1.36403
1.36397
1.36391
1.36385
1.36378
1.36371
1.36364
1.36356
1.36348
1.3634
1.36331
1.36322
1.36313
1.36302
1.36291
1.3628
1.36267
1.36253
1.36238
1.36221
1.36203
1.36184
1.36162
1.36138
1.36112
1.36084
1.36053
1.36019
1.35982
1.35942
1.35899
1.35853
1.35803
1.3575
1.35693
1.35633
1.3557
1.35503
1.35433
1.35361
1.35285
1.35207
1.35127
1.35045
1.3496
1.34874
1.34786
1.34698
1.34608
1.34517
1.34426
1.34335
1.34244
1.34153
1.34062
1.33971
1.33881
1.33792
1.33704
1.33617
1.33531
1.33447
1.33363
1.33281
1.33201
1.33122
1.33044
1.32969
1.32894
1.32822
1.32751
1.32681
1.32613
1.32547
1.32483
1.3242
1.32358
1.32299
1.3224
1.32184
1.32129
1.32075
1.32023
1.31972
1.31923
1.31875
1.31829
1.31784
1.3174
1.31698
1.31657
1.31617
1.31578
1.31541
1.31505
1.31471
1.31437
1.31405
1.31373
1.31343
1.31314
1.31287
1.3126
1.31234
1.31209
1.31186
1.31163
1.31142
1.31121
1.31101
1.31083
1.31065
1.31048
1.31032
1.31017
1.31003
1.3099
1.30978
1.30967
1.30956
1.30946
1.30938
1.30932
1.30924
1.30918
1.30919
1.30917
1.30906
1.30911
1.30931
1.30915
1.30898
1.30957
1.3098
1.30887
1.30935
1.3112
1.30983
1.30816
1.31147
1.31331
1.31032
1.31
1.33917
1.33834
1.33759
1.33683
1.33619
1.33543
1.33464
1.33399
1.33329
1.33255
1.33188
1.33124
1.33057
1.32994
1.32933
1.32874
1.32816
1.32762
1.32709
1.32658
1.3261
1.32563
1.32519
1.32477
1.32436
1.32398
1.32362
1.32328
1.32296
1.32265
1.32237
1.3221
1.32186
1.32163
1.32141
1.32122
1.32104
1.32088
1.32073
1.3206
1.32049
1.32039
1.3203
1.32024
1.32019
1.32015
1.32013
1.32013
1.32014
1.32017
1.32021
1.32027
1.32034
1.32044
1.32055
1.32067
1.32082
1.32098
1.32116
1.32136
1.32158
1.32182
1.32208
1.32236
1.32266
1.32298
1.32333
1.3237
1.32409
1.32451
1.32495
1.32542
1.32592
1.32644
1.32699
1.32757
1.32817
1.3288
1.32946
1.33015
1.33086
1.33161
1.33237
1.33317
1.33399
1.33483
1.3357
1.33658
1.33749
1.33841
1.33935
1.3403
1.34126
1.34224
1.34321
1.34419
1.34518
1.34616
1.34713
1.3481
1.34906
1.35001
1.35093
1.35185
1.35274
1.3536
1.35444
1.35525
1.35603
1.35678
1.35749
1.35817
1.35881
1.35941
1.35997
1.3605
1.36098
1.36143
1.36184
1.36222
1.36256
1.36287
1.36315
1.36339
1.36361
1.3638
1.36397
1.36412
1.36424
1.36435
1.36444
1.36451
1.36457
1.36462
1.36465
1.36468
1.3647
1.36471
1.36472
1.36472
1.36471
1.36471
1.3647
1.36468
1.36467
1.36465
1.36463
1.36462
1.3646
1.36458
1.36456
1.36455
1.36453
1.36452
1.36451
1.36449
1.36448
1.36448
1.36447
1.36446
1.36446
1.36445
1.36445
1.36445
1.36445
1.36446
1.36446
1.36447
1.36447
1.36448
1.36449
1.3645
1.36451
1.36452
1.36453
1.36455
1.36456
1.36457
1.36458
1.3646
1.36461
1.36463
1.36464
1.36465
1.36467
1.36468
1.36469
1.3647
1.36471
1.36472
1.36473
1.36474
1.36475
1.36476
1.36477
1.36477
1.36478
1.36478
1.36479
1.36479
1.36479
1.36479
1.36479
1.3648
1.3648
1.3648
1.36479
1.36479
1.36479
1.36479
1.36479
1.36479
1.36478
1.36478
1.36478
1.36478
1.36478
1.36478
1.36477
1.36477
1.36477
1.36477
1.36477
1.36477
1.36478
1.36478
1.36478
1.36478
1.36478
1.36478
1.36478
1.36477
1.36477
1.36477
1.36476
1.36476
1.36475
1.36474
1.36473
1.36472
1.3647
1.36468
1.36466
1.36464
1.36462
1.36459
1.36456
1.36452
1.36449
1.36445
1.36441
1.36436
1.36431
1.36427
1.36421
1.36416
1.3641
1.36404
1.36398
1.36392
1.36385
1.36379
1.36372
1.36364
1.36357
1.36349
1.36341
1.36332
1.36323
1.36313
1.36303
1.36292
1.3628
1.36266
1.36253
1.36237
1.3622
1.36202
1.36182
1.3616
1.36136
1.36109
1.3608
1.36048
1.36014
1.35976
1.35935
1.35891
1.35843
1.35793
1.35738
1.3568
1.35619
1.35555
1.35487
1.35416
1.35343
1.35266
1.35187
1.35106
1.35023
1.34938
1.34851
1.34763
1.34674
1.34584
1.34493
1.34402
1.3431
1.34219
1.34128
1.34037
1.33947
1.33857
1.33769
1.33681
1.33594
1.33509
1.33425
1.33342
1.33261
1.33181
1.33103
1.33026
1.32952
1.32878
1.32806
1.32736
1.32668
1.32601
1.32536
1.32472
1.3241
1.3235
1.32291
1.32234
1.32178
1.32124
1.32071
1.32019
1.31969
1.31921
1.31874
1.31828
1.31783
1.3174
1.31698
1.31658
1.31618
1.3158
1.31544
1.31508
1.31474
1.3144
1.31408
1.31377
1.31348
1.31319
1.31291
1.31265
1.31239
1.31215
1.31192
1.31169
1.31148
1.31127
1.31108
1.3109
1.31072
1.31056
1.3104
1.31025
1.31012
1.30999
1.30988
1.30977
1.30968
1.3096
1.30951
1.30946
1.30943
1.30937
1.30934
1.3094
1.30942
1.30933
1.30948
1.30976
1.30958
1.30956
1.31041
1.31052
1.30971
1.31096
1.31247
1.31109
1.31133
1.31389
1.31418
1.31485
1.34017
1.33891
1.33807
1.33724
1.33635
1.33551
1.33476
1.334
1.33321
1.33249
1.33181
1.3311
1.33043
1.3298
1.32918
1.32857
1.328
1.32745
1.32692
1.32641
1.32593
1.32547
1.32502
1.3246
1.32421
1.32383
1.32347
1.32313
1.32281
1.32252
1.32223
1.32197
1.32173
1.3215
1.32129
1.3211
1.32092
1.32076
1.32062
1.32049
1.32038
1.32029
1.3202
1.32014
1.32009
1.32005
1.32003
1.32003
1.32004
1.32007
1.32011
1.32017
1.32024
1.32033
1.32044
1.32057
1.32071
1.32087
1.32104
1.32124
1.32146
1.32169
1.32194
1.32222
1.32252
1.32284
1.32318
1.32354
1.32393
1.32434
1.32478
1.32525
1.32573
1.32625
1.3268
1.32737
1.32796
1.32859
1.32925
1.32993
1.33064
1.33138
1.33215
1.33294
1.33376
1.3346
1.33547
1.33636
1.33726
1.33819
1.33913
1.34009
1.34106
1.34204
1.34302
1.34401
1.345
1.34599
1.34698
1.34796
1.34893
1.34989
1.35083
1.35175
1.35266
1.35354
1.35439
1.35522
1.35601
1.35677
1.3575
1.35819
1.35884
1.35945
1.36002
1.36055
1.36105
1.3615
1.36191
1.36229
1.36264
1.36294
1.36322
1.36347
1.36368
1.36387
1.36404
1.36418
1.3643
1.36441
1.36449
1.36456
1.36462
1.36467
1.3647
1.36473
1.36474
1.36475
1.36475
1.36476
1.36475
1.36474
1.36473
1.36471
1.3647
1.36468
1.36466
1.36465
1.36463
1.36461
1.36459
1.36458
1.36456
1.36455
1.36453
1.36452
1.36451
1.36451
1.3645
1.36449
1.36449
1.36449
1.36449
1.36449
1.36449
1.36449
1.3645
1.3645
1.36451
1.36452
1.36453
1.36454
1.36455
1.36456
1.36457
1.36459
1.3646
1.36461
1.36463
1.36464
1.36465
1.36467
1.36468
1.3647
1.36471
1.36472
1.36473
1.36475
1.36476
1.36477
1.36478
1.36479
1.3648
1.3648
1.36481
1.36482
1.36482
1.36483
1.36483
1.36483
1.36484
1.36484
1.36484
1.36484
1.36484
1.36484
1.36484
1.36483
1.36483
1.36483
1.36483
1.36483
1.36482
1.36482
1.36482
1.36482
1.36482
1.36481
1.36481
1.36481
1.36481
1.36481
1.36481
1.36481
1.36481
1.36481
1.36481
1.36481
1.36481
1.36481
1.36481
1.36481
1.3648
1.3648
1.3648
1.36479
1.36478
1.36477
1.36476
1.36475
1.36473
1.36471
1.36469
1.36467
1.36464
1.36461
1.36458
1.36455
1.36451
1.36447
1.36443
1.36438
1.36433
1.36428
1.36423
1.36418
1.36412
1.36406
1.364
1.36394
1.36387
1.3638
1.36373
1.36366
1.36358
1.3635
1.36342
1.36334
1.36324
1.36314
1.36304
1.36293
1.3628
1.36267
1.36253
1.36237
1.3622
1.36202
1.36181
1.36159
1.36134
1.36107
1.36077
1.36044
1.36008
1.3597
1.35928
1.35882
1.35833
1.35781
1.35725
1.35666
1.35603
1.35537
1.35468
1.35396
1.35321
1.35243
1.35163
1.3508
1.34996
1.3491
1.34823
1.34734
1.34645
1.34554
1.34463
1.34372
1.3428
1.34188
1.34097
1.34007
1.33916
1.33827
1.33739
1.33651
1.33565
1.3348
1.33397
1.33315
1.33235
1.33156
1.33079
1.33003
1.32929
1.32857
1.32786
1.32717
1.3265
1.32585
1.32521
1.32458
1.32398
1.32338
1.3228
1.32224
1.3217
1.32116
1.32065
1.32014
1.31965
1.31918
1.31871
1.31826
1.31783
1.3174
1.31699
1.31659
1.31621
1.31583
1.31547
1.31512
1.31478
1.31446
1.31414
1.31384
1.31354
1.31326
1.31299
1.31273
1.31248
1.31223
1.31201
1.31179
1.31158
1.31138
1.31119
1.31101
1.31084
1.31068
1.31053
1.31039
1.31026
1.31014
1.31004
1.30994
1.30985
1.30979
1.30973
1.30967
1.30966
1.30968
1.30964
1.30964
1.3098
1.30988
1.30978
1.31007
1.31056
1.31034
1.31037
1.31165
1.31192
1.31106
1.31254
1.31467
1.31412
1.31415
1.31698
1.31904
1.34098
1.33948
1.33848
1.33748
1.33648
1.33562
1.33478
1.33392
1.33312
1.33239
1.33165
1.33092
1.33026
1.32961
1.32897
1.32837
1.3278
1.32724
1.32671
1.32621
1.32572
1.32526
1.32483
1.32441
1.32402
1.32364
1.32329
1.32296
1.32265
1.32235
1.32208
1.32182
1.32158
1.32136
1.32115
1.32096
1.32079
1.32063
1.32049
1.32037
1.32026
1.32017
1.32009
1.32002
1.31997
1.31994
1.31992
1.31992
1.31993
1.31996
1.32
1.32005
1.32013
1.32022
1.32032
1.32044
1.32058
1.32074
1.32091
1.3211
1.32132
1.32154
1.32179
1.32207
1.32236
1.32267
1.323
1.32336
1.32374
1.32415
1.32458
1.32504
1.32552
1.32603
1.32657
1.32713
1.32773
1.32835
1.329
1.32968
1.33039
1.33112
1.33189
1.33268
1.33349
1.33434
1.3352
1.33609
1.337
1.33793
1.33888
1.33984
1.34082
1.3418
1.3428
1.3438
1.3448
1.3458
1.3468
1.34779
1.34877
1.34974
1.3507
1.35164
1.35256
1.35346
1.35433
1.35517
1.35598
1.35676
1.3575
1.3582
1.35886
1.35949
1.36007
1.36061
1.36111
1.36157
1.36199
1.36237
1.36272
1.36303
1.3633
1.36355
1.36376
1.36395
1.36411
1.36426
1.36437
1.36447
1.36456
1.36463
1.36468
1.36472
1.36475
1.36477
1.36479
1.3648
1.3648
1.36479
1.36479
1.36478
1.36476
1.36475
1.36473
1.36471
1.36469
1.36468
1.36466
1.36464
1.36462
1.36461
1.36459
1.36458
1.36457
1.36456
1.36455
1.36454
1.36453
1.36453
1.36453
1.36453
1.36452
1.36453
1.36453
1.36453
1.36454
1.36455
1.36455
1.36456
1.36457
1.36458
1.36459
1.36461
1.36462
1.36463
1.36465
1.36466
1.36467
1.36469
1.3647
1.36472
1.36473
1.36475
1.36476
1.36477
1.36479
1.3648
1.36481
1.36482
1.36483
1.36484
1.36485
1.36486
1.36486
1.36487
1.36487
1.36488
1.36488
1.36488
1.36489
1.36489
1.36489
1.36489
1.36489
1.36489
1.36489
1.36488
1.36488
1.36488
1.36488
1.36488
1.36487
1.36487
1.36487
1.36487
1.36486
1.36486
1.36486
1.36486
1.36486
1.36486
1.36486
1.36486
1.36485
1.36485
1.36485
1.36485
1.36485
1.36485
1.36485
1.36485
1.36484
1.36484
1.36483
1.36483
1.36482
1.36481
1.36479
1.36478
1.36476
1.36474
1.36472
1.3647
1.36467
1.36464
1.36461
1.36457
1.36453
1.36449
1.36445
1.36441
1.36436
1.36431
1.36425
1.3642
1.36414
1.36408
1.36402
1.36396
1.36389
1.36382
1.36376
1.36368
1.36361
1.36353
1.36345
1.36336
1.36326
1.36317
1.36306
1.36295
1.36283
1.3627
1.36255
1.36239
1.36222
1.36202
1.36181
1.36158
1.36133
1.36104
1.36074
1.3604
1.36003
1.35963
1.35919
1.35873
1.35822
1.35768
1.3571
1.35649
1.35585
1.35517
1.35446
1.35372
1.35295
1.35216
1.35135
1.35051
1.34965
1.34879
1.34791
1.34701
1.3461
1.3452
1.34428
1.34336
1.34245
1.34153
1.34062
1.33971
1.33881
1.33792
1.33704
1.33617
1.33531
1.33447
1.33364
1.33283
1.33203
1.33125
1.33049
1.32975
1.32902
1.32831
1.32762
1.32694
1.32628
1.32564
1.32502
1.3244
1.32381
1.32323
1.32267
1.32212
1.32159
1.32107
1.32057
1.32008
1.3196
1.31913
1.31868
1.31824
1.31782
1.31741
1.31701
1.31662
1.31624
1.31587
1.31552
1.31518
1.31485
1.31453
1.31422
1.31392
1.31363
1.31335
1.31309
1.31283
1.31259
1.31235
1.31213
1.31191
1.31171
1.31152
1.31133
1.31116
1.311
1.31084
1.3107
1.31057
1.31045
1.31034
1.31025
1.31017
1.31009
1.31003
1.31001
1.30998
1.30995
1.30999
1.31007
1.31007
1.31014
1.31041
1.31054
1.31051
1.311
1.31159
1.31141
1.31181
1.31322
1.31353
1.31346
1.31506
1.31663
1.31747
1.31881
1.32042
1.34154
1.3399
1.33875
1.3376
1.33658
1.33563
1.33467
1.33381
1.333
1.3322
1.33143
1.33072
1.33003
1.32935
1.32872
1.32812
1.32754
1.32699
1.32646
1.32596
1.32548
1.32503
1.32459
1.32418
1.3238
1.32343
1.32308
1.32276
1.32245
1.32216
1.32189
1.32164
1.32141
1.32119
1.32099
1.32081
1.32064
1.32049
1.32035
1.32023
1.32012
1.32003
1.31995
1.31989
1.31985
1.31981
1.31979
1.31979
1.3198
1.31983
1.31987
1.31993
1.32
1.32008
1.32019
1.32031
1.32044
1.32059
1.32076
1.32095
1.32116
1.32138
1.32163
1.32189
1.32218
1.32248
1.32281
1.32316
1.32354
1.32394
1.32436
1.32481
1.32529
1.32579
1.32632
1.32688
1.32747
1.32808
1.32872
1.3294
1.3301
1.33083
1.33159
1.33238
1.33319
1.33404
1.3349
1.33579
1.33671
1.33764
1.33859
1.33956
1.34054
1.34153
1.34253
1.34354
1.34455
1.34557
1.34658
1.34758
1.34858
1.34957
1.35054
1.3515
1.35244
1.35335
1.35424
1.35511
1.35593
1.35673
1.35749
1.3582
1.35888
1.35952
1.36012
1.36067
1.36117
1.36164
1.36207
1.36245
1.3628
1.36311
1.36339
1.36363
1.36385
1.36403
1.36419
1.36433
1.36445
1.36454
1.36462
1.36469
1.36474
1.36477
1.36481
1.36483
1.36484
1.36484
1.36484
1.36484
1.36483
1.36482
1.3648
1.36479
1.36477
1.36475
1.36473
1.36471
1.3647
1.36468
1.36466
1.36465
1.36463
1.36462
1.36461
1.3646
1.36459
1.36458
1.36457
1.36457
1.36457
1.36457
1.36457
1.36457
1.36457
1.36458
1.36459
1.36459
1.3646
1.36461
1.36462
1.36464
1.36465
1.36466
1.36467
1.36469
1.3647
1.36472
1.36473