# vtk DataFile Version 2.0
LBE two cylinders
ASCII
DATASET STRUCTURED_POINTS
DIMENSIONS 400 100 1
ASPECT_RATIO 1 1 1
ORIGIN 0 0 0
POINT_DATA 40000
SCALARS rho double 1
LOOKUP_TABLE default
1.33861
1.33589
1.33615
1.33617
1.33524
1.3347
1.33437
1.33368
1.33304
1.3325
1.33188
1.33125
1.33066
1.33007
1.32948
1.32891
1.32836
1.32782
1.32729
1.32679
1.32631
1.32584
1.32539
1.32496
1.32456
1.32417
1.3238
1.32345
1.32312
1.32281
1.32252
1.32224
1.32198
1.32175
1.32153
1.32132
1.32113
1.32097
1.32081
1.32067
1.32055
1.32045
1.32036
1.32029
1.32023
1.32019
1.32016
1.32015
1.32016
1.32018
1.32022
1.32028
1.32035
1.32044
1.32055
1.32067
1.32082
1.32098
1.32116
1.32136
1.32158
1.32182
1.32209
1.32237
1.32268
1.32301
1.32336
1.32374
1.32415
1.32458
1.32503
1.32552
1.32602
1.32656
1.32712
1.32771
1.32833
1.32898
1.32965
1.33036
1.33108
1.33184
1.33262
1.33343
1.33426
1.33511
1.33598
1.33687
1.33779
1.33871
1.33966
1.34061
1.34158
1.34255
1.34352
1.3445
1.34548
1.34646
1.34743
1.34839
1.34935
1.35029
1.35121
1.35211
1.353
1.35386
1.35469
1.3555
1.35628
1.35702
1.35774
1.35842
1.35907
1.35969
1.36026
1.36081
1.36132
1.3618
1.36224
1.36265
1.36303
1.36338
1.3637
1.36399
1.36426
1.3645
1.36472
1.36491
1.36509
1.36525
1.36539
1.36551
1.36562
1.36572
1.3658
1.36588
1.36594
1.36599
1.36604
1.36608
1.36612
1.36614
1.36617
1.36619
1.3662
1.36621
1.36622
1.36623
1.36624
1.36624
1.36624
1.36624
1.36624
1.36624
1.36624
1.36624
1.36624
1.36623
1.36623
1.36623
1.36623
1.36622
1.36622
1.36622
1.36621
1.36621
1.36621
1.36621
1.36621
1.3662
1.3662
1.3662
1.3662
1.3662
1.3662
1.3662
1.3662
1.3662
1.3662
1.3662
1.3662
1.36621
1.36621
1.36621
1.36621
1.36622
1.36622
1.36622
1.36623
1.36623
1.36624
1.36625
1.36625
1.36626
1.36627
1.36628
1.36629
1.3663
1.36631
1.36632
1.36633
1.36635
1.36636
1.36637
1.36639
1.36641
1.36642
1.36644
1.36646
1.36648
1.3665
1.36653
1.36655
1.36657
1.3666
1.36662
1.36664
1.36667
1.3667
1.36672
1.36675
1.36677
1.3668
1.36683
1.36685
1.36688
1.3669
1.36692
1.36694
1.36696
1.36698
1.36699
1.36701
1.36702
1.36702
1.36702
1.36702
1.36702
1.36701
1.367
1.36698
1.36696
1.36693
1.3669
1.36686
1.36681
1.36676
1.36671
1.36664
1.36658
1.3665
1.36642
1.36634
1.36625
1.36616
1.36606
1.36595
1.36584
1.36573
1.36561
1.36549
1.36537
1.36524
1.36511
1.36497
1.36483
1.36468
1.36453
1.36438
1.36422
1.36405
1.36388
1.3637
1.36351
1.36331
1.3631
1.36287
1.36263
1.36238
1.36211
1.36182
1.36151
1.36117
1.36081
1.36042
1.36001
1.35957
1.3591
1.35859
1.35806
1.35749
1.35689
1.35626
1.3556
1.3549
1.35418
1.35343
1.35265
1.35185
1.35103
1.35018
1.34932
1.34844
1.34755
1.34665
1.34574
1.34482
1.3439
1.34298
1.34206
1.34114
1.34023
1.33932
1.33841
1.33752
1.33664
1.33577
1.33491
1.33406
1.33323
1.33241
1.3316
1.33081
1.33004
1.32929
1.32855
1.32783
1.32712
1.32643
1.32576
1.3251
1.32446
1.32384
1.32324
1.32265
1.32207
1.32151
1.32097
1.32044
1.31993
1.31943
1.31895
1.31848
1.31803
1.31759
1.31716
1.31674
1.31634
1.31595
1.31557
1.31521
1.31486
1.31452
1.31419
1.31387
1.31356
1.31327
1.31298
1.31271
1.31244
1.31219
1.31195
1.31171
1.31149
1.31128
1.31107
1.31088
1.31069
1.31052
1.31035
1.31019
1.31004
1.3099
1.30977
1.30965
1.30954
1.30944
1.30935
1.30926
1.30918
1.30913
1.30909
1.30902
1.30899
1.30903
1.30899
1.30889
1.30904
1.30922
1.30888
1.30876
1.3097
1.30959
1.30754
1.30851
1.3124
1.30779
1.29907
1.30961
1.31866
1.33674
1.33687
1.33638
1.3357
1.33539
1.3349
1.3343
1.33371
1.33316
1.33253
1.33191
1.33132
1.33071
1.33011
1.32953
1.32896
1.3284
1.32786
1.32734
1.32684
1.32635
1.32588
1.32543
1.32501
1.3246
1.32421
1.32384
1.32349
1.32316
1.32284
1.32255
1.32227
1.32202
1.32178
1.32156
1.32135
1.32116
1.32099
1.32084
1.3207
1.32058
1.32048
1.32039
1.32031
1.32026
1.32021
1.32019
1.32018
1.32018
1.32021
1.32024
1.3203
1.32037
1.32046
1.32057
1.32069
1.32083
1.321
1.32118
1.32138
1.3216
1.32184
1.3221
1.32238
1.32269
1.32302
1.32337
1.32375
1.32415
1.32458
1.32504
1.32551
1.32602
1.32656
1.32712
1.3277
1.32832
1.32897
1.32964
1.33034
1.33106
1.33181
1.33259
1.3334
1.33422
1.33507
1.33594
1.33683
1.33774
1.33867
1.33961
1.34056
1.34152
1.34249
1.34347
1.34444
1.34542
1.3464
1.34737
1.34833
1.34928
1.35022
1.35114
1.35205
1.35293
1.35379
1.35463
1.35543
1.35621
1.35696
1.35768
1.35837
1.35902
1.35963
1.36022
1.36076
1.36128
1.36176
1.3622
1.36261
1.363
1.36335
1.36367
1.36397
1.36423
1.36448
1.3647
1.36489
1.36507
1.36523
1.36537
1.3655
1.36561
1.36571
1.36579
1.36587
1.36593
1.36599
1.36603
1.36608
1.36611
1.36614
1.36616
1.36618
1.3662
1.36621
1.36622
1.36623
1.36623
1.36624
1.36624
1.36624
1.36624
1.36624
1.36624
1.36624
1.36623
1.36623
1.36623
1.36623
1.36622
1.36622
1.36622
1.36621
1.36621
1.36621
1.36621
1.3662
1.3662
1.3662
1.3662
1.3662
1.3662
1.3662
1.3662
1.36619
1.36619
1.3662
1.3662
1.3662
1.3662
1.3662
1.3662
1.3662
1.36621
1.36621
1.36621
1.36622
1.36622
1.36623
1.36623
1.36624
1.36624
1.36625
1.36626
1.36627
1.36628
1.36629
1.3663
1.36631
1.36632
1.36633
1.36635
1.36636
1.36638
1.3664
1.36641
1.36643
1.36645
1.36647
1.36649
1.36651
1.36653
1.36656
1.36658
1.3666
1.36663
1.36665
1.36668
1.3667
1.36673
1.36675
1.36678
1.36681
1.36683
1.36685
1.36688
1.3669
1.36692
1.36694
1.36695
1.36697
1.36698
1.36699
1.367
1.367
1.367
1.36699
1.36698
1.36697
1.36695
1.36693
1.3669
1.36687
1.36683
1.36678
1.36673
1.36668
1.36661
1.36655
1.36647
1.36639
1.36631
1.36622
1.36613
1.36603
1.36592
1.36581
1.3657
1.36558
1.36546
1.36533
1.3652
1.36506
1.36493
1.36478
1.36464
1.36448
1.36433
1.36417
1.364
1.36382
1.36364
1.36345
1.36324
1.36303
1.3628
1.36256
1.36231
1.36203
1.36174
1.36143
1.36109
1.36073
1.36034
1.35993
1.35949
1.35902
1.35851
1.35798
1.35742
1.35682
1.35619
1.35553
1.35484
1.35412
1.35337
1.3526
1.3518
1.35099
1.35015
1.34929
1.34842
1.34753
1.34663
1.34573
1.34482
1.3439
1.34298
1.34207
1.34115
1.34024
1.33934
1.33844
1.33755
1.33667
1.3358
1.33494
1.3341
1.33327
1.33245
1.33165
1.33086
1.33009
1.32934
1.3286
1.32787
1.32717
1.32648
1.32581
1.32515
1.32451
1.32389
1.32329
1.32269
1.32212
1.32156
1.32102
1.32049
1.31998
1.31948
1.31899
1.31852
1.31807
1.31762
1.31719
1.31678
1.31637
1.31598
1.3156
1.31524
1.31488
1.31454
1.31421
1.31389
1.31358
1.31328
1.313
1.31272
1.31246
1.3122
1.31195
1.31172
1.31149
1.31128
1.31107
1.31087
1.31069
1.31051
1.31034
1.31018
1.31003
1.30988
1.30975
1.30962
1.30951
1.3094
1.3093
1.30922
1.30914
1.30906
1.309
1.30897
1.30891
1.30885
1.30888
1.30888
1.30876
1.30876
1.30902
1.30885
1.30836
1.30878
1.30946
1.30775
1.30626
1.30891
1.30836
1.2985
1.29303
1.33606
1.33705
1.33633
1.33561
1.33559
1.33501
1.33429
1.3338
1.33324
1.33256
1.33196
1.33137
1.33075
1.33015
1.32957
1.32899
1.32843
1.32789
1.32737
1.32686
1.32637
1.3259
1.32545
1.32502
1.32461
1.32422
1.32385
1.3235
1.32317
1.32286
1.32256
1.32229
1.32203
1.32179
1.32157
1.32136
1.32118
1.32101
1.32085
1.32071
1.32059
1.32049
1.3204
1.32032
1.32026
1.32022
1.3202
1.32019
1.32019
1.32021
1.32025
1.3203
1.32038
1.32046
1.32057
1.32069
1.32083
1.32099
1.32117
1.32137
1.32159
1.32183
1.32209
1.32237
1.32268
1.32301
1.32336
1.32373
1.32413
1.32456
1.32501
1.32549
1.32599
1.32652
1.32708
1.32767
1.32828
1.32892
1.32959
1.33029
1.33101
1.33176
1.33254
1.33334
1.33416
1.33501
1.33588
1.33677
1.33768
1.3386
1.33954
1.34049
1.34145
1.34242
1.3434
1.34437
1.34535
1.34633
1.3473
1.34826
1.34922
1.35016
1.35108
1.35199
1.35288
1.35374
1.35458
1.35539
1.35617
1.35693
1.35765
1.35834
1.35899
1.35961
1.3602
1.36075
1.36126
1.36174
1.36219
1.36261
1.36299
1.36334
1.36367
1.36396
1.36423
1.36448
1.3647
1.36489
1.36507
1.36523
1.36537
1.3655
1.36561
1.36571
1.36579
1.36587
1.36593
1.36599
1.36604
1.36608
1.36611
1.36614
1.36616
1.36618
1.3662
1.36621
1.36622
1.36623
1.36623
1.36624
1.36624
1.36624
1.36624
1.36624
1.36624
1.36623
1.36623
1.36623
1.36623
1.36622
1.36622
1.36622
1.36621
1.36621
1.36621
1.3662
1.3662
1.3662
1.3662
1.3662
1.36619
1.36619
1.36619
1.36619
1.36619
1.36619
1.36619
1.36619
1.36619
1.36619
1.36619
1.36619
1.3662
1.3662
1.3662
1.3662
1.36621
1.36621
1.36621
1.36622
1.36622
1.36623
1.36624
1.36624
1.36625
1.36626
1.36627
1.36628
1.36629
1.3663
1.36631
1.36632
1.36634
1.36635
1.36637
1.36638
1.3664
1.36642
1.36644
1.36646
1.36648
1.3665
1.36652
1.36654
1.36656
1.36659
1.36661
1.36663
1.36666
1.36668
1.36671
1.36674
1.36676
1.36678
1.36681
1.36683
1.36685
1.36688
1.3669
1.36691
1.36693
1.36694
1.36696
1.36697
1.36697
1.36697
1.36697
1.36697
1.36696
1.36695
1.36693
1.3669
1.36688
1.36684
1.3668
1.36676
1.36671
1.36665
1.36659
1.36652
1.36645
1.36637
1.36628
1.36619
1.3661
1.366
1.36589
1.36578
1.36567
1.36555
1.36542
1.3653
1.36516
1.36503
1.36489
1.36474
1.36459
1.36444
1.36428
1.36412
1.36395
1.36377
1.36359
1.36339
1.36319
1.36297
1.36274
1.3625
1.36224
1.36197
1.36168
1.36136
1.36103
1.36066
1.36028
1.35987
1.35942
1.35895
1.35845
1.35792
1.35736
1.35676
1.35613
1.35548
1.35479
1.35407
1.35333
1.35256
1.35176
1.35094
1.35011
1.34925
1.34838
1.3475
1.34661
1.3457
1.3448
1.34388
1.34297
1.34206
1.34114
1.34024
1.33933
1.33844
1.33755
1.33667
1.33581
1.33495
1.33411
1.33328
1.33247
1.33167
1.33088
1.33011
1.32936
1.32862
1.3279
1.3272
1.32651
1.32584
1.32518
1.32454
1.32392
1.32331
1.32272
1.32215
1.32159
1.32105
1.32052
1.32
1.3195
1.31902
1.31855
1.31809
1.31765
1.31722
1.3168
1.31639
1.316
1.31562
1.31526
1.3149
1.31456
1.31422
1.3139
1.31359
1.31329
1.31301
1.31273
1.31246
1.3122
1.31196
1.31172
1.31149
1.31127
1.31107
1.31087
1.31068
1.3105
1.31032
1.31016
1.31001
1.30986
1.30972
1.30959
1.30948
1.30937
1.30926
1.30916
1.30909
1.309
1.30892
1.30888
1.30885
1.30875
1.3087
1.30881
1.30873
1.30844
1.30868
1.30907
1.30821
1.30763
1.30948
1.30914
1.30436
1.30635
1.31317
1.30082
1.28869
1.33649
1.33656
1.33643
1.33617
1.33563
1.33497
1.33449
1.3339
1.33323
1.33262
1.33202
1.33138
1.33077
1.33017
1.32958
1.32899
1.32844
1.32789
1.32736
1.32685
1.32636
1.32589
1.32544
1.32501
1.3246
1.32421
1.32384
1.32349
1.32316
1.32285
1.32255
1.32228
1.32202
1.32178
1.32156
1.32135
1.32117
1.321
1.32084
1.3207
1.32058
1.32048
1.32039
1.32031
1.32025
1.32021
1.32019
1.32017
1.32018
1.3202
1.32024
1.32029
1.32036
1.32045
1.32055
1.32068
1.32081
1.32097
1.32115
1.32135
1.32156
1.3218
1.32206
1.32234
1.32264
1.32297
1.32332
1.32369
1.32409
1.32451
1.32496
1.32543
1.32593
1.32646
1.32701
1.3276
1.32821
1.32885
1.32951
1.33021
1.33093
1.33168
1.33245
1.33325
1.33407
1.33492
1.33579
1.33667
1.33758
1.33851
1.33945
1.3404
1.34136
1.34233
1.34331
1.34429
1.34527
1.34625
1.34723
1.3482
1.34915
1.3501
1.35103
1.35194
1.35283
1.3537
1.35454
1.35536
1.35615
1.35691
1.35763
1.35833
1.35899
1.35961
1.3602
1.36075
1.36127
1.36175
1.3622
1.36262
1.36301
1.36336
1.36368
1.36398
1.36425
1.36449
1.36471
1.36491
1.36509
1.36525
1.36539
1.36551
1.36562
1.36572
1.3658
1.36588
1.36594
1.36599
1.36604
1.36608
1.36611
1.36614
1.36617
1.36618
1.3662
1.36621
1.36622
1.36623
1.36623
1.36623
1.36624
1.36624
1.36624
1.36624
1.36623
1.36623
1.36623
1.36623
1.36622
1.36622
1.36622
1.36621
1.36621
1.36621
1.3662
1.3662
1.3662
1.3662
1.36619
1.36619
1.36619
1.36619
1.36619
1.36619
1.36619
1.36619
1.36619
1.36619
1.36619
1.36619
1.36619
1.36619
1.36619
1.36619
1.36619
1.3662
1.3662
1.3662
1.36621
1.36621
1.36622
1.36622
1.36623
1.36624
1.36624
1.36625
1.36626
1.36627
1.36628
1.36629
1.3663
1.36631
1.36633
1.36634
1.36635
1.36637
1.36639
1.3664
1.36642
1.36644
1.36646
1.36648
1.3665
1.36652
1.36655
1.36657
1.36659
1.36662
1.36664
1.36667
1.36669
1.36672
1.36674
1.36676
1.36679
1.36681
1.36683
1.36685
1.36687
1.36689
1.36691
1.36692
1.36693
1.36694
1.36695
1.36695
1.36695
1.36695
1.36694
1.36692
1.36691
1.36688
1.36686
1.36682
1.36678
1.36674
1.36669
1.36663
1.36657
1.3665
1.36643
1.36635
1.36626
1.36617
1.36607
1.36597
1.36587
1.36576
1.36564
1.36552
1.36539
1.36527
1.36513
1.36499
1.36485
1.36471
1.36456
1.3644
1.36424
1.36408
1.36391
1.36373
1.36354
1.36335
1.36314
1.36292
1.3627
1.36245
1.36219
1.36192
1.36162
1.36131
1.36097
1.36061
1.36022
1.35981
1.35937
1.35889
1.35839
1.35786
1.35729
1.3567
1.35607
1.35541
1.35472
1.354
1.35326
1.35249
1.35169
1.35088
1.35004
1.34919
1.34832
1.34744
1.34654
1.34564
1.34474
1.34383
1.34291
1.342
1.34109
1.34019
1.33929
1.3384
1.33751
1.33664
1.33577
1.33492
1.33408
1.33326
1.33244
1.33165
1.33087
1.3301
1.32935
1.32861
1.3279
1.32719
1.32651
1.32584
1.32518
1.32455
1.32393
1.32332
1.32273
1.32216
1.3216
1.32106
1.32053
1.32002
1.31952
1.31903
1.31856
1.31811
1.31766
1.31723
1.31681
1.31641
1.31602
1.31564
1.31527
1.31491
1.31457
1.31424
1.31391
1.3136
1.3133
1.31302
1.31274
1.31247
1.31221
1.31196
1.31172
1.3115
1.31128
1.31107
1.31087
1.31067
1.31049
1.31032
1.31015
1.31
1.30985
1.30971
1.30958
1.30946
1.30934
1.30924
1.30914
1.30905
1.30898
1.30891
1.30881
1.30878
1.3088
1.30868
1.30856
1.30874
1.30881
1.30831
1.30833
1.30921
1.30859
1.30691
1.30855
1.3102
1.30547
1.30342
1.30878
1.30942
1.33727
1.33696
1.3368
1.33643
1.33569
1.33513
1.33466
1.33394
1.33327
1.33269
1.33204
1.33138
1.33077
1.33016
1.32955
1.32897
1.32841
1.32786
1.32733
1.32682
1.32632
1.32585
1.3254
1.32497
1.32456
1.32417
1.3238
1.32345
1.32312
1.32281
1.32251
1.32224
1.32198
1.32175
1.32152
1.32132
1.32113
1.32096
1.32081
1.32067
1.32055
1.32045
1.32036
1.32028
1.32023
1.32018
1.32016
1.32015
1.32015
1.32017
1.32021
1.32026
1.32033
1.32041
1.32052
1.32064
1.32077
1.32093
1.32111
1.3213
1.32152
1.32175
1.322
1.32228
1.32258
1.3229
1.32325
1.32362
1.32401
1.32443
1.32487
1.32534
1.32584
1.32636
1.32692
1.32749
1.3281
1.32874
1.3294
1.33009
1.33081
1.33156
1.33233
1.33313
1.33395
1.33479
1.33566
1.33655
1.33746
1.33839
1.33933
1.34028
1.34125
1.34222
1.3432
1.34419
1.34518
1.34616
1.34714
1.34812
1.34908
1.35003
1.35097
1.35189
1.35279
1.35366
1.35452
1.35534
1.35614
1.3569
1.35763
1.35833
1.359
1.35962
1.36022
1.36078
1.3613
1.36178
1.36224
1.36266
1.36304
1.36339
1.36372
1.36401
1.36428
1.36452
1.36474
1.36494
1.36512
1.36527
1.36541
1.36554
1.36564
1.36574
1.36582
1.36589
1.36595
1.36601
1.36605
1.36609
1.36612
1.36615
1.36617
1.36619
1.3662
1.36621
1.36622
1.36623
1.36623
1.36624
1.36624
1.36624
1.36624
1.36623
1.36623
1.36623
1.36623
1.36622
1.36622
1.36622
1.36621
1.36621
1.36621
1.3662
1.3662
1.3662
1.3662
1.36619
1.36619
1.36619
1.36619
1.36619
1.36618
1.36618
1.36618
1.36618
1.36618
1.36618
1.36618
1.36618
1.36618
1.36618
1.36618
1.36619
1.36619
1.36619
1.36619
1.3662
1.3662
1.36621
1.36621
1.36622
1.36622
1.36623
1.36623
1.36624
1.36625
1.36626
1.36627
1.36628
1.36629
1.3663
1.36632
1.36633
1.36634
1.36636
1.36637
1.36639
1.36641
1.36643
1.36645
1.36647
1.36649
1.36651
1.36653
1.36655
1.36658
1.3666
1.36662
1.36665
1.36667
1.3667
1.36672
1.36675
1.36677
1.36679
1.36681
1.36683
1.36685
1.36687
1.36689
1.3669
1.36691
1.36692
1.36693
1.36693
1.36693
1.36693
1.36692
1.3669
1.36689
1.36686
1.36684
1.3668
1.36676
1.36672
1.36667
1.36661
1.36655
1.36648
1.36641
1.36633
1.36624
1.36615
1.36605
1.36595
1.36584
1.36573
1.36562
1.36549
1.36537
1.36524
1.36511
1.36497
1.36483
1.36468
1.36453
1.36437
1.36421
1.36405
1.36388
1.36369
1.36351
1.36331
1.36311
1.36289
1.36266
1.36241
1.36215
1.36188
1.36158
1.36126
1.36092
1.36056
1.36017
1.35975
1.3593
1.35883
1.35832
1.35779
1.35722
1.35662
1.35598
1.35532
1.35463
1.35391
1.35316
1.35238
1.35159
1.35077
1.34993
1.34907
1.34821
1.34732
1.34643
1.34553
1.34462
1.34371
1.3428
1.34189
1.34099
1.34008
1.33919
1.3383
1.33742
1.33654
1.33568
1.33484
1.334
1.33318
1.33237
1.33158
1.3308
1.33004
1.32929
1.32856
1.32785
1.32715
1.32647
1.32581
1.32516
1.32452
1.32391
1.32331
1.32272
1.32215
1.3216
1.32106
1.32053
1.32002
1.31952
1.31904
1.31857
1.31812
1.31767
1.31724
1.31683
1.31642
1.31603
1.31565
1.31529
1.31493
1.31459
1.31425
1.31393
1.31362
1.31332
1.31303
1.31275
1.31249
1.31223
1.31198
1.31174
1.31151
1.31129
1.31108
1.31088
1.31069
1.31051
1.31033
1.31017
1.31001
1.30986
1.30973
1.3096
1.30947
1.30936
1.30926
1.30917
1.30907
1.30899
1.30895
1.30888
1.30878
1.30879
1.30884
1.30868
1.3086
1.30893
1.3089
1.30827
1.30875
1.30975
1.30823
1.30729
1.31067
1.30998
1.30505
1.30838
1.31091
1.33818
1.33775
1.3372
1.33654
1.336
1.33541
1.33468
1.33398
1.33337
1.33269
1.332
1.33137
1.33074
1.3301
1.3295
1.32891
1.32834
1.32778
1.32725
1.32674
1.32625
1.32578
1.32533
1.3249
1.32449
1.3241
1.32373
1.32338
1.32305
1.32274
1.32245
1.32218
1.32192
1.32169
1.32147
1.32126
1.32108
1.32091
1.32076
1.32062
1.3205
1.3204
1.32031
1.32024
1.32018
1.32014
1.32011
1.3201
1.3201
1.32012
1.32016
1.32021
1.32028
1.32036
1.32046
1.32058
1.32071
1.32087
1.32104
1.32123
1.32144
1.32167
1.32193
1.3222
1.3225
1.32281
1.32315
1.32352
1.32391
1.32432
1.32476
1.32523
1.32572
1.32624
1.32679
1.32736
1.32797
1.3286
1.32926
1.32994
1.33066
1.3314
1.33217
1.33297
1.33379
1.33464
1.3355
1.33639
1.33731
1.33823
1.33918
1.34014
1.34111
1.34209
1.34307
1.34406
1.34506
1.34605
1.34704
1.34802
1.34899
1.34995
1.3509
1.35183
1.35274
1.35362
1.35449
1.35532
1.35612
1.3569
1.35764
1.35834
1.35902
1.35965
1.36025
1.36081
1.36134
1.36183
1.36228
1.3627
1.36309
1.36344
1.36377
1.36406
1.36433
1.36457
1.36479
1.36498
1.36516
1.36531
1.36544
1.36557
1.36567
1.36576
1.36584
1.36591
1.36597
1.36602
1.36607
1.3661
1.36613
1.36616
1.36618
1.3662
1.36621
1.36622
1.36623
1.36623
1.36624
1.36624
1.36624
1.36624
1.36624
1.36623
1.36623
1.36623
1.36623
1.36622
1.36622
1.36622
1.36621
1.36621
1.3662
1.3662
1.3662
1.3662
1.36619
1.36619
1.36619
1.36619
1.36618
1.36618
1.36618
1.36618
1.36618
1.36618
1.36618
1.36618
1.36618
1.36618
1.36618
1.36618
1.36618
1.36618
1.36618
1.36619
1.36619
1.36619
1.36619
1.3662
1.3662
1.36621
1.36621
1.36622
1.36623
1.36623
1.36624
1.36625
1.36626
1.36627
1.36628
1.36629
1.3663
1.36632
1.36633
1.36635
1.36636
1.36638
1.36639
1.36641
1.36643
1.36645
1.36647
1.36649
1.36651
1.36654
1.36656
1.36658
1.36661
1.36663
1.36665
1.36668
1.3667
1.36673
1.36675
1.36677
1.36679
1.36682
1.36683
1.36685
1.36687
1.36688
1.36689
1.3669
1.36691
1.36691
1.36691
1.36691
1.3669
1.36689
1.36687
1.36684
1.36682
1.36678
1.36674
1.3667
1.36665
1.36659
1.36653
1.36646
1.36639
1.36631
1.36622
1.36613
1.36603
1.36593
1.36582
1.36571
1.36559
1.36547
1.36535
1.36522
1.36508
1.36495
1.3648
1.36466
1.36451
1.36435
1.36419
1.36403
1.36385
1.36367
1.36348
1.36329
1.36308
1.36286
1.36263
1.36238
1.36212
1.36184
1.36154
1.36122
1.36088
1.36051
1.36011
1.35969
1.35924
1.35876
1.35824
1.3577
1.35712
1.35651
1.35587
1.3552
1.3545
1.35377
1.35302
1.35224
1.35143
1.35061
1.34977
1.34891
1.34804
1.34715
1.34626
1.34535
1.34445
1.34354
1.34263
1.34172
1.34081
1.33991
1.33902
1.33813
1.33725
1.33639
1.33553
1.33469
1.33386
1.33304
1.33224
1.33145
1.33068
1.32993
1.32919
1.32847
1.32776
1.32707
1.32639
1.32574
1.3251
1.32447
1.32386
1.32326
1.32268
1.32212
1.32157
1.32104
1.32052
1.32001
1.31952
1.31904
1.31857
1.31812
1.31768
1.31726
1.31684
1.31644
1.31605
1.31568
1.31531
1.31496
1.31461
1.31428
1.31396
1.31365
1.31336
1.31307
1.31279
1.31252
1.31227
1.31202
1.31178
1.31155
1.31134
1.31113
1.31093
1.31074
1.31055
1.31038
1.31022
1.31006
1.30992
1.30978
1.30965
1.30954
1.30943
1.30932
1.30924
1.30917
1.30908
1.30901
1.30901
1.30898
1.30887
1.30891
1.30909
1.30892
1.30874
1.30932
1.30954
1.30858
1.30905
1.31088
1.3095
1.30781
1.3111
1.31291
1.30991
1.30958
1.33923
1.33841
1.33767
1.33692
1.33629
1.33553
1.33474
1.33408
1.33339
1.33264
1.33197
1.33132
1.33065
1.33001
1.32941
1.32881
1.32823
1.32767
1.32714
1.32662
1.32613
1.32566
1.32521
1.32478
1.32438
1.32399
1.32362
1.32328
1.32295
1.32264
1.32236
1.32209
1.32183
1.3216
1.32138
1.32118
1.321
1.32084
1.32069
1.32055
1.32043
1.32033
1.32024
1.32017
1.32011
1.32007
1.32004
1.32003
1.32004
1.32005
1.32009
1.32014
1.3202
1.32029
1.32039
1.3205
1.32064
1.32079
1.32096
1.32114
1.32135
1.32158
1.32183
1.3221
1.32239
1.3227
1.32304
1.32339
1.32378
1.32419
1.32462
1.32508
1.32557
1.32608
1.32663
1.3272
1.3278
1.32842
1.32908
1.32976
1.33047
1.33122
1.33198
1.33278
1.3336
1.33445
1.33531
1.33621
1.33712
1.33805
1.339
1.33996
1.34093
1.34192
1.34291
1.34391
1.34491
1.34592
1.34691
1.3479
1.34889
1.34986
1.35082
1.35176
1.35268
1.35357
1.35445
1.35529
1.35611
1.35689
1.35765
1.35836
1.35904
1.35968
1.36029
1.36086
1.36139
1.36188
1.36234
1.36276
1.36315
1.3635
1.36383
1.36412
1.36438
1.36462
1.36484
1.36503
1.3652
1.36535
1.36548
1.3656
1.36571
1.36579
1.36587
1.36594
1.366
1.36604
1.36609
1.36612
1.36615
1.36617
1.36619
1.36621
1.36622
1.36623
1.36623
1.36624
1.36624
1.36624
1.36624
1.36624
1.36624
1.36623
1.36623
1.36623
1.36623
1.36622
1.36622
1.36621
1.36621
1.36621
1.3662
1.3662
1.3662
1.36619
1.36619
1.36619
1.36618
1.36618
1.36618
1.36618
1.36618
1.36618
1.36617
1.36617
1.36617
1.36617
1.36617
1.36617
1.36617
1.36617
1.36617
1.36618
1.36618
1.36618
1.36618
1.36619
1.36619
1.36619
1.3662
1.3662
1.36621
1.36621
1.36622
1.36623
1.36623
1.36624
1.36625
1.36626
1.36627
1.36628
1.36629
1.36631
1.36632
1.36633
1.36635
1.36636
1.36638
1.3664
1.36642
1.36644
1.36646
1.36648
1.3665
1.36652
1.36654
1.36657
1.36659
1.36661
1.36664
1.36666
1.36668
1.36671
1.36673
1.36675
1.36677
1.3668
1.36681
1.36683
1.36685
1.36686
1.36687
1.36688
1.36689
1.36689
1.36689
1.36689
1.36688
1.36687
1.36685
1.36682
1.3668
1.36676
1.36672
1.36668
1.36663
1.36657
1.36651
1.36644
1.36637
1.36629
1.3662
1.36611
1.36601
1.36591
1.3658
1.36569
1.36558
1.36545
1.36533
1.3652
1.36507
1.36493
1.36479
1.36464
1.36449
1.36434
1.36418
1.36401
1.36384
1.36366
1.36347
1.36327
1.36306
1.36284
1.36261
1.36236
1.36209
1.36181
1.36151
1.36118
1.36083
1.36046
1.36005
1.35962
1.35916
1.35867
1.35815
1.35759
1.357
1.35638
1.35573
1.35505
1.35434
1.3536
1.35284
1.35205
1.35123
1.3504
1.34955
1.34869
1.34781
1.34692
1.34602
1.34512
1.34421
1.3433
1.34239
1.34148
1.34058
1.33968
1.33878
1.3379
1.33702
1.33616
1.33531
1.33447
1.33365
1.33284
1.33204
1.33127
1.33051
1.32976
1.32903
1.32832
1.32762
1.32694
1.32628
1.32563
1.32499
1.32438
1.32378
1.32319
1.32262
1.32207
1.32152
1.321
1.32049
1.31999
1.3195
1.31903
1.31857
1.31812
1.31769
1.31727
1.31686
1.31647
1.31608
1.31571
1.31535
1.315
1.31466
1.31433
1.31401
1.31371
1.31341
1.31313
1.31285
1.31259
1.31233
1.31209
1.31185
1.31163
1.31141
1.3112
1.31101
1.31082
1.31064
1.31047
1.31031
1.31016
1.31002
1.30989
1.30977
1.30965
1.30956
1.30947
1.30938
1.30932
1.30928
1.30921
1.30917
1.30923
1.30923
1.30913
1.30927
1.30954
1.30934
1.30931
1.31015
1.31024
1.30941
1.31064
1.31214
1.31074
1.31096
1.3135
1.31377
1.31442
1.34026
1.339
1.33817
1.33734
1.33645
1.33562
1.33487
1.33411
1.33332
1.3326
1.33191
1.3312
1.33053
1.32989
1.32926
1.32865
1.32808
1.32752
1.32698
1.32647
1.32598
1.32551
1.32506
1.32464
1.32423
1.32385
1.32349
1.32315
1.32282
1.32252
1.32224
1.32197
1.32172
1.32149
1.32128
1.32108
1.3209
1.32074
1.32059
1.32046
1.32034
1.32024
1.32016
1.32009
1.32003
1.31999
1.31996
1.31995
1.31995
1.31997
1.32
1.32005
1.32012
1.3202
1.3203
1.32041
1.32054
1.32069
1.32085
1.32104
1.32124
1.32146
1.32171
1.32197
1.32226
1.32257
1.32289
1.32325
1.32363
1.32403
1.32446
1.32491
1.32539
1.3259
1.32644
1.327
1.3276
1.32822
1.32887
1.32955
1.33026
1.331
1.33176
1.33255
1.33337
1.33422
1.33509
1.33598
1.3369
1.33783
1.33878
1.33975
1.34073
1.34172
1.34272
1.34373
1.34474
1.34575
1.34676
1.34776
1.34876
1.34974
1.35071
1.35167
1.3526
1.35351
1.3544
1.35526
1.35609
1.35689
1.35765
1.35838
1.35907
1.35972
1.36033
1.36091
1.36145
1.36194
1.3624
1.36283
1.36322
1.36357
1.36389
1.36419
1.36445
1.36468
1.3649
1.36508
1.36525
1.3654
1.36553
1.36564
1.36574
1.36583
1.3659
1.36597
1.36602
1.36607
1.3661
1.36614
1.36616
1.36619
1.3662
1.36622
1.36623
1.36623
1.36624
1.36624
1.36624
1.36624
1.36624
1.36624
1.36624
1.36624
1.36623
1.36623
1.36622
1.36622
1.36622
1.36621
1.36621
1.3662
1.3662
1.3662
1.36619
1.36619
1.36619
1.36619
1.36618
1.36618
1.36618
1.36618
1.36617
1.36617
1.36617
1.36617
1.36617
1.36617
1.36617
1.36617
1.36617
1.36617
1.36617
1.36617
1.36617
1.36618
1.36618
1.36618
1.36618
1.36619
1.36619
1.3662
1.3662
1.36621
1.36621
1.36622
1.36623
1.36623
1.36624
1.36625
1.36626
1.36627
1.36628
1.3663
1.36631
1.36632
1.36634
1.36635
1.36637
1.36639
1.3664
1.36642
1.36644
1.36646
1.36648
1.3665
1.36653
1.36655
1.36657
1.3666
1.36662
1.36664
1.36667
1.36669
1.36671
1.36673
1.36676
1.36678
1.3668
1.36681
1.36683
1.36684
1.36685
1.36686
1.36687
1.36687
1.36687
1.36687
1.36686
1.36684
1.36683
1.3668
1.36678
1.36674
1.3667
1.36666
1.36661
1.36655
1.36649
1.36642
1.36635
1.36627
1.36618
1.36609
1.36599
1.36589
1.36578
1.36567
1.36556
1.36544
1.36531
1.36518
1.36505
1.36491
1.36477
1.36463
1.36448
1.36433
1.36417
1.364
1.36383
1.36365
1.36346
1.36326
1.36305
1.36283
1.36259
1.36234
1.36207
1.36179
1.36148
1.36115
1.36079
1.3604
1.35999
1.35955
1.35908
1.35858
1.35804
1.35747
1.35687
1.35623
1.35557
1.35487
1.35415
1.3534
1.35262
1.35181
1.35099
1.35015
1.34929
1.34842
1.34754
1.34664
1.34574
1.34483
1.34392
1.34301
1.34209
1.34118
1.34028
1.33938
1.33849
1.33761
1.33674
1.33588
1.33503
1.3342
1.33338
1.33258
1.3318
1.33102
1.33027
1.32954
1.32882
1.32812
1.32743
1.32676
1.32611
1.32547
1.32485
1.32425
1.32366
1.32309
1.32253
1.32198
1.32146
1.32094
1.32044
1.31995
1.31947
1.31901
1.31856
1.31813
1.3177
1.31729
1.31689
1.3165
1.31612
1.31575
1.3154
1.31506
1.31472
1.3144
1.31409
1.31379
1.31349
1.31321
1.31294
1.31268
1.31243
1.31219
1.31196
1.31174
1.31152
1.31132
1.31113
1.31095
1.31077
1.31061
1.31045
1.31031
1.31017
1.31005
1.30994
1.30983
1.30974
1.30967
1.30961
1.30954
1.30952
1.30953
1.30948
1.30947
1.30963
1.30969
1.30958
1.30986
1.31033
1.3101
1.31011
1.31137
1.31163
1.31075
1.3122
1.31431
1.31375
1.31375
1.31656
1.3186
1.34109
1.3396
1.33861
1.3376
1.33661
1.33574
1.3349
1.33405
1.33324
1.33251
1.33176
1.33104
1.33037
1.32971
1.32907
1.32846
1.32788
1.32732
1.32678
1.32627
1.32579
1.32532
1.32488
1.32446
1.32406
1.32368
1.32332
1.32299
1.32267
1.32237
1.32209
1.32183
1.32159
1.32136
1.32115
1.32096
1.32079
1.32063
1.32048
1.32035
1.32024
1.32014
1.32006
1.31999
1.31993
1.31989
1.31987
1.31985
1.31986
1.31987
1.31991
1.31995
1.32002
1.3201
1.32019
1.3203
1.32043
1.32057
1.32073
1.32091
1.32111
1.32133
1.32157
1.32183
1.32211
1.32241
1.32273
1.32308
1.32345
1.32385
1.32427
1.32472
1.32519
1.3257
1.32623
1.32678
1.32737
1.32799
1.32863
1.3293
1.33001
1.33074
1.3315
1.3323
1.33311
1.33396
1.33483
1.33572
1.33664
1.33758
1.33853
1.3395
1.34049
1.34149
1.3425
1.34352
1.34453
1.34556
1.34658
1.34759
1.3486
1.3496
1.35059
1.35155
1.3525
1.35343
1.35434
1.35521
1.35606
1.35687
1.35765
1.35839
1.35909
1.35976
1.36038
1.36096
1.36151
1.36201
1.36247
1.3629
1.36329
1.36364
1.36396
1.36426
1.36452
1.36475
1.36496
1.36515
1.36531
1.36545
1.36558
1.36569
1.36578
1.36587
1.36594
1.366
1.36605
1.36609
1.36613
1.36616
1.36618
1.3662
1.36622
1.36623
1.36624
1.36624
1.36625
1.36625
1.36625
1.36625
1.36625
1.36624
1.36624
1.36624
1.36623
1.36623
1.36622
1.36622
1.36622
1.36621
1.36621
1.3662
1.3662
1.3662
1.36619
1.36619
1.36619
1.36618
1.36618
1.36618
1.36618
1.36617
1.36617
1.36617
1.36617
1.36617
1.36617
1.36617
1.36617
1.36617
1.36617
1.36617
1.36617
1.36617
1.36617
1.36617
1.36617
1.36618
1.36618
1.36618
1.36619
1.36619
1.36619
1.3662
1.36621
1.36621
1.36622
1.36623
1.36623
1.36624
1.36625
1.36626
1.36627
1.36629
1.3663
1.36631
1.36633
1.36634
1.36636
1.36637
1.36639
1.36641
1.36643
1.36645
1.36647
1.36649
1.36651
1.36653
1.36656
1.36658
1.3666
1.36663
1.36665
1.36667
1.36669
1.36672
1.36674
1.36676
1.36678
1.36679
1.36681
1.36682
1.36683
1.36684
1.36685
1.36685
1.36685
1.36684
1.36684
1.36682
1.3668
1.36678
1.36675
1.36672
1.36668
1.36663
1.36658
1.36653
1.36646
1.3664
1.36632
1.36624
1.36616
1.36607
1.36597
1.36587
1.36576
1.36565
1.36554
1.36542
1.36529
1.36517
1.36504
1.3649
1.36476
1.36462
1.36447
1.36432
1.36416
1.364
1.36382
1.36364
1.36346
1.36326
1.36305
1.36282
1.36259
1.36233
1.36206
1.36177
1.36145
1.36111
1.36075
1.36035
1.35993
1.35948
1.35899
1.35847
1.35792
1.35733
1.35671
1.35606
1.35538
1.35466
1.35392
1.35316
1.35236
1.35155
1.35071
1.34986
1.34899
1.34811
1.34722
1.34632
1.34541
1.3445
1.34358
1.34266
1.34175
1.34084
1.33993
1.33904
1.33815
1.33727
1.3364
1.33554
1.3347
1.33388
1.33307
1.33227
1.3315
1.33074
1.32999
1.32927
1.32856
1.32787
1.3272
1.32654
1.3259
1.32528
1.32468
1.32408
1.32351
1.32295
1.32241
1.32188
1.32136
1.32086
1.32037
1.3199
1.31944
1.31899
1.31855
1.31812
1.31771
1.31731
1.31692
1.31654
1.31617
1.31581
1.31546
1.31513
1.3148
1.31449
1.31418
1.31389
1.3136
1.31333
1.31306
1.31281
1.31256
1.31233
1.3121
1.31188
1.31168
1.31148
1.31129
1.31111
1.31095
1.31079
1.31064
1.31051
1.31038
1.31027
1.31016
1.31008
1.31
1.30993
1.3099
1.30986
1.30983
1.30985
1.30992
1.30991
1.30997
1.31023
1.31034
1.3103
1.31078
1.31135
1.31116
1.31154
1.31293
1.31321
1.31313
1.3147
1.31624
1.31707
1.31838
1.31996
1.34169
1.34004
1.3389
1.33775
1.33673
1.33578
1.33482
1.33395
1.33314
1.33234
1.33156
1.33085
1.33015
1.32947
1.32884
1.32823
1.32764
1.32708
1.32655
1.32604
1.32556
1.3251
1.32466
1.32425
1.32385
1.32348
1.32313
1.3228
1.32249
1.3222
1.32193
1.32167
1.32144
1.32122
1.32101
1.32083
1.32065
1.3205
1.32036
1.32023
1.32012
1.32003
1.31994
1.31988
1.31982
1.31978
1.31976
1.31975
1.31975
1.31977
1.3198
1.31984
1.3199
1.31998
1.32007
1.32018
1.3203
1.32044
1.3206
1.32078
1.32097
1.32118
1.32142
1.32167
1.32194
1.32224
1.32255
1.32289
1.32326
1.32365
1.32406
1.3245
1.32497
1.32546
1.32598
1.32653
1.32712
1.32772
1.32836
1.32903
1.32973
1.33045
1.33122
1.332
1.33282
1.33366
1.33453
1.33542
1.33634
1.33728
1.33824
1.33922
1.34021
1.34122
1.34224
1.34326
1.34429
1.34533
1.34636
1.34739
1.34841
1.34943
1.35043
1.35142
1.35238
1.35333
1.35425
1.35515
1.35601
1.35684
1.35764
1.35839
1.35911
1.35979
1.36042
1.36101
1.36157
1.36208
1.36255
1.36297
1.36337
1.36372
1.36404
1.36433
1.36459
1.36482
1.36502
1.36521
1.36537
1.36551
1.36563
1.36574
1.36583
1.3659
1.36597
1.36603
1.36608
1.36612
1.36615
1.36618
1.3662
1.36622
1.36623
1.36624
1.36625
1.36625
1.36625
1.36625
1.36625
1.36625
1.36625
1.36625
1.36624
1.36624
1.36623
1.36623
1.36623
1.36622
1.36622
1.36621
1.36621
1.3662
1.3662
1.3662
1.36619
1.36619
1.36619
1.36618
1.36618
1.36618
1.36617
1.36617
1.36617
1.36617
1.36617
1.36617
1.36617
1.36616
1.36616
1.36616
1.36616