# vtk DataFile Version 2.0
LBE two cylinders
ASCII
DATASET STRUCTURED_POINTS
DIMENSIONS 400 100 1
ASPECT_RATIO 1 1 1
ORIGIN 0 0 0
POINT_DATA 40000
SCALARS rho double 1
LOOKUP_TABLE default
1.33728
1.33446
1.33477
1.33484
1.3339
1.33341
1.33311
1.33246
1.33186
1.33136
1.33079
1.33019
1.32965
1.3291
1.32855
1.32803
1.32752
1.32703
1.32655
1.32609
1.32565
1.32523
1.32482
1.32444
1.32407
1.32372
1.32339
1.32307
1.32278
1.32249
1.32223
1.32198
1.32174
1.32152
1.32131
1.32112
1.32093
1.32077
1.32061
1.32047
1.32034
1.32022
1.32012
1.32002
1.31995
1.31988
1.31983
1.31979
1.31977
1.31976
1.31977
1.31979
1.31982
1.31987
1.31994
1.32003
1.32013
1.32025
1.32038
1.32054
1.32071
1.32091
1.32112
1.32136
1.32162
1.3219
1.3222
1.32253
1.32288
1.32325
1.32365
1.32408
1.32453
1.32502
1.32553
1.32606
1.32663
1.32722
1.32784
1.3285
1.32918
1.32989
1.33062
1.33139
1.33219
1.33301
1.33385
1.33472
1.33561
1.33653
1.33746
1.33841
1.33938
1.34036
1.34135
1.34235
1.34335
1.34435
1.34536
1.34636
1.34735
1.34834
1.34931
1.35027
1.35121
1.35213
1.35303
1.3539
1.35475
1.35556
1.35635
1.35711
1.35783
1.35852
1.35917
1.3598
1.36038
1.36094
1.36146
1.36195
1.3624
1.36283
1.36323
1.3636
1.36395
1.36427
1.36456
1.36484
1.3651
1.36534
1.36556
1.36576
1.36595
1.36613
1.3663
1.36646
1.3666
1.36674
1.36687
1.36699
1.36711
1.36722
1.36732
1.36742
1.36751
1.3676
1.36769
1.36777
1.36785
1.36792
1.36799
1.36806
1.36813
1.36819
1.36825
1.3683
1.36835
1.3684
1.36845
1.36849
1.36853
1.36856
1.36859
1.36862
1.36864
1.36866
1.36868
1.36869
1.3687
1.36871
1.36871
1.36871
1.36871
1.3687
1.3687
1.36869
1.36868
1.36867
1.36866
1.36865
1.36863
1.36862
1.36861
1.3686
1.36859
1.36858
1.36857
1.36856
1.36856
1.36855
1.36855
1.36856
1.36856
1.36857
1.36857
1.36859
1.3686
1.36862
1.36864
1.36866
1.36869
1.36872
1.36875
1.36878
1.36881
1.36885
1.36889
1.36893
1.36897
1.36902
1.36906
1.3691
1.36915
1.3692
1.36924
1.36928
1.36933
1.36937
1.36941
1.36945
1.36949
1.36952
1.36955
1.36958
1.3696
1.36962
1.36964
1.36965
1.36966
1.36966
1.36966
1.36965
1.36964
1.36962
1.36959
1.36956
1.36952
1.36948
1.36943
1.36937
1.36931
1.36924
1.36916
1.36908
1.36899
1.36889
1.36879
1.36868
1.36856
1.36844
1.3683
1.36817
1.36802
1.36787
1.36772
1.36755
1.36738
1.36721
1.36702
1.36684
1.36664
1.36645
1.36624
1.36603
1.36582
1.3656
1.36537
1.36514
1.3649
1.36466
1.3644
1.36414
1.36388
1.3636
1.36331
1.36301
1.3627
1.36238
1.36204
1.36168
1.3613
1.36091
1.36049
1.36005
1.35959
1.3591
1.35858
1.35804
1.35747
1.35687
1.35624
1.35558
1.35489
1.35418
1.35343
1.35266
1.35187
1.35105
1.35022
1.34936
1.34849
1.3476
1.3467
1.3458
1.34488
1.34397
1.34305
1.34213
1.34121
1.3403
1.3394
1.3385
1.33761
1.33674
1.33588
1.33502
1.33419
1.33337
1.33256
1.33177
1.331
1.33025
1.32951
1.32879
1.32809
1.3274
1.32674
1.32609
1.32545
1.32483
1.32423
1.32365
1.32308
1.32253
1.32199
1.32147
1.32096
1.32046
1.31998
1.31952
1.31907
1.31863
1.3182
1.31779
1.31738
1.31699
1.31662
1.31625
1.3159
1.31555
1.31522
1.31489
1.31458
1.31427
1.31398
1.31369
1.31341
1.31314
1.31287
1.31262
1.31237
1.31213
1.31189
1.31166
1.31144
1.31122
1.31101
1.31081
1.31061
1.31042
1.31024
1.31006
1.30989
1.30973
1.30957
1.30942
1.30928
1.30915
1.30903
1.30891
1.30881
1.30872
1.30861
1.30854
1.30853
1.30845
1.30831
1.30842
1.30855
1.30818
1.30803
1.30893
1.30879
1.30671
1.30767
1.31153
1.30689
1.29818
1.30871
1.31772
1.33534
1.33549
1.33501
1.33435
1.33407
1.33361
1.33304
1.33249
1.33198
1.33139
1.33081
1.33026
1.3297
1.32914
1.32861
1.32808
1.32757
1.32707
1.32659
1.32613
1.32569
1.32527
1.32486
1.32448
1.32411
1.32376
1.32342
1.32311
1.32281
1.32252
1.32226
1.32201
1.32177
1.32155
1.32134
1.32114
1.32096
1.32079
1.32063
1.32049
1.32036
1.32024
1.32014
1.32005
1.31997
1.3199
1.31985
1.31981
1.31979
1.31978
1.31978
1.31981
1.31984
1.31989
1.31996
1.32004
1.32014
1.32026
1.3204
1.32055
1.32073
1.32092
1.32113
1.32137
1.32163
1.32191
1.32221
1.32253
1.32288
1.32326
1.32366
1.32408
1.32453
1.32501
1.32552
1.32605
1.32662
1.32721
1.32783
1.32848
1.32916
1.32987
1.3306
1.33137
1.33216
1.33297
1.33382
1.33468
1.33558
1.33649
1.33742
1.33837
1.33933
1.34031
1.34129
1.34229
1.34329
1.34429
1.3453
1.3463
1.34729
1.34827
1.34925
1.3502
1.35114
1.35207
1.35296
1.35384
1.35469
1.35551
1.35629
1.35705
1.35778
1.35847
1.35913
1.35975
1.36034
1.3609
1.36142
1.36191
1.36237
1.3628
1.3632
1.36358
1.36393
1.36425
1.36455
1.36483
1.36509
1.36533
1.36555
1.36576
1.36595
1.36613
1.3663
1.36645
1.3666
1.36674
1.36687
1.36699
1.36711
1.36722
1.36732
1.36742
1.36751
1.3676
1.36769
1.36777
1.36785
1.36792
1.36799
1.36806
1.36813
1.36819
1.36825
1.3683
1.36835
1.3684
1.36845
1.36849
1.36853
1.36856
1.36859
1.36862
1.36864
1.36866
1.36868
1.36869
1.3687
1.36871
1.36871
1.36871
1.36871
1.36871
1.3687
1.36869
1.36868
1.36867
1.36866
1.36865
1.36863
1.36862
1.36861
1.3686
1.36859
1.36858
1.36857
1.36856
1.36856
1.36856
1.36856
1.36856
1.36856
1.36857
1.36858
1.36859
1.3686
1.36862
1.36864
1.36866
1.36869
1.36872
1.36875
1.36878
1.36881
1.36885
1.36889
1.36893
1.36897
1.36901
1.36906
1.3691
1.36914
1.36919
1.36923
1.36928
1.36932
1.36936
1.3694
1.36944
1.36948
1.36951
1.36954
1.36957
1.36959
1.36961
1.36963
1.36964
1.36964
1.36965
1.36964
1.36963
1.36962
1.3696
1.36957
1.36954
1.3695
1.36946
1.36941
1.36935
1.36929
1.36922
1.36914
1.36906
1.36897
1.36887
1.36877
1.36866
1.36854
1.36841
1.36828
1.36815
1.368
1.36785
1.36769
1.36753
1.36736
1.36718
1.367
1.36681
1.36662
1.36642
1.36621
1.366
1.36578
1.36556
1.36533
1.3651
1.36486
1.36461
1.36436
1.3641
1.36383
1.36355
1.36326
1.36295
1.36264
1.36231
1.36197
1.36161
1.36123
1.36084
1.36042
1.35998
1.35952
1.35903
1.35851
1.35797
1.3574
1.3568
1.35617
1.35551
1.35483
1.35412
1.35338
1.35261
1.35182
1.35101
1.35018
1.34932
1.34846
1.34758
1.34668
1.34578
1.34487
1.34396
1.34305
1.34213
1.34122
1.34031
1.33941
1.33852
1.33764
1.33677
1.3359
1.33506
1.33422
1.33341
1.3326
1.33182
1.33105
1.33029
1.32956
1.32884
1.32814
1.32745
1.32679
1.32614
1.3255
1.32488
1.32428
1.3237
1.32313
1.32258
1.32204
1.32151
1.321
1.32051
1.32003
1.31956
1.31911
1.31866
1.31824
1.31782
1.31742
1.31703
1.31665
1.31628
1.31592
1.31558
1.31524
1.31492
1.3146
1.31429
1.31399
1.3137
1.31342
1.31315
1.31288
1.31262
1.31237
1.31213
1.31189
1.31166
1.31144
1.31122
1.31101
1.3108
1.3106
1.31041
1.31022
1.31004
1.30987
1.3097
1.30954
1.30939
1.30924
1.3091
1.30898
1.30886
1.30874
1.30864
1.30856
1.30845
1.30836
1.30834
1.3083
1.30814
1.3081
1.30832
1.30811
1.30759
1.30798
1.30862
1.30689
1.3054
1.30802
1.30744
1.2976
1.29212
1.33463
1.33567
1.33495
1.33425
1.33427
1.33373
1.33303
1.33258
1.33206
1.33142
1.33086
1.33032
1.32974
1.32917
1.32864
1.32811
1.32759
1.3271
1.32662
1.32615
1.32571
1.32528
1.32488
1.32449
1.32412
1.32377
1.32343
1.32311
1.32281
1.32253
1.32226
1.32201
1.32177
1.32155
1.32134
1.32115
1.32096
1.32079
1.32064
1.32049
1.32036
1.32025
1.32014
1.32005
1.31997
1.31991
1.31985
1.31982
1.31979
1.31978
1.31979
1.31981
1.31984
1.31989
1.31996
1.32004
1.32014
1.32026
1.32039
1.32055
1.32072
1.32091
1.32113
1.32136
1.32161
1.32189
1.32219
1.32251
1.32286
1.32323
1.32363
1.32405
1.3245
1.32498
1.32548
1.32602
1.32658
1.32717
1.32779
1.32843
1.32911
1.32982
1.33055
1.33131
1.3321
1.33292
1.33376
1.33462
1.33551
1.33642
1.33735
1.3383
1.33927
1.34024
1.34123
1.34223
1.34323
1.34423
1.34523
1.34624
1.34723
1.34822
1.34919
1.35015
1.3511
1.35202
1.35292
1.3538
1.35465
1.35547
1.35627
1.35703
1.35776
1.35845
1.35911
1.35974
1.36033
1.36089
1.36142
1.36191
1.36237
1.36281
1.36321
1.36359
1.36393
1.36426
1.36456
1.36484
1.3651
1.36534
1.36556
1.36577
1.36596
1.36614
1.36631
1.36647
1.36661
1.36675
1.36688
1.367
1.36712
1.36723
1.36733
1.36743
1.36752
1.36762
1.3677
1.36778
1.36786
1.36794
1.36801
1.36807
1.36814
1.3682
1.36826
1.36831
1.36837
1.36841
1.36846
1.3685
1.36854
1.36857
1.3686
1.36863
1.36865
1.36867
1.36869
1.3687
1.36871
1.36872
1.36872
1.36872
1.36872
1.36872
1.36871
1.3687
1.36869
1.36868
1.36867
1.36866
1.36865
1.36863
1.36862
1.36861
1.3686
1.36859
1.36858
1.36858
1.36857
1.36857
1.36857
1.36857
1.36857
1.36858
1.36859
1.3686
1.36861
1.36863
1.36865
1.36867
1.3687
1.36873
1.36875
1.36879
1.36882
1.36886
1.36889
1.36893
1.36897
1.36902
1.36906
1.3691
1.36915
1.36919
1.36924
1.36928
1.36932
1.36936
1.3694
1.36944
1.36948
1.36951
1.36954
1.36957
1.36959
1.36961
1.36962
1.36963
1.36964
1.36964
1.36964
1.36963
1.36961
1.36959
1.36957
1.36953
1.3695
1.36945
1.3694
1.36934
1.36928
1.36921
1.36913
1.36905
1.36896
1.36886
1.36876
1.36865
1.36853
1.36841
1.36827
1.36814
1.36799
1.36784
1.36768
1.36752
1.36734
1.36717
1.36698
1.36679
1.3666
1.3664
1.36619
1.36598
1.36576
1.36554
1.36531
1.36507
1.36483
1.36458
1.36433
1.36406
1.36379
1.36351
1.36322
1.36291
1.3626
1.36227
1.36192
1.36156
1.36118
1.36079
1.36037
1.35993
1.35946
1.35897
1.35846
1.35792
1.35735
1.35675
1.35612
1.35546
1.35478
1.35407
1.35333
1.35257
1.35178
1.35097
1.35014
1.34929
1.34842
1.34755
1.34666
1.34576
1.34485
1.34394
1.34303
1.34212
1.34121
1.34031
1.33941
1.33852
1.33764
1.33677
1.33591
1.33507
1.33424
1.33342
1.33262
1.33184
1.33107
1.33032
1.32958
1.32886
1.32816
1.32748
1.32681
1.32616
1.32553
1.32491
1.32431
1.32373
1.32316
1.3226
1.32206
1.32154
1.32103
1.32053
1.32005
1.31958
1.31913
1.31869
1.31826
1.31784
1.31744
1.31705
1.31667
1.3163
1.31594
1.31559
1.31525
1.31493
1.31461
1.3143
1.314
1.31371
1.31343
1.31315
1.31288
1.31262
1.31237
1.31212
1.31188
1.31165
1.31143
1.3112
1.31099
1.31078
1.31058
1.31039
1.3102
1.31001
1.30984
1.30967
1.3095
1.30935
1.3092
1.30905
1.30892
1.3088
1.30868
1.30855
1.30847
1.3084
1.30825
1.30816
1.30823
1.30811
1.30777
1.30798
1.30833
1.30744
1.30683
1.30864
1.30827
1.30348
1.30545
1.31223
1.29987
1.28772
1.33505
1.33514
1.33504
1.33482
1.33431
1.33368
1.33324
1.33269
1.33205
1.33148
1.33093
1.33033
1.32975
1.3292
1.32865
1.32811
1.32759
1.32709
1.32661
1.32614
1.3257
1.32527
1.32486
1.32447
1.3241
1.32375
1.32341
1.3231
1.3228
1.32251
1.32224
1.32199
1.32175
1.32153
1.32132
1.32113
1.32095
1.32078
1.32062
1.32048
1.32035
1.32023
1.32013
1.32003
1.31996
1.31989
1.31984
1.3198
1.31978
1.31977
1.31977
1.31979
1.31982
1.31987
1.31994
1.32002
1.32012
1.32024
1.32037
1.32052
1.32069
1.32088
1.32109
1.32132
1.32158
1.32185
1.32215
1.32247
1.32281
1.32318
1.32358
1.324
1.32445
1.32492
1.32542
1.32595
1.32651
1.3271
1.32771
1.32836
1.32903
1.32973
1.33047
1.33123
1.33201
1.33283
1.33367
1.33454
1.33542
1.33634
1.33727
1.33822
1.33918
1.34016
1.34115
1.34215
1.34315
1.34416
1.34517
1.34617
1.34717
1.34816
1.34914
1.35011
1.35106
1.35199
1.35289
1.35378
1.35463
1.35546
1.35626
1.35702
1.35776
1.35846
1.35912
1.35976
1.36035
1.36091
1.36144
1.36194
1.3624
1.36284
1.36324
1.36362
1.36396
1.36429
1.36459
1.36487
1.36513
1.36537
1.36559
1.3658
1.36599
1.36617
1.36634
1.36649
1.36664
1.36678
1.3669
1.36703
1.36714
1.36725
1.36735
1.36745
1.36755
1.36764
1.36772
1.3678
1.36788
1.36795
1.36802
1.36809
1.36816
1.36822
1.36828
1.36833
1.36838
1.36843
1.36848
1.36852
1.36856
1.36859
1.36862
1.36865
1.36867
1.36869
1.36871
1.36872
1.36873
1.36874
1.36874
1.36874
1.36874
1.36874
1.36873
1.36872
1.36871
1.3687
1.36869
1.36868
1.36867
1.36865
1.36864
1.36863
1.36862
1.36861
1.3686
1.3686
1.36859
1.36859
1.36859
1.36859
1.36859
1.3686
1.36861
1.36862
1.36863
1.36865
1.36867
1.36869
1.36872
1.36874
1.36877
1.3688
1.36884
1.36887
1.36891
1.36895
1.36899
1.36903
1.36907
1.36912
1.36916
1.3692
1.36925
1.36929
1.36933
1.36937
1.36941
1.36945
1.36948
1.36952
1.36954
1.36957
1.36959
1.36961
1.36963
1.36964
1.36964
1.36965
1.36964
1.36963
1.36962
1.3696
1.36957
1.36954
1.3695
1.36946
1.36941
1.36935
1.36929
1.36922
1.36914
1.36906
1.36896
1.36887
1.36876
1.36865
1.36853
1.36841
1.36828
1.36814
1.36799
1.36784
1.36768
1.36752
1.36734
1.36717
1.36698
1.36679
1.36659
1.36639
1.36618
1.36597
1.36575
1.36553
1.3653
1.36506
1.36482
1.36457
1.36431
1.36405
1.36377
1.36349
1.36319
1.36289
1.36257
1.36224
1.3619
1.36153
1.36115
1.36075
1.36033
1.35989
1.35942
1.35893
1.35842
1.35787
1.3573
1.3567
1.35607
1.35541
1.35473
1.35401
1.35327
1.35251
1.35172
1.35091
1.35008
1.34923
1.34836
1.34749
1.3466
1.3457
1.34479
1.34389
1.34298
1.34207
1.34116
1.34026
1.33936
1.33848
1.3376
1.33673
1.33588
1.33503
1.33421
1.33339
1.33259
1.33181
1.33105
1.3303
1.32957
1.32885
1.32815
1.32747
1.32681
1.32616
1.32553
1.32491
1.32431
1.32373
1.32316
1.32261
1.32207
1.32155
1.32104
1.32054
1.32006
1.31959
1.31914
1.3187
1.31827
1.31785
1.31745
1.31706
1.31668
1.31631
1.31595
1.3156
1.31526
1.31493
1.31461
1.3143
1.314
1.31371
1.31343
1.31315
1.31288
1.31262
1.31237
1.31212
1.31188
1.31164
1.31142
1.31119
1.31098
1.31077
1.31057
1.31037
1.31018
1.30999
1.30982
1.30964
1.30948
1.30932
1.30917
1.30903
1.30889
1.30875
1.30865
1.30853
1.30839
1.30831
1.30829
1.30813
1.30797
1.3081
1.30813
1.3076
1.30758
1.30843
1.30778
1.30607
1.30768
1.3093
1.30456
1.30248
1.3078
1.30839
1.33581
1.33553
1.33541
1.33507
1.33436
1.33384
1.33341
1.33272
1.33209
1.33155
1.33094
1.33032
1.32975
1.32919
1.32862
1.32808
1.32756
1.32705
1.32657
1.3261
1.32565
1.32522
1.32481
1.32442
1.32405
1.3237
1.32336
1.32305
1.32275
1.32246
1.3222
1.32195
1.32171
1.32149
1.32128
1.32108
1.3209
1.32074
1.32058
1.32044
1.32031
1.32019
1.32009
1.32
1.31992
1.31986
1.3198
1.31977
1.31974
1.31973
1.31973
1.31975
1.31979
1.31984
1.3199
1.31998
1.32008
1.32019
1.32032
1.32047
1.32064
1.32083
1.32104
1.32127
1.32152
1.32179
1.32208
1.3224
1.32274
1.32311
1.3235
1.32391
1.32436
1.32483
1.32533
1.32585
1.32641
1.32699
1.3276
1.32825
1.32892
1.32962
1.33035
1.33111
1.3319
1.33271
1.33355
1.33442
1.33531
1.33622
1.33715
1.33811
1.33907
1.34006
1.34105
1.34205
1.34306
1.34407
1.34509
1.3461
1.3471
1.3481
1.34909
1.35006
1.35102
1.35195
1.35287
1.35376
1.35462
1.35546
1.35626
1.35704
1.35778
1.35848
1.35915
1.35979
1.36039
1.36096
1.36149
1.36199
1.36245
1.36289
1.36329
1.36367
1.36402
1.36434
1.36464
1.36492
1.36518
1.36542
1.36564
1.36584
1.36603
1.36621
1.36638
1.36653
1.36668
1.36681
1.36694
1.36706
1.36717
1.36728
1.36738
1.36748
1.36758
1.36766
1.36775
1.36783
1.36791
1.36798
1.36805
1.36812
1.36819
1.36825
1.36831
1.36836
1.36841
1.36846
1.36851
1.36855
1.36858
1.36862
1.36865
1.36868
1.3687
1.36872
1.36874
1.36875
1.36876
1.36876
1.36877
1.36877
1.36877
1.36876
1.36876
1.36875
1.36874
1.36873
1.36872
1.36871
1.36869
1.36868
1.36867
1.36866
1.36865
1.36864
1.36863
1.36863
1.36862
1.36862
1.36862
1.36862
1.36862
1.36863
1.36864
1.36865
1.36866
1.36868
1.3687
1.36872
1.36874
1.36877
1.3688
1.36883
1.36886
1.3689
1.36894
1.36897
1.36901
1.36905
1.3691
1.36914
1.36918
1.36922
1.36927
1.36931
1.36935
1.36939
1.36943
1.36947
1.3695
1.36953
1.36956
1.36959
1.36961
1.36963
1.36964
1.36965
1.36966
1.36966
1.36966
1.36965
1.36963
1.36961
1.36959
1.36955
1.36952
1.36947
1.36942
1.36937
1.3693
1.36923
1.36915
1.36907
1.36898
1.36888
1.36878
1.36867
1.36855
1.36842
1.36829
1.36815
1.36801
1.36785
1.36769
1.36753
1.36735
1.36718
1.36699
1.3668
1.3666
1.3664
1.36619
1.36598
1.36576
1.36553
1.3653
1.36506
1.36482
1.36457
1.36431
1.36404
1.36377
1.36348
1.36319
1.36288
1.36256
1.36223
1.36188
1.36152
1.36113
1.36073
1.36031
1.35986
1.35939
1.35889
1.35837
1.35782
1.35725
1.35664
1.35601
1.35534
1.35465
1.35393
1.35319
1.35242
1.35163
1.35081
1.34998
1.34913
1.34826
1.34738
1.34649
1.34559
1.34469
1.34378
1.34287
1.34196
1.34105
1.34015
1.33926
1.33837
1.3375
1.33663
1.33578
1.33494
1.33412
1.33331
1.33252
1.33174
1.33098
1.33023
1.3295
1.32879
1.3281
1.32742
1.32676
1.32612
1.32549
1.32488
1.32429
1.3237
1.32314
1.32259
1.32206
1.32153
1.32103
1.32054
1.32006
1.31959
1.31914
1.3187
1.31827
1.31786
1.31745
1.31706
1.31668
1.31631
1.31595
1.3156
1.31527
1.31494
1.31462
1.31431
1.31401
1.31372
1.31343
1.31316
1.31289
1.31263
1.31237
1.31212
1.31188
1.31165
1.31142
1.3112
1.31098
1.31077
1.31057
1.31037
1.31018
1.31
1.30982
1.30965
1.30948
1.30932
1.30917
1.30903
1.3089
1.30876
1.30864
1.30856
1.30845
1.30831
1.30827
1.30828
1.30808
1.30796
1.30825
1.30818
1.30752
1.30797
1.30893
1.30738
1.30642
1.30976
1.30904
1.30409
1.30738
1.30986
1.3367
1.33631
1.33579
1.33517
1.33466
1.33411
1.33342
1.33276
1.33219
1.33155
1.3309
1.33031
1.32972
1.32912
1.32856
1.32802
1.32749
1.32698
1.32649
1.32602
1.32557
1.32514
1.32473
1.32434
1.32397
1.32362
1.32328
1.32297
1.32267
1.32239
1.32212
1.32187
1.32164
1.32142
1.32121
1.32102
1.32084
1.32067
1.32052
1.32038
1.32025
1.32013
1.32003
1.31994
1.31986
1.3198
1.31975
1.31971
1.31969
1.31968
1.31968
1.3197
1.31973
1.31978
1.31984
1.31992
1.32002
1.32013
1.32026
1.32041
1.32057
1.32076
1.32096
1.32119
1.32143
1.3217
1.32199
1.3223
1.32264
1.323
1.32339
1.3238
1.32424
1.32471
1.3252
1.32572
1.32628
1.32686
1.32746
1.32811
1.32877
1.32947
1.3302
1.33096
1.33175
1.33256
1.3334
1.33427
1.33516
1.33608
1.33701
1.33797
1.33894
1.33993
1.34093
1.34193
1.34295
1.34397
1.34499
1.34601
1.34702
1.34803
1.34902
1.35001
1.35097
1.35192
1.35284
1.35374
1.35462
1.35546
1.35628
1.35706
1.35781
1.35852
1.3592
1.35984
1.36044
1.36101
1.36155
1.36205
1.36252
1.36295
1.36336
1.36374
1.36408
1.36441
1.36471
1.36498
1.36524
1.36548
1.3657
1.3659
1.36609
1.36626
1.36643
1.36658
1.36672
1.36686
1.36698
1.3671
1.36722
1.36732
1.36742
1.36752
1.36761
1.3677
1.36779
1.36787
1.36794
1.36802
1.36809
1.36816
1.36822
1.36828
1.36834
1.3684
1.36845
1.3685
1.36854
1.36858
1.36862
1.36866
1.36869
1.36871
1.36874
1.36876
1.36877
1.36879
1.36879
1.3688
1.3688
1.36881
1.3688
1.3688
1.36879
1.36879
1.36878
1.36877
1.36875
1.36874
1.36873
1.36872
1.36871
1.3687
1.36869
1.36868
1.36867
1.36867
1.36866
1.36866
1.36866
1.36866
1.36866
1.36867
1.36868
1.36869
1.3687
1.36872
1.36874
1.36876
1.36878
1.36881
1.36884
1.36887
1.3689
1.36894
1.36897
1.36901
1.36905
1.36909
1.36913
1.36917
1.36921
1.36926
1.3693
1.36934
1.36938
1.36942
1.36946
1.36949
1.36953
1.36956
1.36959
1.36961
1.36964
1.36965
1.36967
1.36968
1.36969
1.36969
1.36968
1.36967
1.36966
1.36964
1.36961
1.36958
1.36954
1.3695
1.36945
1.36939
1.36933
1.36926
1.36918
1.3691
1.36901
1.36891
1.3688
1.36869
1.36857
1.36845
1.36832
1.36818
1.36803
1.36788
1.36772
1.36755
1.36738
1.3672
1.36701
1.36682
1.36662
1.36642
1.36621
1.366
1.36577
1.36555
1.36532
1.36508
1.36483
1.36458
1.36432
1.36405
1.36378
1.36349
1.3632
1.36289
1.36257
1.36223
1.36188
1.36151
1.36112
1.36071
1.36029
1.35983
1.35936
1.35886
1.35833
1.35777
1.35718
1.35657
1.35593
1.35526
1.35456
1.35383
1.35308
1.3523
1.3515
1.35068
1.34984
1.34898
1.34811
1.34722
1.34633
1.34542
1.34452
1.34361
1.3427
1.34179
1.34088
1.33998
1.33909
1.33821
1.33733
1.33647
1.33562
1.33479
1.33397
1.33316
1.33238
1.3316
1.33085
1.33011
1.32939
1.32868
1.328
1.32732
1.32667
1.32604
1.32541
1.32481
1.32422
1.32365
1.32309
1.32254
1.32202
1.3215
1.321
1.32051
1.32004
1.31957
1.31913
1.31869
1.31827
1.31785
1.31745
1.31706
1.31669
1.31632
1.31596
1.31562
1.31528
1.31495
1.31464
1.31433
1.31403
1.31374
1.31345
1.31318
1.31291
1.31265
1.31239
1.31214
1.3119
1.31167
1.31144
1.31122
1.31101
1.3108
1.3106
1.3104
1.31021
1.31003
1.30985
1.30968
1.30952
1.30937
1.30923
1.30908
1.30896
1.30885
1.30872
1.30861
1.30857
1.3085
1.30834
1.30834
1.30848
1.30827
1.30806
1.30859
1.30878
1.3078
1.30823
1.31003
1.30862
1.30691
1.31017
1.31195
1.30891
1.30855
1.33772
1.33695
1.33625
1.33554
1.33495
1.33423
1.33347
1.33286
1.33221
1.3315
1.33087
1.33026
1.32963
1.32903
1.32847
1.32791
1.32737
1.32686
1.32637
1.3259
1.32545
1.32502
1.32461
1.32422
1.32385
1.3235
1.32317
1.32285
1.32256
1.32228
1.32202
1.32177
1.32154
1.32132
1.32112
1.32092
1.32075
1.32058
1.32043
1.32029
1.32017
1.32006
1.31995
1.31987
1.31979
1.31973
1.31968
1.31964
1.31962
1.31961
1.31961
1.31963
1.31966
1.3197
1.31977
1.31984
1.31994
1.32005
1.32017
1.32032
1.32048
1.32066
1.32086
1.32108
1.32132
1.32159
1.32187
1.32218
1.32251
1.32287
1.32325
1.32366
1.3241
1.32456
1.32505
1.32557
1.32611
1.32669
1.3273
1.32793
1.3286
1.3293
1.33002
1.33078
1.33157
1.33238
1.33322
1.33409
1.33499
1.3359
1.33684
1.3378
1.33878
1.33977
1.34077
1.34179
1.34281
1.34384
1.34487
1.3459
1.34692
1.34794
1.34894
1.34994
1.35092
1.35188
1.35281
1.35373
1.35461
1.35547
1.35629
1.35709
1.35784
1.35856
1.35925
1.3599
1.36051
1.36109
1.36162
1.36213
1.3626
1.36304
1.36344
1.36382
1.36417
1.36449
1.36479
1.36506
1.36532
1.36555
1.36577
1.36597
1.36616
1.36633
1.36649
1.36664
1.36678
1.36691
1.36704
1.36716
1.36727
1.36737
1.36747
1.36757
1.36766
1.36775
1.36783
1.36791
1.36799
1.36806
1.36813
1.3682
1.36827
1.36833
1.36839
1.36844
1.36849
1.36854
1.36859
1.36863
1.36867
1.3687
1.36873
1.36876
1.36878
1.3688
1.36882
1.36883
1.36884
1.36885
1.36885
1.36885
1.36885
1.36885
1.36884
1.36883
1.36882
1.36881
1.3688
1.36879
1.36878
1.36877
1.36876
1.36875
1.36874
1.36873
1.36872
1.36871
1.36871
1.36871
1.36871
1.36871
1.36871
1.36872
1.36873
1.36874
1.36875
1.36877
1.36879
1.36881
1.36883
1.36886
1.36889
1.36892
1.36895
1.36898
1.36902
1.36905
1.36909
1.36913
1.36917
1.36921
1.36925
1.3693
1.36934
1.36938
1.36942
1.36946
1.36949
1.36953
1.36956
1.3696
1.36962
1.36965
1.36967
1.36969
1.3697
1.36972
1.36972
1.36972
1.36972
1.36971
1.36969
1.36967
1.36965
1.36962
1.36958
1.36954
1.36948
1.36943
1.36936
1.36929
1.36922
1.36913
1.36904
1.36894
1.36884
1.36873
1.36861
1.36848
1.36835
1.36821
1.36806
1.36791
1.36775
1.36758
1.36741
1.36723
1.36704
1.36685
1.36665
1.36645
1.36624
1.36603
1.36581
1.36558
1.36535
1.36511
1.36487
1.36461
1.36435
1.36408
1.36381
1.36352
1.36322
1.36291
1.36258
1.36224
1.36189
1.36151
1.36112
1.36071
1.36027
1.35981
1.35933
1.35882
1.35828
1.35771
1.35711
1.35649
1.35583
1.35515
1.35444
1.3537
1.35293
1.35214
1.35133
1.3505
1.34965
1.34878
1.3479
1.34701
1.34611
1.3452
1.34429
1.34338
1.34247
1.34156
1.34065
1.33975
1.33886
1.33797
1.3371
1.33624
1.3354
1.33457
1.33375
1.33295
1.33217
1.3314
1.33066
1.32992
1.32921
1.32851
1.32784
1.32718
1.32653
1.3259
1.32529
1.3247
1.32412
1.32355
1.323
1.32247
1.32195
1.32144
1.32095
1.32047
1.32
1.31954
1.3191
1.31867
1.31826
1.31785
1.31745
1.31707
1.3167
1.31633
1.31598
1.31564
1.31531
1.31498
1.31467
1.31436
1.31406
1.31377
1.31349
1.31322
1.31295
1.31269
1.31244
1.31219
1.31196
1.31172
1.3115
1.31128
1.31107
1.31086
1.31066
1.31047
1.31029
1.31011
1.30994
1.30978
1.30962
1.30947
1.30934
1.30921
1.30908
1.30898
1.30891
1.3088
1.30871
1.30873
1.30869
1.30855
1.30866
1.30889
1.30866
1.30859
1.30939
1.30945
1.3086
1.30979
1.31126
1.30984
1.31004
1.31254
1.31278
1.3134
1.33873
1.33752
1.33674
1.33595
1.33511
1.33431
1.33361
1.33289
1.33213
1.33145
1.33081
1.33014
1.3295
1.32891
1.32832
1.32776
1.32722
1.32671
1.32621
1.32574
1.32529
1.32486
1.32445
1.32406
1.3237
1.32335
1.32302
1.32271
1.32242
1.32214
1.32189
1.32164
1.32141
1.3212
1.321
1.32081
1.32064
1.32048
1.32033
1.32019
1.32007
1.31996
1.31986
1.31977
1.3197
1.31964
1.31959
1.31955
1.31953
1.31952
1.31952
1.31954
1.31957
1.31961
1.31968
1.31975
1.31984
1.31995
1.32007
1.32021
1.32037
1.32055
1.32074
1.32096
1.3212
1.32146
1.32174
1.32204
1.32237
1.32272
1.32309
1.3235
1.32393
1.32438
1.32487
1.32538
1.32592
1.32649
1.3271
1.32773
1.32839
1.32908
1.32981
1.33056
1.33135
1.33216
1.33301
1.33388
1.33477
1.33569
1.33664
1.3376
1.33858
1.33958
1.34059
1.34161
1.34265
1.34368
1.34472
1.34576
1.3468
1.34783
1.34885
1.34985
1.35085
1.35182
1.35277
1.3537
1.3546
1.35547
1.35631
1.35711
1.35788
1.35861
1.35931
1.35997
1.36058
1.36116
1.36171
1.36222
1.36269
1.36313
1.36354
1.36391
1.36426
1.36458
1.36488
1.36515
1.3654
1.36564
1.36585
1.36605
1.36623
1.36641
1.36656
1.36671
1.36685
1.36698
1.3671
1.36722
1.36733
1.36743
1.36753
1.36763
1.36772
1.3678
1.36789
1.36797
1.36804
1.36812
1.36819
1.36826
1.36832
1.36838
1.36844
1.3685
1.36855
1.3686
1.36864
1.36868
1.36872
1.36876
1.36879
1.36881
1.36884
1.36886
1.36887
1.36889
1.3689
1.3689
1.3689
1.36891
1.3689
1.3689
1.36889
1.36889
1.36888
1.36887
1.36886
1.36885
1.36883
1.36882
1.36881
1.3688
1.36879
1.36879
1.36878
1.36877
1.36877
1.36877
1.36877
1.36877
1.36877
1.36878
1.36879
1.3688
1.36881
1.36883
1.36885
1.36887
1.36889
1.36892
1.36894
1.36897
1.36901
1.36904
1.36907
1.36911
1.36915
1.36919
1.36923
1.36927
1.36931
1.36935
1.36939
1.36943
1.36947
1.36951
1.36954
1.36958
1.36961
1.36964
1.36967
1.3697
1.36972
1.36974
1.36975
1.36976
1.36977
1.36977
1.36976
1.36976
1.36974
1.36972
1.3697
1.36966
1.36963
1.36958
1.36953
1.36948
1.36941
1.36934
1.36926
1.36918
1.36909
1.36899
1.36889
1.36877
1.36865
1.36853
1.36839
1.36825
1.3681
1.36795
1.36779
1.36762
1.36745
1.36727
1.36708
1.36689
1.3667
1.36649
1.36628
1.36607
1.36585
1.36562
1.36539
1.36515
1.36491
1.36465
1.36439
1.36412
1.36384
1.36356
1.36326
1.36294
1.36261
1.36227
1.36191
1.36153
1.36113
1.36071
1.36026
1.35979
1.3593
1.35878
1.35822
1.35764
1.35703
1.35639
1.35572
1.35502
1.35429
1.35354
1.35276
1.35195
1.35113
1.35028
1.34942
1.34854
1.34765
1.34675
1.34584
1.34493
1.34402
1.3431
1.34218
1.34127
1.34036
1.33946
1.33857
1.33768
1.33681
1.33596
1.33512
1.33429
1.33348
1.33268
1.33191
1.33115
1.33041
1.32968
1.32898
1.3283
1.32763
1.32698
1.32634
1.32572
1.32513
1.32454
1.32397
1.32342
1.32289
1.32236
1.32185
1.32135
1.32087
1.3204
1.31995
1.3195
1.31907
1.31865
1.31824
1.31784
1.31745
1.31707
1.31671
1.31635
1.31601
1.31567
1.31534
1.31502
1.31471
1.31441
1.31412
1.31383
1.31356
1.31329
1.31302
1.31277
1.31252
1.31228
1.31204
1.31181
1.31159
1.31138
1.31117
1.31097
1.31077
1.31058
1.31041
1.31023
1.31007
1.30991
1.30977
1.30963
1.3095
1.3094
1.3093
1.30919
1.30913
1.3091
1.30902
1.30897
1.30908
1.30911
1.30896
1.30921
1.30964
1.30937
1.30936
1.31059
1.31082
1.30991
1.31134
1.31343
1.31284
1.31283
1.3156
1.31761
1.33955
1.33811
1.33716
1.3362
1.33525
1.33443
1.33364
1.33282
1.33206
1.33137
1.33066
1.32997
1.32935
1.32873
1.32813
1.32756
1.32703
1.3265
1.32601
1.32554
1.32509
1.32466
1.32426
1.32388
1.32351
1.32317
1.32285
1.32254
1.32226
1.32198
1.32173
1.32149
1.32127
1.32106
1.32086
1.32068
1.32051
1.32035
1.32021
1.32007
1.31995
1.31985
1.31975
1.31967
1.31959
1.31953
1.31949
1.31945
1.31943
1.31942
1.31942
1.31944
1.31947
1.31951
1.31957
1.31964
1.31973
1.31983
1.31995
1.32009
1.32025
1.32042
1.32061
1.32082
1.32105
1.3213
1.32158
1.32188
1.3222
1.32254
1.32292
1.32331
1.32373
1.32418
1.32466
1.32516
1.3257
1.32627
1.32686
1.32749
1.32815
1.32884
1.32956
1.33032
1.3311
1.33191
1.33276
1.33363
1.33453
1.33545
1.3364
1.33736
1.33835
1.33936
1.34038
1.34141
1.34245
1.34349
1.34455
1.3456
1.34665
1.34769
1.34873
1.34975
1.35076
1.35175
1.35272
1.35366
1.35458
1.35546
1.35632
1.35713
1.35792
1.35866
1.35937
1.36003
1.36066
1.36125
1.3618
1.36231
1.36279
1.36323
1.36364
1.36401
1.36436
1.36468
1.36498
1.36525
1.3655
1.36573
1.36594
1.36614
1.36632
1.36649
1.36665
1.36679
1.36693
1.36705
1.36717
1.36729
1.3674
1.3675
1.3676
1.36769
1.36778
1.36787
1.36795
1.36803
1.36811
1.36818
1.36825
1.36832
1.36838
1.36844
1.3685
1.36856
1.36861
1.36866
1.36871
1.36875
1.36879
1.36882
1.36885
1.36888
1.3689
1.36892
1.36894
1.36895
1.36896
1.36897
1.36897
1.36897
1.36897
1.36897
1.36896
1.36895
1.36894
1.36893
1.36892
1.36891
1.3689
1.36889
1.36888
1.36887
1.36886
1.36885
1.36885
1.36884
1.36884
1.36884
1.36884
1.36884
1.36884
1.36885
1.36886
1.36887
1.36888
1.3689
1.36892
1.36894
1.36896
1.36899
1.36901
1.36904
1.36907
1.36911
1.36914
1.36918
1.36921
1.36925
1.36929
1.36933
1.36937
1.36941
1.36945
1.36949
1.36953
1.36957
1.3696
1.36964
1.36967
1.3697
1.36973
1.36975
1.36978
1.36979
1.36981
1.36982
1.36982
1.36983
1.36982
1.36981
1.3698
1.36978
1.36975
1.36972
1.36968
1.36964
1.36959
1.36953
1.36947
1.3694
1.36932
1.36923
1.36914
1.36904
1.36894
1.36883
1.36871
1.36858
1.36844
1.3683
1.36816
1.368
1.36784
1.36767
1.3675
1.36732
1.36713
1.36694
1.36675
1.36654
1.36634
1.36612
1.3659
1.36568
1.36545
1.36521
1.36496
1.36471
1.36445
1.36418
1.3639
1.36361
1.3633
1.36298
1.36266
1.36231
1.36194
1.36155
1.36115
1.36072
1.36026
1.35978
1.35927
1.35873
1.35817
1.35757
1.35694
1.35628
1.35559
1.35488
1.35413
1.35335
1.35256
1.35173
1.35089
1.35003
1.34916
1.34826
1.34736
1.34645
1.34554
1.34461
1.34369
1.34277
1.34185
1.34093
1.34002
1.33912
1.33823
1.33735
1.33648
1.33562
1.33478
1.33396
1.33315
1.33237
1.3316
1.33084
1.33011
1.3294
1.3287
1.32803
1.32737
1.32673
1.32611
1.32551
1.32492
1.32435
1.3238
1.32325
1.32273
1.32222
1.32173
1.32124
1.32078
1.32032
1.31987
1.31944
1.31902
1.31861
1.31821
1.31783
1.31745
1.31708
1.31673
1.31638
1.31604
1.31571
1.31539
1.31508
1.31478
1.31448
1.3142
1.31392
1.31364
1.31338
1.31312
1.31287
1.31263
1.31239
1.31216
1.31194
1.31172
1.31151
1.31131
1.31111
1.31093
1.31075
1.31057
1.31041
1.31026
1.31011
1.30998
1.30986
1.30974
1.30964
1.30957
1.3095
1.30942
1.30942
1.30945
1.3094
1.30942
1.30965
1.30972
1.30965
1.31009
1.31063
1.31041
1.31077
1.31213
1.31239
1.31229
1.31384
1.31536
1.31617
1.31746
1.31902
1.34013
1.33855
1.33745
1.33635
1.33537
1.33447
1.33355
1.33272
1.33196
1.33119
1.33045
1.32978
1.32913
1.32849
1.3279
1.32733
1.32678
1.32626
1.32577
1.3253
1.32486
1.32444
1.32404
1.32366
1.3233
1.32297
1.32265
1.32235
1.32207
1.3218
1.32155
1.32132
1.3211
1.3209
1.32071
1.32053
1.32036
1.32021
1.32007
1.31994
1.31983
1.31972
1.31963
1.31955
1.31948
1.31942
1.31937
1.31934
1.31932
1.31931
1.31931
1.31933
1.31936
1.3194
1.31945
1.31952
1.31961
1.31971
1.31983
1.31996
1.32011
1.32028
1.32046
1.32067
1.32089
1.32114
1.32141
1.3217
1.32201
1.32235
1.32271
1.3231
1.32352
1.32396
1.32442
1.32493
1.32546
1.32601
1.32661
1.32723
1.32788
1.32857
1.32929
1.33003
1.33082
1.33163
1.33247
1.33334
1.33425
1.33517
1.33612
1.33709
1.33809
1.3391
1.34013
1.34116
1.34221
1.34327
1.34434
1.3454
1.34647
1.34752
1.34857
1.34962
1.35064
1.35165
1.35264
1.3536
1.35453
1.35544
1.35631
1.35715
1.35795
1.35871
1.35943
1.3601
1.36074
1.36134
1.3619
1.36241
1.36289
1.36334
1.36375
1.36412
1.36447
1.36479
1.36508
1.36535
1.3656
1.36583
1.36604
1.36624
1.36641
1.36658
1.36673
1.36688
1.36701
1.36713
1.36726
1.36737
1.36747
1.36757
1.36767
1.36776
1.36785
1.36794
1.36802
1.3681
1.36818
1.36825
1.36832
1.36839
1.36845
1.36852
1.36857
1.36863
1.36868
1.36873
1.36878
1.36882
1.36886
1.36889
1.36893
1.36895
1.36898
1.369
1.36901
1.36903
1.36903
1.36904
1.36904
1.36905
1.36904
1.36904