# vtk DataFile Version 2.0
LBE two cylinders
ASCII
DATASET STRUCTURED_POINTS
DIMENSIONS 400 100 1
ASPECT_RATIO 1 1 1
ORIGIN 0 0 0
POINT_DATA 40000
SCALARS rho double 1
LOOKUP_TABLE default
1.33822
1.33542
1.33566
1.33564
1.33467
1.33412
1.33375
1.33304
1.33239
1.33182
1.33119
1.33054
1.32994
1.32934
1.32874
1.32816
1.32761
1.32706
1.32653
1.32603
1.32555
1.32508
1.32464
1.32422
1.32381
1.32343
1.32307
1.32273
1.32241
1.32211
1.32183
1.32157
1.32132
1.3211
1.32089
1.3207
1.32053
1.32037
1.32023
1.32011
1.32001
1.31992
1.31984
1.31978
1.31974
1.31971
1.3197
1.3197
1.31972
1.31975
1.3198
1.31987
1.31995
1.32005
1.32016
1.3203
1.32045
1.32062
1.3208
1.32101
1.32124
1.32149
1.32176
1.32205
1.32237
1.3227
1.32306
1.32345
1.32386
1.32429
1.32475
1.32524
1.32575
1.32628
1.32685
1.32744
1.32806
1.3287
1.32937
1.33006
1.33078
1.33153
1.3323
1.33309
1.3339
1.33474
1.33559
1.33646
1.33734
1.33824
1.33915
1.34008
1.341
1.34194
1.34287
1.34381
1.34474
1.34566
1.34658
1.34749
1.34839
1.34927
1.35013
1.35097
1.35178
1.35258
1.35334
1.35408
1.35478
1.35545
1.35609
1.3567
1.35727
1.3578
1.3583
1.35877
1.3592
1.35959
1.35995
1.36028
1.36058
1.36085
1.36109
1.3613
1.36148
1.36164
1.36178
1.3619
1.362
1.36208
1.36214
1.36219
1.36223
1.36225
1.36227
1.36227
1.36227
1.36226
1.36224
1.36222
1.3622
1.36217
1.36214
1.36211
1.36207
1.36204
1.362
1.36197
1.36193
1.3619
1.36187
1.36184
1.36181
1.36179
1.36176
1.36174
1.36172
1.3617
1.36168
1.36167
1.36165
1.36164
1.36163
1.36163
1.36162
1.36162
1.36162
1.36162
1.36162
1.36162
1.36163
1.36163
1.36164
1.36165
1.36166
1.36167
1.36168
1.36169
1.3617
1.36172
1.36173
1.36174
1.36176
1.36177
1.36179
1.3618
1.36182
1.36183
1.36185
1.36186
1.36188
1.36189
1.36191
1.36192
1.36194
1.36195
1.36196
1.36198
1.36199
1.362
1.36201
1.36202
1.36203
1.36204
1.36205
1.36206
1.36206
1.36207
1.36208
1.36208
1.36209
1.36209
1.3621
1.3621
1.3621
1.36211
1.36211
1.36211
1.36212
1.36212
1.36212
1.36213
1.36213
1.36213
1.36213
1.36213
1.36214
1.36214
1.36214
1.36214
1.36214
1.36214
1.36214
1.36214
1.36214
1.36214
1.36214
1.36214
1.36213
1.36213
1.36212
1.36211
1.36211
1.3621
1.36208
1.36207
1.36206
1.36204
1.36203
1.36201
1.36199
1.36197
1.36194
1.36192
1.36189
1.36187
1.36184
1.36181
1.36178
1.36175
1.36171
1.36168
1.36164
1.3616
1.36156
1.36152
1.36147
1.36142
1.36136
1.3613
1.36124
1.36116
1.36108
1.36099
1.36088
1.36077
1.36064
1.3605
1.36034
1.36016
1.35996
1.35973
1.35949
1.35922
1.35891
1.35859
1.35822
1.35783
1.35741
1.35695
1.35646
1.35593
1.35537
1.35477
1.35414
1.35348
1.35279
1.35207
1.35132
1.35054
1.34975
1.34893
1.34809
1.34724
1.34638
1.3455
1.34461
1.34372
1.34282
1.34193
1.34103
1.34013
1.33924
1.33835
1.33747
1.33659
1.33573
1.33487
1.33403
1.3332
1.33238
1.33158
1.33079
1.33001
1.32925
1.32851
1.32778
1.32707
1.32637
1.32569
1.32502
1.32437
1.32374
1.32312
1.32252
1.32193
1.32135
1.3208
1.32025
1.31972
1.31921
1.3187
1.31822
1.31774
1.31728
1.31683
1.31639
1.31597
1.31556
1.31516
1.31477
1.31439
1.31403
1.31368
1.31334
1.31301
1.31269
1.31239
1.31209
1.31181
1.31154
1.31128
1.31103
1.3108
1.31057
1.31036
1.31015
1.30996
1.30978
1.30961
1.30945
1.3093
1.30916
1.30903
1.30892
1.30881
1.30872
1.30864
1.30857
1.3085
1.30847
1.30844
1.30839
1.30839
1.30845
1.30843
1.30837
1.30854
1.30875
1.30845
1.30836
1.30934
1.30927
1.30726
1.30828
1.31222
1.30765
1.29897
1.30957
1.31866
1.33632
1.33642
1.33588
1.33517
1.33483
1.33431
1.33368
1.33307
1.3325
1.33186
1.33122
1.33061
1.32999
1.32938
1.32879
1.32822
1.32765
1.32711
1.32658
1.32608
1.32559
1.32513
1.32468
1.32426
1.32386
1.32347
1.32311
1.32277
1.32245
1.32215
1.32187
1.3216
1.32136
1.32113
1.32092
1.32073
1.32056
1.32041
1.32027
1.32014
1.32004
1.31995
1.31987
1.31981
1.31977
1.31974
1.31973
1.31973
1.31975
1.31978
1.31983
1.31989
1.31997
1.32007
1.32019
1.32032
1.32047
1.32064
1.32083
1.32103
1.32126
1.32151
1.32178
1.32207
1.32238
1.32272
1.32307
1.32346
1.32386
1.3243
1.32475
1.32524
1.32575
1.32628
1.32684
1.32743
1.32805
1.32869
1.32935
1.33005
1.33076
1.33151
1.33227
1.33306
1.33387
1.3347
1.33555
1.33642
1.3373
1.3382
1.33911
1.34003
1.34095
1.34188
1.34281
1.34375
1.34468
1.3456
1.34652
1.34743
1.34832
1.3492
1.35006
1.3509
1.35172
1.35251
1.35328
1.35402
1.35472
1.3554
1.35604
1.35665
1.35722
1.35776
1.35826
1.35873
1.35916
1.35956
1.35992
1.36026
1.36056
1.36083
1.36107
1.36128
1.36147
1.36163
1.36177
1.36189
1.36199
1.36208
1.36214
1.36219
1.36223
1.36226
1.36227
1.36228
1.36228
1.36227
1.36225
1.36223
1.36221
1.36218
1.36215
1.36212
1.36208
1.36205
1.36202
1.36198
1.36195
1.36192
1.36189
1.36186
1.36183
1.3618
1.36178
1.36175
1.36173
1.36171
1.3617
1.36168
1.36167
1.36166
1.36165
1.36164
1.36164
1.36163
1.36163
1.36163
1.36163
1.36164
1.36164
1.36165
1.36165
1.36166
1.36167
1.36168
1.36169
1.3617
1.36171
1.36173
1.36174
1.36176
1.36177
1.36179
1.3618
1.36182
1.36183
1.36185
1.36186
1.36188
1.36189
1.36191
1.36192
1.36193
1.36195
1.36196
1.36197
1.36198
1.362
1.36201
1.36202
1.36203
1.36204
1.36205
1.36205
1.36206
1.36207
1.36208
1.36208
1.36209
1.36209
1.3621
1.3621
1.36211
1.36211
1.36211
1.36212
1.36212
1.36212
1.36212
1.36213
1.36213
1.36213
1.36213
1.36213
1.36214
1.36214
1.36214
1.36214
1.36214
1.36214
1.36214
1.36214
1.36214
1.36214
1.36214
1.36214
1.36214
1.36213
1.36213
1.36212
1.36211
1.3621
1.36209
1.36208
1.36207
1.36205
1.36204
1.36202
1.362
1.36198
1.36196
1.36193
1.36191
1.36188
1.36186
1.36183
1.3618
1.36176
1.36173
1.3617
1.36166
1.36162
1.36158
1.36154
1.36149
1.36144
1.36139
1.36133
1.36126
1.36119
1.36112
1.36103
1.36094
1.36083
1.36071
1.36058
1.36044
1.36027
1.36009
1.35989
1.35967
1.35942
1.35914
1.35884
1.35851
1.35815
1.35776
1.35734
1.35688
1.35639
1.35586
1.3553
1.35471
1.35408
1.35343
1.35274
1.35202
1.35128
1.35051
1.34971
1.3489
1.34807
1.34722
1.34636
1.34549
1.34461
1.34372
1.34283
1.34193
1.34104
1.34015
1.33926
1.33837
1.33749
1.33662
1.33576
1.33491
1.33407
1.33324
1.33242
1.33162
1.33083
1.33006
1.3293
1.32856
1.32783
1.32712
1.32642
1.32574
1.32507
1.32442
1.32379
1.32317
1.32257
1.32198
1.3214
1.32084
1.3203
1.31977
1.31925
1.31875
1.31826
1.31778
1.31732
1.31687
1.31643
1.31601
1.31559
1.31519
1.3148
1.31443
1.31406
1.31371
1.31337
1.31304
1.31272
1.31241
1.31211
1.31183
1.31156
1.3113
1.31105
1.31081
1.31058
1.31036
1.31016
1.30996
1.30978
1.3096
1.30944
1.30929
1.30915
1.30902
1.3089
1.30879
1.30869
1.3086
1.30852
1.30846
1.3084
1.30836
1.30834
1.3083
1.30827
1.30833
1.30836
1.30826
1.3083
1.30859
1.30845
1.308
1.30846
1.30918
1.30751
1.30608
1.30878
1.30827
1.29845
1.29302
1.33564
1.33659
1.33583
1.33508
1.33502
1.33442
1.33368
1.33316
1.33258
1.33189
1.33127
1.33067
1.33003
1.32942
1.32883
1.32825
1.32768
1.32714
1.32661
1.3261
1.32562
1.32515
1.3247
1.32428
1.32388
1.32349
1.32313
1.32279
1.32247
1.32217
1.32188
1.32162
1.32138
1.32115
1.32094
1.32075
1.32058
1.32042
1.32029
1.32016
1.32006
1.31996
1.31989
1.31983
1.31978
1.31976
1.31974
1.31974
1.31976
1.31979
1.31984
1.31991
1.31999
1.32008
1.3202
1.32033
1.32048
1.32064
1.32083
1.32104
1.32126
1.32151
1.32177
1.32206
1.32237
1.32271
1.32306
1.32345
1.32385
1.32428
1.32473
1.32521
1.32572
1.32625
1.32681
1.3274
1.32801
1.32865
1.32931
1.33
1.33072
1.33146
1.33222
1.33301
1.33381
1.33464
1.33549
1.33636
1.33724
1.33813
1.33904
1.33996
1.34088
1.34182
1.34275
1.34368
1.34461
1.34554
1.34646
1.34737
1.34827
1.34915
1.35001
1.35086
1.35168
1.35247
1.35324
1.35399
1.35469
1.35537
1.35602
1.35663
1.35721
1.35775
1.35826
1.35873
1.35916
1.35956
1.35993
1.36027
1.36057
1.36084
1.36108
1.3613
1.36149
1.36166
1.3618
1.36192
1.36202
1.3621
1.36217
1.36222
1.36226
1.36229
1.3623
1.36231
1.36231
1.3623
1.36228
1.36226
1.36224
1.36221
1.36218
1.36215
1.36212
1.36208
1.36205
1.36202
1.36198
1.36195
1.36192
1.36189
1.36186
1.36183
1.36181
1.36179
1.36177
1.36175
1.36173
1.36172
1.3617
1.36169
1.36168
1.36168
1.36167
1.36167
1.36166
1.36167
1.36167
1.36167
1.36167
1.36168
1.36168
1.36169
1.3617
1.36171
1.36172
1.36174
1.36175
1.36176
1.36177
1.36179
1.3618
1.36182
1.36183
1.36185
1.36186
1.36188
1.36189
1.36191
1.36192
1.36194
1.36195
1.36196
1.36198
1.36199
1.362
1.36201
1.36202
1.36204
1.36205
1.36206
1.36207
1.36207
1.36208
1.36209
1.3621
1.3621
1.36211
1.36212
1.36212
1.36212
1.36213
1.36213
1.36213
1.36214
1.36214
1.36214
1.36214
1.36215
1.36215
1.36215
1.36215
1.36215
1.36216
1.36216
1.36216
1.36216
1.36216
1.36216
1.36216
1.36216
1.36216
1.36216
1.36216
1.36216
1.36216
1.36215
1.36215
1.36214
1.36214
1.36213
1.36212
1.36211
1.3621
1.36208
1.36207
1.36205
1.36203
1.36201
1.36199
1.36197
1.36195
1.36192
1.36189
1.36186
1.36183
1.3618
1.36177
1.36173
1.3617
1.36166
1.36162
1.36157
1.36153
1.36148
1.36143
1.36137
1.36131
1.36124
1.36117
1.36109
1.36101
1.36091
1.3608
1.36068
1.36055
1.3604
1.36023
1.36005
1.35985
1.35962
1.35937
1.3591
1.3588
1.35847
1.35811
1.35771
1.35729
1.35683
1.35634
1.35582
1.35526
1.35467
1.35404
1.35339
1.3527
1.35199
1.35124
1.35048
1.34969
1.34888
1.34805
1.3472
1.34634
1.34547
1.3446
1.34371
1.34282
1.34193
1.34104
1.34015
1.33926
1.33838
1.3375
1.33663
1.33577
1.33492
1.33408
1.33326
1.33244
1.33164
1.33086
1.33009
1.32933
1.32859
1.32786
1.32715
1.32645
1.32577
1.32511
1.32446
1.32382
1.3232
1.3226
1.32201
1.32144
1.32088
1.32033
1.3198
1.31928
1.31878
1.31829
1.31781
1.31735
1.3169
1.31646
1.31603
1.31562
1.31522
1.31483
1.31445
1.31408
1.31373
1.31339
1.31306
1.31274
1.31243
1.31213
1.31185
1.31157
1.31131
1.31106
1.31082
1.31059
1.31037
1.31016
1.30996
1.30978
1.3096
1.30943
1.30928
1.30913
1.309
1.30887
1.30876
1.30866
1.30856
1.30848
1.30842
1.30835
1.30828
1.30827
1.30826
1.30817
1.30815
1.30829
1.30824
1.30798
1.30825
1.30868
1.30785
1.30731
1.3092
1.30891
1.30416
1.3062
1.31307
1.30075
1.28865
1.33606
1.33609
1.33592
1.33563
1.33506
1.33437
1.33387
1.33326
1.33257
1.33194
1.33133
1.33068
1.33005
1.32944
1.32884
1.32825
1.32769
1.32714
1.32661
1.3261
1.32562
1.32515
1.3247
1.32428
1.32387
1.32349
1.32313
1.32279
1.32247
1.32217
1.32188
1.32162
1.32138
1.32115
1.32094
1.32075
1.32058
1.32043
1.32029
1.32016
1.32006
1.31997
1.31989
1.31983
1.31979
1.31976
1.31974
1.31974
1.31976
1.31979
1.31984
1.3199
1.31998
1.32008
1.32019
1.32032
1.32047
1.32063
1.32082
1.32102
1.32124
1.32149
1.32175
1.32204
1.32235
1.32268
1.32303
1.32341
1.32381
1.32424
1.32469
1.32517
1.32567
1.3262
1.32675
1.32734
1.32794
1.32858
1.32924
1.32993
1.33064
1.33138
1.33214
1.33292
1.33373
1.33456
1.33541
1.33627
1.33715
1.33805
1.33896
1.33988
1.3408
1.34174
1.34267
1.34361
1.34455
1.34548
1.3464
1.34732
1.34822
1.3491
1.34997
1.35082
1.35165
1.35245
1.35323
1.35397
1.35469
1.35538
1.35603
1.35664
1.35723
1.35777
1.35828
1.35876
1.3592
1.3596
1.35997
1.36031
1.36061
1.36089
1.36113
1.36135
1.36154
1.36171
1.36185
1.36197
1.36207
1.36215
1.36222
1.36227
1.36231
1.36234
1.36235
1.36236
1.36236
1.36235
1.36233
1.36231
1.36229
1.36226
1.36223
1.3622
1.36217
1.36213
1.3621
1.36207
1.36203
1.362
1.36197
1.36194
1.36191
1.36188
1.36186
1.36184
1.36182
1.3618
1.36178
1.36177
1.36175
1.36174
1.36173
1.36173
1.36172
1.36172
1.36172
1.36172
1.36172
1.36172
1.36172
1.36173
1.36174
1.36175
1.36175
1.36176
1.36177
1.36179
1.3618
1.36181
1.36182
1.36184
1.36185
1.36187
1.36188
1.3619
1.36191
1.36193
1.36194
1.36196
1.36197
1.36198
1.362
1.36201
1.36202
1.36204
1.36205
1.36206
1.36207
1.36208
1.36209
1.3621
1.36211
1.36212
1.36213
1.36214
1.36214
1.36215
1.36215
1.36216
1.36216
1.36217
1.36217
1.36218
1.36218
1.36218
1.36218
1.36219
1.36219
1.36219
1.36219
1.36219
1.36219
1.3622
1.3622
1.3622
1.3622
1.3622
1.3622
1.3622
1.3622
1.3622
1.3622
1.3622
1.3622
1.3622
1.3622
1.36219
1.36219
1.36218
1.36218
1.36217
1.36216
1.36215
1.36213
1.36212
1.3621
1.36209
1.36207
1.36205
1.36203
1.362
1.36198
1.36195
1.36192
1.36189
1.36186
1.36183
1.36179
1.36175
1.36171
1.36167
1.36163
1.36159
1.36154
1.36149
1.36143
1.36138
1.36131
1.36125
1.36117
1.36109
1.361
1.3609
1.36079
1.36067
1.36053
1.36038
1.36022
1.36003
1.35983
1.3596
1.35935
1.35907
1.35877
1.35844
1.35807
1.35768
1.35726
1.3568
1.3563
1.35578
1.35522
1.35462
1.354
1.35334
1.35265
1.35194
1.35119
1.35043
1.34964
1.34883
1.348
1.34715
1.34629
1.34543
1.34455
1.34366
1.34278
1.34189
1.341
1.34011
1.33922
1.33834
1.33747
1.3366
1.33574
1.3349
1.33406
1.33324
1.33243
1.33163
1.33085
1.33008
1.32932
1.32858
1.32786
1.32715
1.32645
1.32578
1.32511
1.32447
1.32383
1.32322
1.32261
1.32203
1.32145
1.32089
1.32035
1.31982
1.3193
1.3188
1.31831
1.31784
1.31737
1.31692
1.31648
1.31606
1.31564
1.31524
1.31485
1.31448
1.31411
1.31375
1.31341
1.31308
1.31276
1.31245
1.31215
1.31187
1.31159
1.31133
1.31108
1.31083
1.3106
1.31038
1.31017
1.30997
1.30979
1.30961
1.30944
1.30928
1.30914
1.309
1.30887
1.30875
1.30865
1.30856
1.30847
1.30839
1.30834
1.30828
1.3082
1.30819
1.30823
1.30814
1.30804
1.30825
1.30835
1.30788
1.30794
1.30886
1.30828
1.30663
1.30832
1.31001
1.30532
1.30331
1.30871
1.30939
1.33683
1.33647
1.33628
1.33588
1.33511
1.33453
1.33403
1.33329
1.33261
1.33201
1.33134
1.33067
1.33005
1.32943
1.32882
1.32823
1.32766
1.32711
1.32658
1.32607
1.32558
1.32511
1.32467
1.32425
1.32384
1.32346
1.3231
1.32276
1.32244
1.32214
1.32186
1.3216
1.32135
1.32113
1.32092
1.32074
1.32056
1.32041
1.32027
1.32015
1.32004
1.31995
1.31988
1.31982
1.31977
1.31974
1.31973
1.31973
1.31975
1.31978
1.31982
1.31989
1.31996
1.32006
1.32017
1.3203
1.32044
1.32061
1.32079
1.32099
1.32121
1.32145
1.32171
1.32199
1.3223
1.32263
1.32298
1.32335
1.32375
1.32417
1.32462
1.32509
1.32559
1.32611
1.32667
1.32724
1.32785
1.32848
1.32914
1.32982
1.33053
1.33127
1.33203
1.33281
1.33362
1.33444
1.33529
1.33616
1.33704
1.33794
1.33885
1.33977
1.3407
1.34164
1.34258
1.34352
1.34446
1.3454
1.34633
1.34725
1.34816
1.34906
1.34993
1.35079
1.35163
1.35244
1.35322
1.35398
1.3547
1.35539
1.35605
1.35668
1.35727
1.35782
1.35833
1.35882
1.35926
1.35967
1.36004
1.36038
1.36069
1.36096
1.36121
1.36143
1.36162
1.36178
1.36192
1.36204
1.36214
1.36223
1.36229
1.36234
1.36238
1.36241
1.36242
1.36243
1.36242
1.36242
1.3624
1.36238
1.36236
1.36233
1.3623
1.36227
1.36223
1.3622
1.36216
1.36213
1.3621
1.36207
1.36203
1.36201
1.36198
1.36195
1.36193
1.36191
1.36188
1.36187
1.36185
1.36184
1.36182
1.36181
1.3618
1.3618
1.36179
1.36179
1.36179
1.36179
1.36179
1.36179
1.3618
1.3618
1.36181
1.36182
1.36183
1.36184
1.36185
1.36186
1.36187
1.36188
1.3619
1.36191
1.36192
1.36194
1.36195
1.36197
1.36198
1.362
1.36201
1.36203
1.36204
1.36205
1.36207
1.36208
1.36209
1.36211
1.36212
1.36213
1.36214
1.36215
1.36216
1.36217
1.36218
1.36219
1.36219
1.3622
1.36221
1.36222
1.36222
1.36223
1.36223
1.36223
1.36224
1.36224
1.36224
1.36225
1.36225
1.36225
1.36225
1.36225
1.36225
1.36225
1.36226
1.36226
1.36226
1.36226
1.36226
1.36226
1.36226
1.36226
1.36226
1.36226
1.36226
1.36226
1.36226
1.36226
1.36225
1.36225
1.36225
1.36224
1.36223
1.36222
1.36221
1.3622
1.36219
1.36218
1.36216
1.36214
1.36212
1.3621
1.36208
1.36205
1.36203
1.362
1.36197
1.36194
1.3619
1.36187
1.36183
1.36179
1.36175
1.36171
1.36167
1.36162
1.36157
1.36152
1.36146
1.3614
1.36134
1.36127
1.36119
1.36111
1.36102
1.36092
1.3608
1.36068
1.36054
1.36039
1.36022
1.36003
1.35982
1.35959
1.35934
1.35906
1.35875
1.35842
1.35805
1.35765
1.35722
1.35676
1.35626
1.35573
1.35516
1.35456
1.35393
1.35327
1.35258
1.35186
1.35111
1.35034
1.34955
1.34873
1.3479
1.34706
1.3462
1.34533
1.34445
1.34356
1.34268
1.34179
1.3409
1.34001
1.33913
1.33825
1.33738
1.33652
1.33566
1.33482
1.33399
1.33317
1.33236
1.33157
1.33079
1.33002
1.32927
1.32854
1.32782
1.32711
1.32642
1.32575
1.32509
1.32445
1.32382
1.32321
1.32261
1.32202
1.32145
1.3209
1.32036
1.31983
1.31932
1.31882
1.31833
1.31786
1.31739
1.31694
1.31651
1.31608
1.31567
1.31527
1.31488
1.31451
1.31414
1.31379
1.31345
1.31311
1.3128
1.31249
1.31219
1.3119
1.31163
1.31136
1.31111
1.31087
1.31064
1.31042
1.31021
1.31001
1.30982
1.30964
1.30947
1.30931
1.30917
1.30903
1.3089
1.30879
1.30868
1.30859
1.30851
1.30842
1.30835
1.30833
1.30828
1.3082
1.30823
1.3083
1.30817
1.30811
1.30848
1.30848
1.30789
1.3084
1.30944
1.30795
1.30705
1.31048
1.30983
1.30494
1.30831
1.31088
1.33771
1.33724
1.33666
1.33598
1.3354
1.33479
1.33404
1.33333
1.3327
1.332
1.3313
1.33066
1.33002
1.32938
1.32877
1.32818
1.3276
1.32704
1.32651
1.326
1.32551
1.32505
1.3246
1.32418
1.32378
1.3234
1.32304
1.3227
1.32238
1.32209
1.32181
1.32155
1.32131
1.32109
1.32088
1.3207
1.32053
1.32037
1.32024
1.32012
1.32001
1.31992
1.31985
1.31979
1.31974
1.31971
1.3197
1.3197
1.31972
1.31975
1.31979
1.31985
1.31993
1.32002
1.32013
1.32026
1.3204
1.32056
1.32074
1.32094
1.32115
1.32139
1.32165
1.32193
1.32223
1.32255
1.3229
1.32327
1.32366
1.32408
1.32452
1.32499
1.32548
1.326
1.32655
1.32712
1.32773
1.32835
1.32901
1.32969
1.33039
1.33113
1.33189
1.33267
1.33347
1.3343
1.33515
1.33602
1.3369
1.3378
1.33872
1.33965
1.34058
1.34152
1.34247
1.34342
1.34437
1.34531
1.34625
1.34718
1.3481
1.349
1.34989
1.35076
1.3516
1.35243
1.35322
1.35399
1.35472
1.35543
1.35609
1.35673
1.35732
1.35789
1.35841
1.35889
1.35934
1.35976
1.36013
1.36047
1.36078
1.36106
1.36131
1.36152
1.36171
1.36188
1.36202
1.36214
1.36224
1.36232
1.36239
1.36244
1.36247
1.3625
1.36251
1.36252
1.36251
1.3625
1.36249
1.36247
1.36244
1.36241
1.36238
1.36235
1.36232
1.36228
1.36225
1.36222
1.36218
1.36215
1.36212
1.36209
1.36206
1.36204
1.36201
1.36199
1.36197
1.36195
1.36193
1.36192
1.36191
1.3619
1.36189
1.36188
1.36188
1.36188
1.36187
1.36188
1.36188
1.36188
1.36189
1.36189
1.3619
1.36191
1.36192
1.36193
1.36194
1.36195
1.36196
1.36197
1.36199
1.362
1.36201
1.36203
1.36204
1.36206
1.36207
1.36209
1.3621
1.36211
1.36213
1.36214
1.36215
1.36217
1.36218
1.36219
1.3622
1.36222
1.36223
1.36224
1.36225
1.36226
1.36227
1.36227
1.36228
1.36229
1.36229
1.3623
1.3623
1.36231
1.36231
1.36232
1.36232
1.36232
1.36233
1.36233
1.36233
1.36233
1.36233
1.36233
1.36233
1.36234
1.36234
1.36234
1.36234
1.36234
1.36234
1.36234
1.36234
1.36234
1.36234
1.36234
1.36234
1.36234
1.36234
1.36233
1.36233
1.36233
1.36232
1.36231
1.36231
1.3623
1.36229
1.36228
1.36226
1.36225
1.36223
1.36221
1.36219
1.36217
1.36214
1.36212
1.36209
1.36206
1.36203
1.362
1.36196
1.36193
1.36189
1.36185
1.36181
1.36177
1.36172
1.36167
1.36162
1.36157
1.36151
1.36145
1.36138
1.36131
1.36123
1.36115
1.36105
1.36095
1.36083
1.36071
1.36057
1.36041
1.36024
1.36005
1.35984
1.3596
1.35934
1.35906
1.35874
1.3584
1.35803
1.35762
1.35718
1.35671
1.3562
1.35566
1.35509
1.35448
1.35384
1.35317
1.35247
1.35174
1.35099
1.35021
1.34941
1.34859
1.34776
1.3469
1.34604
1.34517
1.34429
1.3434
1.34252
1.34163
1.34074
1.33985
1.33897
1.33809
1.33723
1.33637
1.33552
1.33468
1.33385
1.33304
1.33224
1.33145
1.33067
1.32992
1.32917
1.32844
1.32773
1.32704
1.32635
1.32569
1.32504
1.3244
1.32378
1.32317
1.32258
1.322
1.32144
1.32089
1.32035
1.31983
1.31932
1.31883
1.31834
1.31787
1.31742
1.31697
1.31654
1.31612
1.31571
1.31531
1.31492
1.31455
1.31419
1.31384
1.3135
1.31317
1.31285
1.31254
1.31225
1.31196
1.31169
1.31142
1.31117
1.31093
1.3107
1.31048
1.31027
1.31007
1.30989
1.30971
1.30954
1.30939
1.30924
1.3091
1.30898
1.30887
1.30877
1.30867
1.30859
1.30854
1.30846
1.30841
1.30843
1.30842
1.30832
1.30839
1.30859
1.30845
1.3083
1.30891
1.30916
1.30824
1.30875
1.31062
1.30928
1.30763
1.31096
1.31282
1.30985
1.30956
1.33872
1.33788
1.33711
1.33634
1.33568
1.3349
1.33409
1.33342
1.33271
1.33195
1.33127
1.33061
1.32993
1.32929
1.32868
1.32808
1.32749
1.32694
1.32641
1.3259
1.32541
1.32494
1.3245
1.32408
1.32368
1.32331
1.32295
1.32262
1.3223
1.32201
1.32173
1.32148
1.32124
1.32102
1.32082
1.32064
1.32047
1.32032
1.32018
1.32007
1.31996
1.31987
1.3198
1.31974
1.3197
1.31967
1.31966
1.31966
1.31967
1.3197
1.31975
1.31981
1.31988
1.31997
1.32008
1.3202
1.32034
1.3205
1.32068
1.32087
1.32108
1.32132
1.32157
1.32184
1.32214
1.32246
1.3228
1.32316
1.32355
1.32396
1.3244
1.32486
1.32535
1.32587
1.32641
1.32698
1.32757
1.3282
1.32885
1.32952
1.33023
1.33096
1.33171
1.3325
1.3333
1.33413
1.33498
1.33585
1.33673
1.33764
1.33856
1.33949
1.34043
1.34138
1.34233
1.34329
1.34425
1.3452
1.34615
1.34709
1.34802
1.34894
1.34984
1.35072
1.35158
1.35241
1.35322
1.354
1.35475
1.35546
1.35614
1.35679
1.35739
1.35796
1.3585
1.35899
1.35944
1.35986
1.36024
1.36059
1.3609
1.36118
1.36143
1.36164
1.36183
1.362
1.36214
1.36226
1.36236
1.36244
1.3625
1.36255
1.36258
1.36261
1.36262
1.36262
1.36262
1.36261
1.36259
1.36257
1.36254
1.36251
1.36248
1.36245
1.36242
1.36238
1.36235
1.36232
1.36228
1.36225
1.36222
1.36219
1.36216
1.36214
1.36211
1.36209
1.36207
1.36205
1.36204
1.36203
1.36201
1.362
1.362
1.36199
1.36199
1.36198
1.36198
1.36198
1.36199
1.36199
1.36199
1.362
1.36201
1.36202
1.36203
1.36204
1.36205
1.36206
1.36207
1.36208
1.3621
1.36211
1.36212
1.36214
1.36215
1.36217
1.36218
1.3622
1.36221
1.36222
1.36224
1.36225
1.36226
1.36228
1.36229
1.3623
1.36231
1.36232
1.36233
1.36234
1.36235
1.36236
1.36237
1.36238
1.36239
1.36239
1.3624
1.36241
1.36241
1.36241
1.36242
1.36242
1.36242
1.36243
1.36243
1.36243
1.36243
1.36243
1.36243
1.36244
1.36244
1.36244
1.36244
1.36244
1.36244
1.36244
1.36244
1.36244
1.36244
1.36244
1.36244
1.36244
1.36243
1.36243
1.36243
1.36243
1.36242
1.36242
1.36241
1.36241
1.3624
1.36239
1.36238
1.36236
1.36235
1.36233
1.36232
1.3623
1.36228
1.36225
1.36223
1.3622
1.36217
1.36214
1.36211
1.36208
1.36204
1.362
1.36197
1.36192
1.36188
1.36184
1.36179
1.36174
1.36169
1.36164
1.36158
1.36151
1.36145
1.36137
1.36129
1.36121
1.36111
1.361
1.36089
1.36076
1.36061
1.36045
1.36028
1.36008
1.35986
1.35962
1.35935
1.35906
1.35874
1.35839
1.358
1.35758
1.35713
1.35665
1.35613
1.35558
1.35499
1.35437
1.35372
1.35304
1.35233
1.35159
1.35082
1.35003
1.34923
1.3484
1.34756
1.3467
1.34583
1.34496
1.34408
1.34319
1.3423
1.34141
1.34052
1.33963
1.33875
1.33788
1.33701
1.33615
1.33531
1.33447
1.33365
1.33284
1.33205
1.33127
1.33051
1.32975
1.32902
1.3283
1.3276
1.32691
1.32624
1.32558
1.32494
1.32432
1.3237
1.3231
1.32252
1.32196
1.3214
1.32086
1.32033
1.31982
1.31932
1.31883
1.31835
1.31789
1.31744
1.317
1.31657
1.31616
1.31575
1.31536
1.31498
1.31461
1.31425
1.3139
1.31357
1.31324
1.31293
1.31262
1.31233
1.31205
1.31178
1.31152
1.31127
1.31103
1.3108
1.31058
1.31038
1.31018
1.31
1.30982
1.30966
1.3095
1.30936
1.30923
1.30911
1.309
1.30891
1.30883
1.30875
1.3087
1.30868
1.30862
1.3086
1.30867
1.3087
1.30862
1.30879
1.30908
1.30892
1.30891
1.30979
1.30991
1.30912
1.31039
1.31193
1.31057
1.31083
1.31342
1.31373
1.31442
1.33972
1.33844
1.33759
1.33674
1.33583
1.33498
1.33422
1.33344
1.33263
1.3319
1.33121
1.33049
1.32981
1.32917
1.32854
1.32793
1.32735
1.3268
1.32626
1.32575
1.32527
1.32481
1.32437
1.32395
1.32356
1.32318
1.32283
1.3225
1.32219
1.3219
1.32163
1.32138
1.32115
1.32094
1.32074
1.32056
1.32039
1.32025
1.32012
1.32
1.3199
1.31981
1.31974
1.31968
1.31964
1.31961
1.3196
1.3196
1.31961
1.31964
1.31969
1.31974
1.31982
1.31991
1.32001
1.32013
1.32027
1.32042
1.3206
1.32079
1.321
1.32122
1.32147
1.32174
1.32203
1.32234
1.32268
1.32304
1.32342
1.32382
1.32425
1.32471
1.32519
1.3257
1.32624
1.3268
1.32739
1.32801
1.32866
1.32933
1.33003
1.33076
1.33151
1.33229
1.3331
1.33392
1.33477
1.33565
1.33653
1.33744
1.33837
1.3393
1.34025
1.34121
1.34217
1.34314
1.3441
1.34507
1.34603
1.34698
1.34792
1.34886
1.34977
1.35066
1.35154
1.35239
1.35321
1.35401
1.35477
1.3555
1.35619
1.35685
1.35747
1.35805
1.3586
1.3591
1.35956
1.35998
1.36037
1.36072
1.36103
1.36131
1.36156
1.36178
1.36197
1.36213
1.36227
1.36239
1.36249
1.36257
1.36263
1.36267
1.36271
1.36273
1.36274
1.36274
1.36274
1.36272
1.36271
1.36268
1.36266
1.36263
1.3626
1.36257
1.36253
1.3625
1.36246
1.36243
1.3624
1.36237
1.36234
1.36231
1.36228
1.36226
1.36223
1.36221
1.36219
1.36217
1.36216
1.36215
1.36213
1.36213
1.36212
1.36211
1.36211
1.36211
1.36211
1.36211
1.36211
1.36212
1.36212
1.36213
1.36214
1.36215
1.36216
1.36217
1.36218
1.36219
1.3622
1.36222
1.36223
1.36224
1.36225
1.36227
1.36228
1.3623
1.36231
1.36233
1.36234
1.36235
1.36237
1.36238
1.36239
1.36241
1.36242
1.36243
1.36244
1.36245
1.36246
1.36247
1.36248
1.36249
1.3625
1.36251
1.36251
1.36252
1.36252
1.36253
1.36253
1.36254
1.36254
1.36255
1.36255
1.36255
1.36255
1.36255
1.36255
1.36256
1.36256
1.36256
1.36256
1.36256
1.36256
1.36256
1.36256
1.36256
1.36255
1.36255
1.36255
1.36255
1.36255
1.36255
1.36255
1.36255
1.36254
1.36254
1.36253
1.36253
1.36252
1.36251
1.36251
1.3625
1.36248
1.36247
1.36245
1.36244
1.36242
1.3624
1.36238
1.36235
1.36233
1.3623
1.36227
1.36224
1.3622
1.36217
1.36213
1.3621
1.36206
1.36201
1.36197
1.36193
1.36188
1.36183
1.36178
1.36172
1.36166
1.3616
1.36153
1.36145
1.36137
1.36128
1.36118
1.36108
1.36096
1.36082
1.36067
1.36051
1.36033
1.36012
1.3599
1.35965
1.35938
1.35907
1.35874
1.35838
1.35798
1.35755
1.35709
1.35659
1.35605
1.35548
1.35488
1.35424
1.35357
1.35288
1.35215
1.3514
1.35062
1.34982
1.349
1.34817
1.34731
1.34645
1.34558
1.34469
1.34381
1.34292
1.34202
1.34113
1.34024
1.33935
1.33847
1.3376
1.33674
1.33588
1.33504
1.33421
1.3334
1.3326
1.33181
1.33104
1.33028
1.32954
1.32882
1.32811
1.32742
1.32674
1.32608
1.32544
1.32481
1.32419
1.3236
1.32301
1.32244
1.32189
1.32134
1.32081
1.3203
1.3198
1.31931
1.31883
1.31836
1.31791
1.31747
1.31704
1.31662
1.31621
1.31581
1.31543
1.31505
1.31469
1.31434
1.314
1.31367
1.31335
1.31304
1.31274
1.31245
1.31217
1.3119
1.31165
1.3114
1.31117
1.31094
1.31073
1.31053
1.31033
1.31015
1.30998
1.30983
1.30968
1.30954
1.30942
1.30931
1.30921
1.30912
1.30906
1.309
1.30894
1.30893
1.30896
1.30893
1.30894
1.30911
1.3092
1.30911
1.30942
1.30992
1.30971
1.30976
1.31106
1.31135
1.31051
1.31201
1.31417
1.31364
1.31369
1.31654
1.31863
1.34052
1.33901
1.33799
1.33697
1.33597
1.33509
1.33424
1.33337
1.33256
1.33182
1.33106
1.33033
1.32966
1.329
1.32835
1.32775
1.32717
1.32661
1.32608
1.32557
1.32509
1.32463
1.3242
1.32379
1.3234
1.32303
1.32269
1.32237
1.32206
1.32178
1.32152
1.32127
1.32104
1.32083
1.32064
1.32046
1.32031
1.32016
1.32003
1.31992
1.31982
1.31974
1.31967
1.31961
1.31957
1.31954
1.31953
1.31953
1.31955
1.31957
1.31962
1.31967
1.31974
1.31983
1.31993
1.32005
1.32019
1.32034
1.3205
1.32069
1.32089
1.32112
1.32136
1.32162
1.32191
1.32221
1.32254
1.32289
1.32327
1.32366
1.32409
1.32454
1.32501
1.32552
1.32605
1.3266
1.32719
1.3278
1.32844
1.32911
1.32981
1.33053
1.33128
1.33206
1.33286
1.33369
1.33454
1.33541
1.3363
1.33721
1.33814
1.33908
1.34004
1.341
1.34198
1.34295
1.34393
1.34491
1.34588
1.34685
1.3478
1.34875
1.34968
1.35059
1.35149
1.35236
1.3532
1.35401
1.35479
1.35554
1.35625
1.35692
1.35756
1.35815
1.3587
1.35921
1.35969
1.36012
1.36051
1.36086
1.36118
1.36146
1.36171
1.36193
1.36212
1.36228
1.36242
1.36254
1.36263
1.36271
1.36277
1.36282
1.36285
1.36287
1.36288
1.36288
1.36287
1.36286
1.36284
1.36282
1.36279
1.36276
1.36273
1.3627
1.36266
1.36263
1.3626
1.36256
1.36253
1.3625
1.36247
1.36244
1.36241
1.36239
1.36237
1.36235
1.36233
1.36231
1.3623
1.36229
1.36227
1.36227
1.36226
1.36226
1.36225
1.36225
1.36225
1.36226
1.36226
1.36226
1.36227
1.36228
1.36228
1.36229
1.3623
1.36232
1.36233
1.36234
1.36235
1.36236
1.36238
1.36239
1.3624
1.36242
1.36243
1.36245
1.36246
1.36247
1.36249
1.3625
1.36251
1.36253
1.36254
1.36255
1.36256
1.36258
1.36259
1.3626
1.36261
1.36262
1.36263
1.36264
1.36264
1.36265
1.36266
1.36266
1.36267
1.36267
1.36268
1.36268
1.36269
1.36269
1.36269
1.36269
1.36269
1.3627
1.3627
1.3627
1.3627
1.3627
1.3627
1.3627
1.36269
1.36269
1.36269
1.36269
1.36269
1.36269
1.36269
1.36269
1.36268
1.36268
1.36268
1.36268
1.36267
1.36267
1.36266
1.36266
1.36265
1.36264
1.36263
1.36262
1.3626
1.36259
1.36257
1.36256
1.36254
1.36251
1.36249
1.36247
1.36244
1.36241
1.36238
1.36235
1.36231
1.36228
1.36224
1.3622
1.36216
1.36212
1.36208
1.36203
1.36198
1.36193
1.36188
1.36182
1.36176
1.3617
1.36162
1.36155
1.36147
1.36137
1.36128
1.36117
1.36104
1.3609
1.36075
1.36058
1.36039
1.36019
1.35995
1.35969
1.35941
1.35909
1.35875
1.35837
1.35796
1.35751
1.35703
1.35651
1.35596
1.35537
1.35475
1.35409
1.35341
1.35269
1.35194
1.35117
1.35039
1.34957
1.34874
1.34789
1.34703
1.34616
1.34528
1.34439
1.34349
1.3426
1.3417
1.34081
1.33991
1.33903
1.33815
1.33727
1.33642
1.33556
1.33473
1.3339
1.33309
1.3323
1.33152
1.33076
1.33001
1.32929
1.32857
1.32787
1.3272
1.32654
1.32589
1.32526
1.32465
1.32404
1.32346
1.32289
1.32233
1.32179
1.32127
1.32075
1.32025
1.31976
1.31928
1.31882
1.31836
1.31792
1.31749
1.31707
1.31667
1.31627
1.31588
1.31551
1.31514
1.31479
1.31445
1.31411
1.31379
1.31347
1.31317
1.31288
1.3126
1.31233
1.31207
1.31181
1.31157
1.31134
1.31113
1.31092
1.31072
1.31053
1.31036
1.3102
1.31004
1.30991
1.30978
1.30966
1.30956
1.30948
1.3094
1.30934
1.30932
1.30929
1.30927
1.30931
1.30939
1.3094
1.30947
1.30976
1.3099
1.30988
1.31039
1.31099
1.31083
1.31124
1.31268
1.313
1.31296
1.31457
1.31616
1.31703
1.3184
1.32002
1.34107
1.33942
1.33826
1.3371
1.33607
1.33511
1.33414
1.33326
1.33245
1.33164
1.33085
1.33014
1.32944
1.32876
1.32813
1.32752
1.32694
1.32638
1.32586
1.32536
1.32488
1.32443
1.324
1.3236
1.32322
1.32286
1.32252
1.32221
1.32191
1.32163
1.32138
1.32114
1.32092
1.32071
1.32053
1.32036
1.3202
1.32006
1.31994
1.31983
1.31973
1.31965
1.31959
1.31953
1.31949
1.31947
1.31945
1.31945
1.31947
1.31949
1.31954
1.31959
1.31966
1.31974
1.31984
1.31996
1.32009
1.32023
1.3204
1.32058
1.32078
1.321
1.32123
1.32149
1.32177
1.32207
1.32239
1.32273
1.3231
1.32349
1.32391
1.32434
1.32482
1.32531
1.32583
1.32638
1.32696
1.32756
1.32819
1.32886
1.32954
1.33026
1.33101
1.33179
1.33259
1.33342
1.33426
1.33514
1.33604
1.33695
1.33788
1.33883
1.33979
1.34077
1.34175
1.34273
1.34372
1.34472
1.3457
1.34668
1.34766
1.34862
1.34957
1.3505
1.35141
1.3523
1.35316
1.354
1.3548
1.35556
1.3563
1.35699
1.35764
1.35825
1.35881
1.35934
1.35982
1.36026
1.36066
1.36102
1.36134
1.36163
1.36188
1.36209
1.36229
1.36245
1.36258
1.3627
1.3628
1.36287
1.36293
1.36297
1.363
1.36302
1.36303
1.36303
1.36302
1.363
1.36299
1.36296
1.36293
1.36291
1.36287
1.36284
1.36281
1.36278
1.36274
1.36271
1.36268
1.36265
1.36262
1.36259
1.36256
1.36254
1.36252
1.3625
1.36248
1.36247
1.36245
1.36244
1.36243
1.36242
1.36242
1.36242
1.36241
1.36241
1.36241
1.36242
1.36242
1.36243
1.36243
1.36244
1.36245
1.36246
1.36247
1.36248
1.36249
1.36251
1.36252
1.36253
1.36255