# vtk DataFile Version 2.0
LBE two cylinders
ASCII
DATASET STRUCTURED_POINTS
DIMENSIONS 400 100 1
ASPECT_RATIO 1 1 1
ORIGIN 0 0 0
POINT_DATA 40000
SCALARS rho double 1
LOOKUP_TABLE default
1.33793
1.33515
1.33545
1.3355
1.33457
1.33406
1.33376
1.3331
1.33249
1.33197
1.33139
1.33078
1.33022
1.32967
1.3291
1.32856
1.32804
1.32753
1.32703
1.32655
1.32609
1.32565
1.32522
1.32482
1.32443
1.32406
1.3237
1.32337
1.32305
1.32275
1.32247
1.3222
1.32195
1.32171
1.3215
1.32129
1.32111
1.32094
1.32078
1.32064
1.32051
1.3204
1.32031
1.32023
1.32016
1.32011
1.32007
1.32005
1.32004
1.32005
1.32007
1.32011
1.32017
1.32024
1.32033
1.32043
1.32056
1.3207
1.32086
1.32103
1.32123
1.32145
1.32168
1.32194
1.32222
1.32253
1.32285
1.32321
1.32358
1.32398
1.32441
1.32486
1.32534
1.32585
1.32639
1.32696
1.32755
1.32818
1.32883
1.32951
1.33022
1.33096
1.33173
1.33252
1.33334
1.33419
1.33506
1.33595
1.33686
1.33779
1.33874
1.33971
1.34068
1.34167
1.34267
1.34367
1.34467
1.34567
1.34668
1.34767
1.34866
1.34964
1.3506
1.35155
1.35248
1.35339
1.35427
1.35513
1.35596
1.35677
1.35754
1.35828
1.35899
1.35967
1.36031
1.36092
1.3615
1.36204
1.36255
1.36303
1.36348
1.3639
1.36429
1.36465
1.36499
1.3653
1.36559
1.36585
1.3661
1.36633
1.36654
1.36673
1.36691
1.36708
1.36723
1.36737
1.3675
1.36762
1.36774
1.36784
1.36794
1.36803
1.36812
1.3682
1.36827
1.36834
1.36841
1.36848
1.36854
1.36859
1.36865
1.3687
1.36875
1.36879
1.36884
1.36888
1.36892
1.36896
1.36899
1.36903
1.36906
1.36909
1.36912
1.36915
1.36917
1.3692
1.36922
1.36924
1.36926
1.36928
1.36929
1.36931
1.36933
1.36934
1.36935
1.36937
1.36938
1.36939
1.3694
1.36941
1.36942
1.36943
1.36944
1.36945
1.36946
1.36947
1.36948
1.36949
1.3695
1.36951
1.36952
1.36953
1.36954
1.36956
1.36957
1.36958
1.3696
1.36961
1.36963
1.36964
1.36966
1.36968
1.3697
1.36971
1.36973
1.36975
1.36977
1.36979
1.36981
1.36983
1.36985
1.36987
1.36989
1.36992
1.36994
1.36996
1.36997
1.36999
1.37001
1.37003
1.37004
1.37006
1.37007
1.37008
1.37009
1.3701
1.3701
1.3701
1.3701
1.3701
1.37009
1.37008
1.37006
1.37004
1.37002
1.36999
1.36995
1.36991
1.36987
1.36982
1.36976
1.36969
1.36963
1.36955
1.36947
1.36938
1.36928
1.36918
1.36907
1.36896
1.36884
1.36871
1.36858
1.36844
1.3683
1.36815
1.36799
1.36783
1.36767
1.3675
1.36732
1.36714
1.36696
1.36677
1.36658
1.36638
1.36618
1.36598
1.36576
1.36554
1.36532
1.36509
1.36485
1.3646
1.36433
1.36406
1.36378
1.36348
1.36316
1.36283
1.36248
1.36211
1.36171
1.36129
1.36085
1.36038
1.35988
1.35936
1.3588
1.35821
1.35759
1.35694
1.35627
1.35556
1.35482
1.35405
1.35326
1.35244
1.3516
1.35074
1.34987
1.34897
1.34806
1.34715
1.34622
1.34529
1.34435
1.34341
1.34247
1.34154
1.34061
1.33969
1.33877
1.33786
1.33697
1.33609
1.33522
1.33436
1.33352
1.3327
1.33189
1.3311
1.33032
1.32956
1.32882
1.3281
1.3274
1.32671
1.32604
1.32539
1.32476
1.32414
1.32354
1.32296
1.32239
1.32184
1.32131
1.32079
1.32028
1.31979
1.31932
1.31886
1.31841
1.31798
1.31756
1.31715
1.31676
1.31637
1.316
1.31565
1.3153
1.31496
1.31464
1.31432
1.31402
1.31373
1.31344
1.31317
1.3129
1.31265
1.3124
1.31216
1.31193
1.31171
1.31149
1.31129
1.31109
1.3109
1.31072
1.31054
1.31037
1.31021
1.31006
1.30991
1.30977
1.30964
1.30952
1.30941
1.3093
1.30919
1.30912
1.30904
1.30895
1.3089
1.30891
1.30884
1.30872
1.30884
1.30899
1.30863
1.30849
1.3094
1.30927
1.30721
1.30817
1.31204
1.30741
1.2987
1.30923
1.31826
1.33602
1.33617
1.33568
1.33502
1.33473
1.33427
1.33369
1.33312
1.3326
1.33201
1.33142
1.33085
1.33028
1.32971
1.32915
1.32862
1.32808
1.32757
1.32708
1.3266
1.32613
1.32569
1.32526
1.32486
1.32447
1.32409
1.32374
1.3234
1.32308
1.32278
1.3225
1.32223
1.32198
1.32174
1.32152
1.32132
1.32113
1.32096
1.32081
1.32067
1.32054
1.32043
1.32033
1.32025
1.32018
1.32013
1.32009
1.32007
1.32006
1.32007
1.3201
1.32013
1.32019
1.32026
1.32035
1.32045
1.32057
1.32071
1.32087
1.32105
1.32124
1.32146
1.3217
1.32196
1.32223
1.32254
1.32286
1.32321
1.32359
1.32399
1.32441
1.32486
1.32534
1.32585
1.32639
1.32695
1.32754
1.32816
1.32881
1.32949
1.3302
1.33094
1.3317
1.33249
1.33331
1.33415
1.33502
1.33591
1.33682
1.33775
1.33869
1.33966
1.34063
1.34162
1.34261
1.34361
1.34461
1.34561
1.34661
1.34761
1.34859
1.34957
1.35053
1.35148
1.35241
1.35332
1.35421
1.35507
1.3559
1.35671
1.35748
1.35823
1.35894
1.35962
1.36026
1.36087
1.36145
1.362
1.36251
1.36299
1.36344
1.36387
1.36426
1.36462
1.36496
1.36527
1.36556
1.36583
1.36608
1.36631
1.36652
1.36671
1.36689
1.36706
1.36721
1.36736
1.36749
1.36761
1.36772
1.36783
1.36793
1.36802
1.3681
1.36819
1.36826
1.36833
1.3684
1.36846
1.36852
1.36858
1.36863
1.36869
1.36873
1.36878
1.36882
1.36887
1.36891
1.36894
1.36898
1.36901
1.36904
1.36908
1.3691
1.36913
1.36916
1.36918
1.3692
1.36922
1.36924
1.36926
1.36928
1.3693
1.36931
1.36932
1.36934
1.36935
1.36936
1.36937
1.36938
1.36939
1.3694
1.36941
1.36942
1.36943
1.36944
1.36945
1.36946
1.36947
1.36948
1.36949
1.3695
1.36952
1.36953
1.36954
1.36955
1.36957
1.36958
1.36959
1.36961
1.36963
1.36964
1.36966
1.36968
1.36969
1.36971
1.36973
1.36975
1.36977
1.36979
1.36981
1.36983
1.36985
1.36987
1.36989
1.36991
1.36993
1.36995
1.36997
1.36998
1.37
1.37002
1.37003
1.37004
1.37005
1.37006
1.37007
1.37007
1.37007
1.37007
1.37007
1.37006
1.37005
1.37003
1.37001
1.36998
1.36995
1.36992
1.36988
1.36983
1.36978
1.36972
1.36966
1.36959
1.36952
1.36943
1.36934
1.36925
1.36915
1.36904
1.36892
1.3688
1.36868
1.36854
1.3684
1.36826
1.36811
1.36795
1.36779
1.36762
1.36745
1.36728
1.3671
1.36691
1.36673
1.36653
1.36633
1.36613
1.36592
1.36571
1.36549
1.36526
1.36502
1.36478
1.36453
1.36426
1.36399
1.3637
1.3634
1.36308
1.36275
1.3624
1.36202
1.36163
1.36121
1.36077
1.3603
1.3598
1.35927
1.35872
1.35813
1.35752
1.35687
1.35619
1.35549
1.35475
1.35399
1.35321
1.35239
1.35156
1.3507
1.34983
1.34894
1.34804
1.34713
1.3462
1.34528
1.34434
1.34341
1.34248
1.34155
1.34062
1.3397
1.33879
1.33789
1.337
1.33612
1.33525
1.3344
1.33356
1.33274
1.33193
1.33114
1.33037
1.32961
1.32887
1.32815
1.32745
1.32676
1.32609
1.32544
1.32481
1.32419
1.32359
1.32301
1.32244
1.32189
1.32135
1.32083
1.32033
1.31984
1.31936
1.3189
1.31845
1.31802
1.31759
1.31719
1.31679
1.31641
1.31603
1.31567
1.31533
1.31499
1.31466
1.31435
1.31404
1.31374
1.31346
1.31318
1.31291
1.31266
1.31241
1.31217
1.31193
1.31171
1.31149
1.31128
1.31108
1.31089
1.31071
1.31053
1.31036
1.31019
1.31003
1.30988
1.30974
1.30961
1.30948
1.30936
1.30925
1.30915
1.30904
1.30896
1.3089
1.30881
1.30873
1.30873
1.30871
1.30856
1.30853
1.30877
1.30857
1.30806
1.30846
1.30912
1.3074
1.30591
1.30854
1.30798
1.29812
1.29264
1.33533
1.33635
1.33563
1.33493
1.33493
1.33438
1.33368
1.33322
1.33269
1.33204
1.33146
1.33091
1.33031
1.32974
1.32919
1.32865
1.32811
1.3276
1.3271
1.32662
1.32615
1.32571
1.32528
1.32487
1.32448
1.32411
1.32375
1.32342
1.3231
1.32279
1.32251
1.32224
1.32199
1.32175
1.32153
1.32133
1.32114
1.32097
1.32081
1.32067
1.32055
1.32043
1.32034
1.32026
1.32019
1.32014
1.3201
1.32008
1.32007
1.32008
1.3201
1.32014
1.32019
1.32026
1.32035
1.32045
1.32057
1.32071
1.32087
1.32104
1.32124
1.32145
1.32169
1.32195
1.32222
1.32252
1.32285
1.3232
1.32357
1.32397
1.32439
1.32484
1.32531
1.32582
1.32635
1.32691
1.3275
1.32812
1.32877
1.32945
1.33015
1.33089
1.33165
1.33244
1.33325
1.33409
1.33496
1.33585
1.33675
1.33768
1.33863
1.33959
1.34056
1.34155
1.34254
1.34354
1.34454
1.34555
1.34655
1.34754
1.34853
1.34951
1.35047
1.35143
1.35236
1.35327
1.35416
1.35502
1.35586
1.35667
1.35744
1.35819
1.35891
1.35959
1.36024
1.36085
1.36143
1.36198
1.3625
1.36298
1.36343
1.36385
1.36425
1.36461
1.36495
1.36526
1.36555
1.36582
1.36607
1.3663
1.36651
1.3667
1.36688
1.36705
1.3672
1.36735
1.36747
1.3676
1.36771
1.36782
1.36791
1.368
1.36809
1.36817
1.36824
1.36832
1.36838
1.36845
1.3685
1.36856
1.36862
1.36867
1.36871
1.36876
1.3688
1.36885
1.36888
1.36892
1.36896
1.36899
1.36902
1.36905
1.36908
1.36911
1.36913
1.36916
1.36918
1.3692
1.36922
1.36924
1.36926
1.36927
1.36929
1.3693
1.36931
1.36933
1.36934
1.36935
1.36936
1.36937
1.36938
1.36939
1.3694
1.36941
1.36942
1.36943
1.36944
1.36945
1.36946
1.36947
1.36948
1.36949
1.3695
1.36951
1.36952
1.36954
1.36955
1.36957
1.36958
1.3696
1.36961
1.36963
1.36965
1.36966
1.36968
1.3697
1.36972
1.36974
1.36976
1.36978
1.3698
1.36982
1.36984
1.36986
1.36988
1.3699
1.36991
1.36993
1.36995
1.36997
1.36998
1.36999
1.37001
1.37002
1.37002
1.37003
1.37003
1.37003
1.37003
1.37003
1.37002
1.37001
1.36999
1.36997
1.36994
1.36991
1.36988
1.36984
1.36979
1.36974
1.36968
1.36962
1.36955
1.36948
1.36939
1.36931
1.36921
1.36911
1.369
1.36888
1.36876
1.36864
1.3685
1.36836
1.36822
1.36807
1.36791
1.36775
1.36758
1.36741
1.36723
1.36705
1.36687
1.36668
1.36648
1.36628
1.36608
1.36587
1.36565
1.36543
1.3652
1.36496
1.36472
1.36446
1.3642
1.36392
1.36364
1.36333
1.36302
1.36268
1.36233
1.36195
1.36156
1.36114
1.3607
1.36023
1.35973
1.3592
1.35865
1.35807
1.35745
1.35681
1.35613
1.35543
1.3547
1.35394
1.35315
1.35234
1.35151
1.35066
1.34979
1.3489
1.34801
1.3471
1.34618
1.34525
1.34432
1.34339
1.34246
1.34154
1.34061
1.3397
1.33879
1.33789
1.337
1.33612
1.33526
1.33441
1.33357
1.33275
1.33195
1.33116
1.33039
1.32964
1.3289
1.32818
1.32748
1.32679
1.32612
1.32547
1.32484
1.32422
1.32362
1.32304
1.32247
1.32192
1.32138
1.32086
1.32036
1.31987
1.31939
1.31893
1.31848
1.31804
1.31762
1.31721
1.31681
1.31643
1.31605
1.31569
1.31534
1.315
1.31468
1.31436
1.31405
1.31375
1.31347
1.31319
1.31292
1.31266
1.31241
1.31217
1.31193
1.31171
1.31149
1.31128
1.31107
1.31088
1.31069
1.31051
1.31034
1.31017
1.31001
1.30986
1.30971
1.30957
1.30944
1.30931
1.3092
1.3091
1.30899
1.30888
1.30882
1.30876
1.30863
1.30855
1.30864
1.30853
1.30821
1.30843
1.3088
1.30792
1.30731
1.30915
1.30879
1.304
1.30598
1.31277
1.30041
1.28827
1.33575
1.33584
1.33572
1.33549
1.33498
1.33433
1.33388
1.33332
1.33268
1.3321
1.33153
1.33092
1.33033
1.32977
1.3292
1.32865
1.32812
1.3276
1.32709
1.32661
1.32615
1.3257
1.32527
1.32486
1.32447
1.3241
1.32374
1.3234
1.32308
1.32278
1.32249
1.32223
1.32197
1.32174
1.32152
1.32132
1.32113
1.32096
1.3208
1.32066
1.32053
1.32042
1.32033
1.32024
1.32018
1.32012
1.32009
1.32006
1.32005
1.32006
1.32008
1.32012
1.32018
1.32025
1.32033
1.32043
1.32055
1.32069
1.32084
1.32102
1.32121
1.32142
1.32166
1.32191
1.32219
1.32249
1.32281
1.32315
1.32352
1.32392
1.32433
1.32478
1.32526
1.32576
1.32629
1.32685
1.32743
1.32805
1.32869
1.32937
1.33007
1.3308
1.33156
1.33235
1.33316
1.334
1.33487
1.33576
1.33666
1.33759
1.33854
1.3395
1.34047
1.34146
1.34245
1.34346
1.34446
1.34547
1.34647
1.34747
1.34846
1.34945
1.35042
1.35137
1.35231
1.35322
1.35412
1.35499
1.35583
1.35664
1.35742
1.35818
1.35889
1.35958
1.36023
1.36085
1.36143
1.36198
1.3625
1.36298
1.36344
1.36386
1.36425
1.36462
1.36495
1.36527
1.36556
1.36582
1.36607
1.3663
1.36651
1.3667
1.36688
1.36704
1.36719
1.36734
1.36746
1.36759
1.3677
1.3678
1.3679
1.36799
1.36807
1.36815
1.36822
1.3683
1.36836
1.36842
1.36848
1.36854
1.36859
1.36864
1.36869
1.36874
1.36878
1.36882
1.36886
1.3689
1.36893
1.36896
1.36899
1.36902
1.36905
1.36908
1.3691
1.36913
1.36915
1.36917
1.36919
1.36921
1.36922
1.36924
1.36925
1.36927
1.36928
1.36929
1.3693
1.36932
1.36933
1.36934
1.36935
1.36936
1.36936
1.36937
1.36938
1.36939
1.3694
1.36941
1.36942
1.36943
1.36944
1.36945
1.36946
1.36948
1.36949
1.3695
1.36951
1.36953
1.36954
1.36956
1.36957
1.36959
1.36961
1.36963
1.36964
1.36966
1.36968
1.3697
1.36972
1.36974
1.36976
1.36978
1.3698
1.36982
1.36983
1.36985
1.36987
1.36989
1.36991
1.36992
1.36994
1.36995
1.36996
1.36997
1.36998
1.36999
1.36999
1.36999
1.36999
1.36998
1.36997
1.36996
1.36994
1.36992
1.3699
1.36987
1.36983
1.3698
1.36975
1.3697
1.36964
1.36958
1.36951
1.36943
1.36935
1.36926
1.36917
1.36906
1.36896
1.36884
1.36872
1.36859
1.36846
1.36832
1.36817
1.36802
1.36786
1.3677
1.36753
1.36736
1.36719
1.367
1.36682
1.36663
1.36643
1.36623
1.36602
1.36581
1.3656
1.36537
1.36514
1.36491
1.36466
1.36441
1.36414
1.36387
1.36358
1.36327
1.36295
1.36262
1.36226
1.36189
1.36149
1.36107
1.36063
1.36016
1.35966
1.35914
1.35858
1.358
1.35738
1.35674
1.35606
1.35536
1.35463
1.35387
1.35308
1.35227
1.35144
1.35059
1.34972
1.34884
1.34794
1.34703
1.34611
1.34519
1.34426
1.34333
1.34241
1.34148
1.34056
1.33965
1.33874
1.33785
1.33696
1.33609
1.33523
1.33438
1.33355
1.33273
1.33193
1.33114
1.33038
1.32962
1.32889
1.32817
1.32747
1.32679
1.32613
1.32548
1.32484
1.32423
1.32363
1.32305
1.32248
1.32193
1.3214
1.32088
1.32037
1.31988
1.3194
1.31894
1.31849
1.31806
1.31763
1.31722
1.31683
1.31644
1.31607
1.31571
1.31535
1.31502
1.31469
1.31437
1.31406
1.31376
1.31347
1.31319
1.31292
1.31266
1.31241
1.31217
1.31193
1.3117
1.31148
1.31127
1.31107
1.31087
1.31068
1.3105
1.31033
1.31016
1.30999
1.30984
1.30969
1.30955
1.30942
1.30929
1.30917
1.30905
1.30896
1.30887
1.30874
1.30868
1.30867
1.30853
1.30838
1.30853
1.30858
1.30806
1.30805
1.30892
1.30828
1.30657
1.3082
1.30983
1.30509
1.30302
1.30836
1.30897
1.33653
1.33623
1.3361
1.33575
1.33503
1.3345
1.33405
1.33336
1.33272
1.33217
1.33154
1.33091
1.33034
1.32976
1.32917
1.32862
1.32809
1.32756
1.32706
1.32657
1.32611
1.32566
1.32523
1.32482
1.32442
1.32405
1.3237
1.32336
1.32304
1.32274
1.32245
1.32219
1.32194
1.3217
1.32148
1.32128
1.3211
1.32092
1.32077
1.32063
1.3205
1.32039
1.32029
1.32021
1.32015
1.32009
1.32005
1.32003
1.32002
1.32003
1.32005
1.32009
1.32014
1.32021
1.32029
1.32039
1.32051
1.32065
1.3208
1.32097
1.32116
1.32137
1.3216
1.32185
1.32213
1.32242
1.32274
1.32308
1.32345
1.32384
1.32425
1.3247
1.32517
1.32567
1.32619
1.32675
1.32733
1.32794
1.32858
1.32926
1.32996
1.33069
1.33144
1.33223
1.33304
1.33388
1.33475
1.33563
1.33654
1.33747
1.33842
1.33938
1.34036
1.34135
1.34235
1.34335
1.34436
1.34537
1.34638
1.34739
1.34838
1.34937
1.35035
1.35131
1.35225
1.35318
1.35408
1.35495
1.3558
1.35662
1.35741
1.35817
1.35889
1.35958
1.36024
1.36086
1.36145
1.362
1.36252
1.363
1.36346
1.36388
1.36427
1.36463
1.36497
1.36528
1.36557
1.36584
1.36608
1.3663
1.36651
1.3667
1.36688
1.36704
1.36719
1.36733
1.36745
1.36757
1.36768
1.36778
1.36788
1.36797
1.36805
1.36813
1.3682
1.36827
1.36833
1.3684
1.36845
1.36851
1.36856
1.36861
1.36866
1.3687
1.36874
1.36878
1.36882
1.36886
1.36889
1.36893
1.36896
1.36899
1.36901
1.36904
1.36906
1.36909
1.36911
1.36913
1.36915
1.36917
1.36918
1.3692
1.36921
1.36923
1.36924
1.36925
1.36926
1.36928
1.36928
1.3693
1.3693
1.36931
1.36932
1.36933
1.36934
1.36935
1.36936
1.36937
1.36938
1.36939
1.3694
1.36941
1.36942
1.36943
1.36944
1.36946
1.36947
1.36948
1.3695
1.36951
1.36953
1.36954
1.36956
1.36958
1.36959
1.36961
1.36963
1.36965
1.36967
1.36969
1.36971
1.36973
1.36974
1.36976
1.36978
1.3698
1.36982
1.36984
1.36985
1.36987
1.36988
1.3699
1.36991
1.36992
1.36993
1.36993
1.36994
1.36994
1.36993
1.36993
1.36992
1.36991
1.36989
1.36987
1.36985
1.36982
1.36978
1.36974
1.3697
1.36965
1.36959
1.36953
1.36946
1.36938
1.3693
1.36921
1.36912
1.36902
1.36891
1.36879
1.36867
1.36854
1.36841
1.36827
1.36812
1.36797
1.36782
1.36765
1.36749
1.36731
1.36714
1.36695
1.36677
1.36658
1.36638
1.36618
1.36597
1.36576
1.36555
1.36532
1.36509
1.36486
1.36461
1.36436
1.36409
1.36381
1.36352
1.36322
1.3629
1.36256
1.36221
1.36183
1.36143
1.36101
1.36056
1.36009
1.35959
1.35906
1.3585
1.35792
1.3573
1.35665
1.35597
1.35526
1.35453
1.35376
1.35297
1.35216
1.35133
1.35047
1.3496
1.34872
1.34782
1.34691
1.34599
1.34507
1.34414
1.34322
1.34229
1.34137
1.34045
1.33954
1.33864
1.33774
1.33686
1.33599
1.33513
1.33429
1.33346
1.33265
1.33186
1.33107
1.33031
1.32957
1.32884
1.32812
1.32743
1.32675
1.32609
1.32545
1.32482
1.32421
1.32361
1.32304
1.32247
1.32192
1.32139
1.32088
1.32037
1.31988
1.31941
1.31895
1.3185
1.31807
1.31765
1.31724
1.31684
1.31645
1.31608
1.31572
1.31537
1.31503
1.3147
1.31438
1.31407
1.31378
1.31349
1.31321
1.31294
1.31268
1.31242
1.31218
1.31194
1.31172
1.3115
1.31128
1.31108
1.31088
1.31069
1.31051
1.31034
1.31017
1.31001
1.30985
1.30971
1.30956
1.30943
1.30931
1.30919
1.30907
1.30897
1.3089
1.30881
1.30868
1.30866
1.30869
1.30851
1.30839
1.3087
1.30865
1.308
1.30846
1.30944
1.30789
1.30694
1.3103
1.30959
1.30465
1.30795
1.31045
1.33742
1.33702
1.33649
1.33586
1.33533
1.33478
1.33407
1.3334
1.33282
1.33217
1.33151
1.33091
1.33031
1.3297
1.32912
1.32857
1.32802
1.32749
1.32699
1.3265
1.32603
1.32558
1.32515
1.32474
1.32435
1.32398
1.32362
1.32329
1.32297
1.32267
1.32239
1.32212
1.32187
1.32164
1.32142
1.32122
1.32104
1.32087
1.32071
1.32057
1.32045
1.32034
1.32024
1.32016
1.32009
1.32004
1.32
1.31998
1.31997
1.31998
1.32
1.32003
1.32009
1.32015
1.32023
1.32033
1.32045
1.32058
1.32073
1.3209
1.32109
1.3213
1.32152
1.32177
1.32204
1.32233
1.32265
1.32298
1.32334
1.32373
1.32415
1.32458
1.32505
1.32555
1.32606
1.32662
1.3272
1.3278
1.32844
1.32911
1.32981
1.33054
1.33129
1.33208
1.33289
1.33373
1.33459
1.33548
1.33639
1.33732
1.33827
1.33924
1.34022
1.34121
1.34221
1.34322
1.34424
1.34526
1.34627
1.34729
1.34829
1.34929
1.35027
1.35124
1.3522
1.35313
1.35404
1.35492
1.35578
1.35661
1.35741
1.35817
1.3589
1.3596
1.36026
1.36088
1.36147
1.36203
1.36255
1.36303
1.36349
1.36391
1.3643
1.36466
1.365
1.36531
1.36559
1.36585
1.36609
1.36631
1.36652
1.36671
1.36688
1.36704
1.36718
1.36732
1.36744
1.36756
1.36767
1.36777
1.36786
1.36795
1.36802
1.3681
1.36817
1.36824
1.3683
1.36836
1.36842
1.36847
1.36852
1.36857
1.36862
1.36866
1.3687
1.36874
1.36878
1.36882
1.36885
1.36888
1.36891
1.36894
1.36897
1.369
1.36902
1.36904
1.36906
1.36908
1.3691
1.36912
1.36914
1.36915
1.36917
1.36918
1.36919
1.3692
1.36921
1.36923
1.36923
1.36925
1.36925
1.36926
1.36927
1.36928
1.36929
1.3693
1.36931
1.36932
1.36932
1.36933
1.36934
1.36935
1.36936
1.36938
1.36939
1.3694
1.36941
1.36943
1.36944
1.36946
1.36947
1.36949
1.3695
1.36952
1.36954
1.36955
1.36957
1.36959
1.36961
1.36963
1.36965
1.36967
1.36969
1.36971
1.36972
1.36974
1.36976
1.36978
1.36979
1.36981
1.36982
1.36984
1.36985
1.36986
1.36987
1.36987
1.36988
1.36988
1.36987
1.36987
1.36986
1.36985
1.36983
1.36981
1.36979
1.36976
1.36973
1.36969
1.36964
1.36959
1.36953
1.36947
1.3694
1.36933
1.36925
1.36916
1.36906
1.36896
1.36885
1.36874
1.36862
1.36849
1.36836
1.36822
1.36807
1.36792
1.36777
1.3676
1.36744
1.36726
1.36709
1.36691
1.36672
1.36653
1.36633
1.36613
1.36593
1.36572
1.3655
1.36528
1.36505
1.36481
1.36456
1.36431
1.36404
1.36376
1.36347
1.36317
1.36285
1.36251
1.36215
1.36177
1.36137
1.36094
1.36049
1.36002
1.35951
1.35898
1.35841
1.35782
1.35719
1.35653
1.35585
1.35513
1.35439
1.35362
1.35282
1.35201
1.35117
1.35031
1.34943
1.34854
1.34764
1.34673
1.34581
1.34489
1.34396
1.34303
1.34211
1.34119
1.34027
1.33936
1.33846
1.33757
1.3367
1.33583
1.33498
1.33414
1.33332
1.33251
1.33172
1.33095
1.33019
1.32945
1.32873
1.32802
1.32734
1.32667
1.32601
1.32538
1.32476
1.32415
1.32357
1.32299
1.32244
1.32189
1.32137
1.32086
1.32036
1.31987
1.3194
1.31895
1.3185
1.31807
1.31765
1.31725
1.31685
1.31647
1.3161
1.31574
1.31539
1.31505
1.31473
1.31441
1.3141
1.3138
1.31352
1.31324
1.31297
1.31271
1.31246
1.31221
1.31198
1.31175
1.31153
1.31132
1.31112
1.31092
1.31073
1.31055
1.31038
1.31021
1.31006
1.3099
1.30976
1.30962
1.3095
1.30937
1.30926
1.30917
1.30906
1.30896
1.30894
1.30888
1.30874
1.30876
1.30891
1.30872
1.30851
1.30907
1.30926
1.30829
1.30874
1.31055
1.30915
1.30744
1.31072
1.31251
1.30949
1.30914
1.33846
1.33767
1.33695
1.33623
1.33562
1.33489
1.33413
1.3335
1.33284
1.33212
1.33148
1.33086
1.33022
1.32961
1.32903
1.32846
1.32791
1.32738
1.32687
1.32638
1.32591
1.32546
1.32503
1.32463
1.32424
1.32387
1.32351
1.32318
1.32287
1.32257
1.32229
1.32203
1.32178
1.32155
1.32134
1.32114
1.32096
1.32079
1.32064
1.3205
1.32038
1.32027
1.32017
1.32009
1.32003
1.31997
1.31994
1.31991
1.3199
1.31991
1.31993
1.31996
1.32001
1.32008
1.32016
1.32026
1.32037
1.3205
1.32065
1.32081
1.321
1.3212
1.32143
1.32167
1.32193
1.32222
1.32253
1.32286
1.32322
1.3236
1.32401
1.32444
1.32491
1.32539
1.32591
1.32646
1.32703
1.32763
1.32827
1.32894
1.32963
1.33035
1.33111
1.33189
1.3327
1.33354
1.3344
1.33529
1.3362
1.33714
1.33809
1.33906
1.34004
1.34104
1.34205
1.34307
1.34409
1.34512
1.34614
1.34716
1.34818
1.34918
1.35018
1.35116
1.35212
1.35307
1.35399
1.35488
1.35575
1.35659
1.3574
1.35817
1.35891
1.35961
1.36028
1.36091
1.3615
1.36206
1.36258
1.36307
1.36352
1.36394
1.36433
1.36469
1.36502
1.36533
1.36561
1.36587
1.36611
1.36633
1.36653
1.36671
1.36688
1.36703
1.36718
1.36731
1.36743
1.36754
1.36765
1.36774
1.36783
1.36792
1.368
1.36807
1.36814
1.3682
1.36826
1.36832
1.36838
1.36843
1.36848
1.36853
1.36857
1.36862
1.36866
1.3687
1.36873
1.36877
1.3688
1.36883
1.36886
1.36889
1.36892
1.36894
1.36897
1.36899
1.36901
1.36903
1.36905
1.36907
1.36908
1.3691
1.36911
1.36912
1.36913
1.36915
1.36916
1.36917
1.36918
1.36919
1.36919
1.3692
1.36921
1.36922
1.36923
1.36924
1.36924
1.36925
1.36926
1.36927
1.36928
1.36929
1.3693
1.36931
1.36932
1.36934
1.36935
1.36936
1.36938
1.36939
1.36941
1.36942
1.36944
1.36945
1.36947
1.36949
1.36951
1.36952
1.36954
1.36956
1.36958
1.3696
1.36962
1.36964
1.36966
1.36967
1.36969
1.36971
1.36972
1.36974
1.36975
1.36977
1.36978
1.36979
1.3698
1.3698
1.36981
1.36981
1.36981
1.3698
1.36979
1.36978
1.36977
1.36975
1.36972
1.3697
1.36966
1.36962
1.36958
1.36953
1.36947
1.36941
1.36934
1.36927
1.36919
1.3691
1.369
1.3689
1.3688
1.36868
1.36856
1.36843
1.3683
1.36816
1.36802
1.36787
1.36771
1.36755
1.36738
1.36721
1.36704
1.36686
1.36667
1.36648
1.36629
1.36609
1.36588
1.36567
1.36546
1.36523
1.36501
1.36477
1.36452
1.36427
1.364
1.36372
1.36343
1.36312
1.3628
1.36246
1.3621
1.36171
1.36131
1.36088
1.36042
1.35993
1.35942
1.35888
1.3583
1.3577
1.35706
1.35639
1.3557
1.35497
1.35422
1.35344
1.35263
1.35181
1.35096
1.35009
1.34921
1.34831
1.34741
1.34649
1.34557
1.34464
1.34372
1.34279
1.34186
1.34094
1.34003
1.33912
1.33822
1.33734
1.33646
1.3356
1.33476
1.33392
1.33311
1.33231
1.33153
1.33076
1.33001
1.32928
1.32857
1.32788
1.3272
1.32654
1.3259
1.32527
1.32466
1.32406
1.32348
1.32292
1.32237
1.32184
1.32132
1.32082
1.32033
1.31985
1.31939
1.31894
1.3185
1.31808
1.31766
1.31726
1.31687
1.31649
1.31613
1.31577
1.31543
1.31509
1.31477
1.31445
1.31415
1.31385
1.31357
1.31329
1.31303
1.31277
1.31252
1.31228
1.31204
1.31182
1.3116
1.31139
1.31119
1.311
1.31081
1.31064
1.31047
1.3103
1.31015
1.31
1.30987
1.30973
1.30962
1.30951
1.3094
1.30931
1.30925
1.30916
1.30909
1.30913
1.3091
1.30898
1.3091
1.30934
1.30912
1.30907
1.30988
1.30995
1.30911
1.31032
1.31179
1.31038
1.31059
1.3131
1.31335
1.31399
1.33948
1.33825
1.33745
1.33665
1.33579
1.33498
1.33427
1.33354
1.33277
1.33208
1.33142
1.33074
1.3301
1.32949
1.32889
1.32831
1.32776
1.32723
1.32671
1.32623
1.32576
1.32531
1.32488
1.32448
1.32409
1.32372
1.32338
1.32305
1.32274
1.32244
1.32217
1.32191
1.32167
1.32144
1.32123
1.32104
1.32086
1.32069
1.32054
1.32041
1.32028
1.32018
1.32008
1.32001
1.31994
1.31989
1.31985
1.31983
1.31982
1.31982
1.31984
1.31988
1.31993
1.31999
1.32007
1.32016
1.32027
1.3204
1.32055
1.32071
1.32089
1.32109
1.32131
1.32154
1.32181
1.32209
1.32239
1.32272
1.32307
1.32345
1.32385
1.32428
1.32473
1.32521
1.32573
1.32627
1.32683
1.32744
1.32807
1.32872
1.32942
1.33014
1.33089
1.33167
1.33248
1.33331
1.33418
1.33507
1.33598
1.33692
1.33787
1.33885
1.33984
1.34084
1.34186
1.34288
1.34391
1.34495
1.34598
1.34701
1.34804
1.34906
1.35006
1.35106
1.35203
1.35299
1.35392
1.35483
1.35571
1.35656
1.35738
1.35817
1.35891
1.35963
1.3603
1.36094
1.36154
1.3621
1.36262
1.36311
1.36356
1.36398
1.36437
1.36473
1.36506
1.36536
1.36564
1.36589
1.36612
1.36634
1.36654
1.36671
1.36688
1.36703
1.36717
1.3673
1.36741
1.36752
1.36762
1.36772
1.3678
1.36789
1.36796
1.36803
1.3681
1.36816
1.36822
1.36828
1.36833
1.36838
1.36843
1.36848
1.36852
1.36856
1.3686
1.36864
1.36868
1.36871
1.36874
1.36877
1.3688
1.36883
1.36886
1.36888
1.3689
1.36893
1.36895
1.36897
1.36898
1.369
1.36902
1.36903
1.36905
1.36906
1.36907
1.36908
1.36909
1.3691
1.36911
1.36912
1.36913
1.36914
1.36914
1.36915
1.36916
1.36917
1.36918
1.36919
1.36919
1.3692
1.36921
1.36922
1.36923
1.36924
1.36925
1.36927
1.36928
1.36929
1.3693
1.36932
1.36933
1.36935
1.36936
1.36938
1.3694
1.36942
1.36943
1.36945
1.36947
1.36949
1.36951
1.36952
1.36954
1.36956
1.36958
1.3696
1.36962
1.36963
1.36965
1.36966
1.36968
1.36969
1.3697
1.36971
1.36972
1.36973
1.36973
1.36973
1.36973
1.36973
1.36972
1.36971
1.36969
1.36967
1.36965
1.36962
1.36959
1.36955
1.36951
1.36946
1.3694
1.36934
1.36927
1.3692
1.36912
1.36903
1.36894
1.36884
1.36873
1.36862
1.3685
1.36837
1.36824
1.3681
1.36796
1.36781
1.36765
1.3675
1.36733
1.36716
1.36699
1.36681
1.36662
1.36644
1.36624
1.36604
1.36584
1.36563
1.36542
1.3652
1.36497
1.36473
1.36448
1.36423
1.36396
1.36368
1.36339
1.36308
1.36275
1.36241
1.36204
1.36165
1.36124
1.3608
1.36034
1.35984
1.35932
1.35876
1.35818
1.35756
1.35691
1.35623
1.35552
1.35478
1.35401
1.35322
1.3524
1.35156
1.3507
1.34983
1.34894
1.34804
1.34712
1.3462
1.34528
1.34435
1.34342
1.34249
1.34156
1.34064
1.33973
1.33882
1.33792
1.33704
1.33617
1.33531
1.33447
1.33365
1.33284
1.33205
1.33127
1.33051
1.32978
1.32906
1.32836
1.32767
1.32701
1.32636
1.32573
1.32511
1.32451
1.32393
1.32337
1.32282
1.32228
1.32176
1.32126
1.32076
1.32028
1.31982
1.31936
1.31892
1.31849
1.31808
1.31767
1.31728
1.3169
1.31652
1.31616
1.31581
1.31548
1.31515
1.31483
1.31452
1.31422
1.31393
1.31365
1.31337
1.31311
1.31286
1.31261
1.31237
1.31214
1.31192
1.31171
1.3115
1.31131
1.31112
1.31094
1.31077
1.3106
1.31045
1.3103
1.31016
1.31003
1.30991
1.3098
1.30971
1.30962
1.30953
1.30949
1.30948
1.30941
1.30937
1.3095
1.30954
1.30941
1.30967
1.31011
1.30986
1.30985
1.31109
1.31133
1.31044
1.31187
1.31397
1.31339
1.31338
1.31617
1.31819
1.3403
1.33884
1.33788
1.3369
1.33594
1.33511
1.3343
1.33347
1.3327
1.332
1.33128
1.33058
1.32994
1.32931
1.3287
1.32812
1.32757
1.32703
1.32652
1.32603
1.32557
1.32512
1.3247
1.3243
1.32392
1.32355
1.32321
1.32289
1.32258
1.32229
1.32202
1.32177
1.32153
1.32131
1.3211
1.32091
1.32074
1.32058
1.32043
1.3203
1.32018
1.32007
1.31998
1.3199
1.31984
1.31979
1.31975
1.31973
1.31972
1.31973
1.31974
1.31978
1.31982
1.31989
1.31996
1.32005
1.32016
1.32029
1.32043
1.32058
1.32076
1.32096
1.32117
1.3214
1.32166
1.32193
1.32223
1.32256
1.3229
1.32327
1.32367
1.32409
1.32453
1.32501
1.32552
1.32605
1.32661
1.32721
1.32783
1.32848
1.32917
1.32989
1.33063
1.33141
1.33222
1.33306
1.33392
1.33481
1.33572
1.33666
1.33762
1.3386
1.3396
1.3406
1.34163
1.34266
1.3437
1.34474
1.34579
1.34683
1.34787
1.3489
1.34992
1.35093
1.35192
1.35289
1.35384
1.35476
1.35566
1.35653
1.35736
1.35815
1.35891
1.35964
1.36032
1.36096
1.36157
1.36213
1.36266
1.36315
1.3636
1.36402
1.36441
1.36477
1.36509
1.36539
1.36566
1.36592
1.36614
1.36635
1.36654
1.36672
1.36687
1.36702
1.36716
1.36728
1.36739
1.3675
1.3676
1.36769
1.36777
1.36785
1.36792
1.36799
1.36806
1.36812
1.36817
1.36823
1.36828
1.36833
1.36838
1.36842
1.36846
1.3685
1.36854
1.36858
1.36861
1.36865
1.36868
1.36871
1.36874
1.36877
1.36879
1.36881
1.36884
1.36886
1.36888
1.3689
1.36891
1.36893
1.36895
1.36896
1.36897
1.36899
1.369
1.36901
1.36902
1.36903
1.36904
1.36905
1.36905
1.36906
1.36907
1.36908
1.36908
1.36909
1.3691
1.36911
1.36912
1.36913
1.36913
1.36914
1.36915
1.36916
1.36917
1.36919
1.3692
1.36921
1.36922
1.36924
1.36925
1.36927
1.36928
1.3693
1.36931
1.36933
1.36935
1.36937
1.36939
1.3694
1.36942
1.36944
1.36946
1.36948
1.3695
1.36952
1.36953
1.36955
1.36957
1.36958
1.3696
1.36961
1.36962
1.36963
1.36964
1.36965
1.36965
1.36965
1.36965
1.36965
1.36964
1.36963
1.36961
1.36959
1.36957
1.36954
1.36951
1.36947
1.36943
1.36938
1.36932
1.36926
1.3692
1.36912
1.36904
1.36896
1.36886
1.36876
1.36866
1.36855
1.36843
1.3683
1.36817
1.36804
1.36789
1.36775
1.36759
1.36743
1.36727
1.3671
1.36693
1.36675
1.36657
1.36639
1.3662
1.366
1.3658
1.36559
1.36538
1.36516
1.36493
1.3647
1.36445
1.3642
1.36393
1.36365
1.36336
1.36304
1.36271
1.36236
1.36199
1.3616
1.36118
1.36073
1.36025
1.35975
1.35921
1.35864
1.35804
1.3574
1.35674
1.35604
1.35531
1.35456
1.35378
1.35297
1.35213
1.35128
1.35041
1.34952
1.34862
1.34771
1.34679
1.34586
1.34493
1.344
1.34307
1.34213
1.34121
1.34029
1.33937
1.33847
1.33757
1.33669
1.33583
1.33497
1.33414
1.33332
1.33252
1.33173
1.33097
1.33022
1.32949
1.32879
1.3281
1.32742
1.32678
1.32614
1.32552
1.32492
1.32434
1.32377
1.32322
1.32268
1.32216
1.32165
1.32116
1.32068
1.32022
1.31976
1.31932
1.31889
1.31848
1.31807
1.31768
1.31729
1.31692
1.31656
1.31621
1.31587
1.31554
1.31522
1.3149
1.3146
1.31431
1.31402
1.31375
1.31348
1.31322
1.31297
1.31273
1.3125
1.31228
1.31206
1.31186
1.31166
1.31146
1.31128
1.31111
1.31094
1.31079
1.31064
1.3105
1.31037
1.31025
1.31015
1.31005
1.30996
1.30991
1.30986
1.3098
1.3098
1.30985
1.30981
1.30985
1.31009
1.31018
1.31011
1.31057
1.31112
1.31091
1.31127
1.31265
1.31292
1.31282
1.31437
1.31591
1.31672
1.31802
1.31959
1.34089
1.33928
1.33817
1.33705
1.33606
1.33514
1.33421
1.33338
1.3326
1.33182
1.33108
1.33039
1.32973
1.32908
1.32847
1.32789
1.32733
1.32679
1.32629
1.3258
1.32534
1.3249
1.32448
1.32409
1.32371
1.32336
1.32302
1.3227
1.3224
1.32212
1.32186
1.32161
1.32138
1.32116
1.32096
1.32077
1.3206
1.32044
1.3203
1.32017
1.32006
1.31995
1.31987
1.31979
1.31973
1.31968
1.31964
1.31962
1.31961
1.31961
1.31963
1.31966
1.31971
1.31977
1.31984
1.31993
1.32004
1.32016
1.32029
1.32045
1.32062
1.32081
1.32102
1.32125
1.32149
1.32176
1.32206
1.32237
1.32271
1.32307
1.32346
1.32387
1.32431
1.32478
1.32527
1.3258
1.32636
1.32694
1.32756
1.32822
1.32889
1.3296
1.33035
1.33112
1.33193
1.33276
1.33362
1.33451
1.33543
1.33637
1.33733
1.33831
1.33931
1.34033
1.34136
1.3424
1.34345
1.3445
1.34556
1.34661
1.34767
1.34871
1.34975
1.35077
1.35178
1.35276
1.35373
1.35467
1.35558
1.35647
1.35732
1.35813
1.3589
1.35964
1.36033
1.36098
1.36159
1.36217
1.3627
1.36319
1.36364
1.36406
1.36445
1.3648
1.36512
1.36542
1.36568
1.36593
1.36616
1.36636
1.36654
1.36672
1.36687
1.36701
1.36714
1.36726
1.36737
1.36747
1.36757
1.36765
1.36773
1.36781
1.36788
1.36794
1.36801
1.36807
1.36812
1.36817
1.36822
1.36827
1.36831
1.36836
1.3684
1.36844
1.36848
1.36851
1.36854
1.36858
1.36861
1.36864
1.36866
1.36869
1.36872
1.36874
1.36876
1.36878
1.3688
1.36882
1.36884
1.36885
1.36887
1.36888
1.3689
1.36891
1.36892
1.36893