# vtk DataFile Version 2.0
LBE two cylinders
ASCII
DATASET STRUCTURED_POINTS
DIMENSIONS 400 100 1
ASPECT_RATIO 1 1 1
ORIGIN 0 0 0
POINT_DATA 40000
SCALARS rho double 1
LOOKUP_TABLE default
1.33866
1.33595
1.33622
1.33623
1.3353
1.33477
1.33443
1.33375
1.33311
1.33256
1.33195
1.33132
1.33073
1.33014
1.32954
1.32897
1.32842
1.32788
1.32735
1.32685
1.32636
1.32589
1.32545
1.32502
1.32461
1.32422
1.32385
1.3235
1.32316
1.32285
1.32256
1.32228
1.32202
1.32178
1.32156
1.32135
1.32117
1.32099
1.32084
1.3207
1.32058
1.32047
1.32038
1.32031
1.32025
1.32021
1.32018
1.32017
1.32018
1.3202
1.32023
1.32029
1.32036
1.32045
1.32056
1.32068
1.32082
1.32098
1.32116
1.32136
1.32158
1.32182
1.32209
1.32237
1.32268
1.32301
1.32336
1.32374
1.32414
1.32457
1.32503
1.32551
1.32602
1.32655
1.32712
1.32771
1.32832
1.32897
1.32964
1.33035
1.33107
1.33183
1.33261
1.33342
1.33425
1.3351
1.33597
1.33687
1.33778
1.33871
1.33965
1.3406
1.34157
1.34254
1.34352
1.3445
1.34548
1.34645
1.34743
1.34839
1.34934
1.35028
1.3512
1.35211
1.35299
1.35385
1.35469
1.3555
1.35627
1.35702
1.35774
1.35842
1.35907
1.35969
1.36027
1.36081
1.36133
1.3618
1.36225
1.36266
1.36304
1.36339
1.36371
1.364
1.36427
1.36451
1.36473
1.36493
1.3651
1.36526
1.3654
1.36552
1.36563
1.36573
1.36581
1.36588
1.36594
1.366
1.36604
1.36608
1.36611
1.36614
1.36616
1.36617
1.36619
1.36619
1.3662
1.3662
1.36621
1.36621
1.3662
1.3662
1.3662
1.36619
1.36618
1.36618
1.36617
1.36616
1.36616
1.36615
1.36614
1.36614
1.36613
1.36612
1.36612
1.36611
1.3661
1.3661
1.36609
1.36609
1.36608
1.36608
1.36607
1.36607
1.36607
1.36606
1.36606
1.36606
1.36606
1.36606
1.36606
1.36606
1.36606
1.36606
1.36606
1.36607
1.36607
1.36608
1.36608
1.36609
1.36609
1.3661
1.36611
1.36612
1.36613
1.36614
1.36615
1.36616
1.36617
1.36619
1.3662
1.36622
1.36624
1.36625
1.36627
1.36629
1.36631
1.36634
1.36636
1.36638
1.36641
1.36643
1.36646
1.36649
1.36651
1.36654
1.36657
1.3666
1.36663
1.36666
1.36669
1.36672
1.36675
1.36678
1.36681
1.36684
1.36687
1.36689
1.36692
1.36694
1.36696
1.36698
1.367
1.36701
1.36702
1.36703
1.36703
1.36703
1.36702
1.36701
1.367
1.36698
1.36695
1.36692
1.36688
1.36684
1.36679
1.36673
1.36667
1.3666
1.36653
1.36645
1.36636
1.36627
1.36617
1.36607
1.36596
1.36585
1.36573
1.36561
1.36548
1.36535
1.36522
1.36508
1.36494
1.36479
1.36464
1.36449
1.36433
1.36416
1.36399
1.36382
1.36363
1.36344
1.36323
1.36302
1.36279
1.36255
1.36229
1.36202
1.36172
1.36141
1.36107
1.36071
1.36032
1.35991
1.35946
1.35899
1.35848
1.35795
1.35738
1.35678
1.35614
1.35548
1.35479
1.35406
1.35331
1.35253
1.35173
1.35091
1.35007
1.3492
1.34833
1.34744
1.34654
1.34563
1.34472
1.3438
1.34288
1.34196
1.34104
1.34013
1.33922
1.33833
1.33744
1.33655
1.33568
1.33483
1.33398
1.33315
1.33234
1.33153
1.33075
1.32998
1.32923
1.32849
1.32777
1.32707
1.32638
1.32571
1.32506
1.32442
1.3238
1.32319
1.32261
1.32203
1.32148
1.32094
1.32041
1.3199
1.31941
1.31892
1.31846
1.318
1.31756
1.31714
1.31672
1.31632
1.31593
1.31556
1.31519
1.31484
1.3145
1.31418
1.31386
1.31355
1.31326
1.31297
1.3127
1.31244
1.31218
1.31194
1.31171
1.31148
1.31127
1.31107
1.31087
1.31069
1.31051
1.31034
1.31018
1.31003
1.30989
1.30976
1.30964
1.30953
1.30943
1.30933
1.30925
1.30917
1.30911
1.30907
1.309
1.30897
1.309
1.30896
1.30886
1.30901
1.30918
1.30884
1.30871
1.30965
1.30954
1.30748
1.30844
1.31233
1.30772
1.29899
1.30952
1.31857
1.33679
1.33693
1.33644
1.33577
1.33546
1.33497
1.33436
1.33378
1.33322
1.3326
1.33198
1.33139
1.33078
1.33018
1.3296
1.32903
1.32847
1.32793
1.3274
1.32689
1.32641
1.32594
1.32549
1.32506
1.32465
1.32426
1.32388
1.32353
1.3232
1.32289
1.32259
1.32231
1.32206
1.32181
1.32159
1.32139
1.3212
1.32102
1.32087
1.32073
1.32061
1.3205
1.32041
1.32033
1.32028
1.32023
1.32021
1.32019
1.3202
1.32022
1.32026
1.32031
1.32038
1.32047
1.32058
1.3207
1.32084
1.321
1.32118
1.32138
1.3216
1.32184
1.3221
1.32238
1.32269
1.32302
1.32337
1.32375
1.32415
1.32458
1.32503
1.32551
1.32601
1.32655
1.32711
1.3277
1.32831
1.32896
1.32963
1.33033
1.33105
1.33181
1.33258
1.33339
1.33421
1.33506
1.33593
1.33682
1.33773
1.33866
1.3396
1.34055
1.34151
1.34248
1.34346
1.34444
1.34541
1.34639
1.34736
1.34832
1.34928
1.35021
1.35114
1.35204
1.35293
1.35379
1.35462
1.35543
1.35621
1.35696
1.35768
1.35837
1.35902
1.35964
1.36022
1.36077
1.36128
1.36176
1.36221
1.36262
1.36301
1.36336
1.36368
1.36398
1.36424
1.36449
1.36471
1.36491
1.36508
1.36524
1.36538
1.36551
1.36562
1.36572
1.3658
1.36587
1.36594
1.36599
1.36604
1.36607
1.36611
1.36613
1.36615
1.36617
1.36618
1.36619
1.3662
1.3662
1.3662
1.3662
1.3662
1.3662
1.36619
1.36619
1.36618
1.36618
1.36617
1.36616
1.36615
1.36615
1.36614
1.36613
1.36613
1.36612
1.36611
1.36611
1.3661
1.36609
1.36609
1.36608
1.36608
1.36607
1.36607
1.36606
1.36606
1.36606
1.36606
1.36606
1.36605
1.36605
1.36605
1.36605
1.36605
1.36606
1.36606
1.36606
1.36606
1.36607
1.36607
1.36608
1.36609
1.36609
1.3661
1.36611
1.36612
1.36613
1.36614
1.36615
1.36617
1.36618
1.36619
1.36621
1.36623
1.36624
1.36626
1.36628
1.3663
1.36632
1.36634
1.36637
1.36639
1.36642
1.36644
1.36647
1.3665
1.36652
1.36655
1.36658
1.36661
1.36664
1.36667
1.3667
1.36673
1.36676
1.36679
1.36682
1.36684
1.36687
1.36689
1.36692
1.36694
1.36695
1.36697
1.36698
1.36699
1.367
1.367
1.367
1.367
1.36698
1.36697
1.36695
1.36692
1.36689
1.36685
1.36681
1.36676
1.3667
1.36664
1.36657
1.3665
1.36642
1.36633
1.36624
1.36614
1.36604
1.36593
1.36581
1.3657
1.36557
1.36545
1.36531
1.36518
1.36504
1.3649
1.36475
1.3646
1.36444
1.36428
1.36411
1.36394
1.36376
1.36357
1.36337
1.36317
1.36295
1.36272
1.36248
1.36222
1.36194
1.36164
1.36133
1.36099
1.36063
1.36024
1.35982
1.35938
1.35891
1.3584
1.35787
1.3573
1.35671
1.35608
1.35542
1.35473
1.35401
1.35326
1.35249
1.35169
1.35087
1.35003
1.34917
1.3483
1.34742
1.34652
1.34562
1.34471
1.3438
1.34288
1.34197
1.34106
1.34015
1.33924
1.33835
1.33746
1.33658
1.33572
1.33486
1.33402
1.33319
1.33238
1.33158
1.33079
1.33003
1.32927
1.32854
1.32782
1.32712
1.32643
1.32576
1.32511
1.32447
1.32385
1.32324
1.32266
1.32208
1.32153
1.32098
1.32046
1.31994
1.31945
1.31896
1.3185
1.31804
1.3176
1.31717
1.31676
1.31635
1.31596
1.31559
1.31522
1.31487
1.31453
1.3142
1.31388
1.31357
1.31327
1.31299
1.31271
1.31245
1.31219
1.31195
1.31171
1.31149
1.31127
1.31106
1.31087
1.31068
1.3105
1.31033
1.31017
1.31002
1.30987
1.30974
1.30961
1.3095
1.30939
1.30929
1.3092
1.30912
1.30904
1.30898
1.30894
1.30888
1.30882
1.30885
1.30885
1.30873
1.30872
1.30898
1.3088
1.30831
1.30872
1.3094
1.30768
1.30619
1.30884
1.30829
1.29842
1.29295
1.33612
1.33711
1.33639
1.33568
1.33565
1.33508
1.33436
1.33387
1.33331
1.33263
1.33203
1.33144
1.33082
1.33021
1.32963
1.32906
1.32849
1.32795
1.32743
1.32692
1.32643
1.32596
1.32551
1.32508
1.32466
1.32427
1.3239
1.32355
1.32321
1.3229
1.3226
1.32233
1.32207
1.32183
1.3216
1.3214
1.32121
1.32103
1.32088
1.32074
1.32062
1.32051
1.32042
1.32034
1.32028
1.32024
1.32021
1.3202
1.32021
1.32023
1.32026
1.32032
1.32039
1.32047
1.32058
1.3207
1.32084
1.321
1.32118
1.32138
1.32159
1.32183
1.32209
1.32237
1.32268
1.323
1.32336
1.32373
1.32413
1.32455
1.325
1.32548
1.32599
1.32652
1.32707
1.32766
1.32827
1.32891
1.32958
1.33028
1.331
1.33175
1.33253
1.33333
1.33415
1.335
1.33587
1.33676
1.33767
1.33859
1.33953
1.34048
1.34144
1.34241
1.34339
1.34437
1.34535
1.34632
1.3473
1.34826
1.34921
1.35015
1.35108
1.35199
1.35287
1.35374
1.35458
1.35539
1.35617
1.35693
1.35765
1.35834
1.35899
1.35961
1.3602
1.36075
1.36127
1.36175
1.3622
1.36261
1.363
1.36335
1.36368
1.36397
1.36424
1.36449
1.36471
1.36491
1.36509
1.36524
1.36538
1.36551
1.36562
1.36572
1.3658
1.36587
1.36594
1.36599
1.36604
1.36607
1.36611
1.36613
1.36615
1.36617
1.36618
1.36619
1.3662
1.3662
1.3662
1.3662
1.3662
1.36619
1.36619
1.36619
1.36618
1.36617
1.36617
1.36616
1.36615
1.36614
1.36614
1.36613
1.36612
1.36611
1.36611
1.3661
1.36609
1.36609
1.36608
1.36608
1.36607
1.36607
1.36606
1.36606
1.36606
1.36605
1.36605
1.36605
1.36605
1.36605
1.36605
1.36605
1.36605
1.36605
1.36605
1.36605
1.36606
1.36606
1.36607
1.36607
1.36608
1.36608
1.36609
1.3661
1.36611
1.36612
1.36613
1.36614
1.36615
1.36617
1.36618
1.3662
1.36621
1.36623
1.36625
1.36627
1.36629
1.36631
1.36633
1.36635
1.36638
1.3664
1.36643
1.36645
1.36648
1.36651
1.36653
1.36656
1.36659
1.36662
1.36665
1.36668
1.36671
1.36674
1.36677
1.36679
1.36682
1.36685
1.36687
1.36689
1.36691
1.36693
1.36695
1.36696
1.36697
1.36698
1.36698
1.36698
1.36697
1.36696
1.36694
1.36692
1.3669
1.36686
1.36683
1.36678
1.36673
1.36668
1.36661
1.36655
1.36647
1.36639
1.3663
1.36621
1.36611
1.36601
1.3659
1.36578
1.36567
1.36554
1.36541
1.36528
1.36514
1.365
1.36486
1.36471
1.36455
1.3644
1.36423
1.36406
1.36389
1.36371
1.36352
1.36332
1.36311
1.36289
1.36266
1.36242
1.36216
1.36188
1.36158
1.36126
1.36093
1.36056
1.36017
1.35976
1.35932
1.35884
1.35834
1.35781
1.35724
1.35665
1.35602
1.35536
1.35467
1.35396
1.35321
1.35244
1.35165
1.35083
1.34999
1.34914
1.34827
1.34739
1.3465
1.3456
1.34469
1.34378
1.34287
1.34196
1.34105
1.34014
1.33924
1.33835
1.33746
1.33659
1.33573
1.33487
1.33403
1.33321
1.3324
1.3316
1.33082
1.33005
1.3293
1.32856
1.32784
1.32714
1.32646
1.32579
1.32513
1.3245
1.32388
1.32327
1.32269
1.32211
1.32155
1.32101
1.32049
1.31997
1.31947
1.31899
1.31852
1.31807
1.31762
1.31719
1.31678
1.31637
1.31598
1.31561
1.31524
1.31489
1.31454
1.31421
1.31389
1.31358
1.31328
1.313
1.31272
1.31245
1.3122
1.31195
1.31171
1.31149
1.31127
1.31106
1.31086
1.31067
1.31049
1.31032
1.31015
1.31
1.30985
1.30971
1.30958
1.30946
1.30935
1.30924
1.30915
1.30907
1.30899
1.3089
1.30886
1.30883
1.30872
1.30868
1.30878
1.3087
1.3084
1.30864
1.30903
1.30816
1.30757
1.30942
1.30908
1.30429
1.30627
1.3131
1.30074
1.28861
1.33655
1.33662
1.33649
1.33623
1.3357
1.33504
1.33456
1.33397
1.3333
1.33269
1.33209
1.33145
1.33083
1.33024
1.32964
1.32906
1.3285
1.32795
1.32742
1.32691
1.32642
1.32595
1.3255
1.32507
1.32465
1.32426
1.32389
1.32354
1.3232
1.32289
1.32259
1.32232
1.32206
1.32182
1.32159
1.32139
1.3212
1.32103
1.32087
1.32073
1.32061
1.3205
1.32041
1.32033
1.32027
1.32023
1.3202
1.32019
1.32019
1.32021
1.32025
1.3203
1.32037
1.32046
1.32056
1.32068
1.32082
1.32098
1.32115
1.32135
1.32157
1.3218
1.32206
1.32234
1.32264
1.32297
1.32331
1.32368
1.32408
1.3245
1.32495
1.32542
1.32592
1.32645
1.32701
1.32759
1.3282
1.32884
1.3295
1.3302
1.33092
1.33167
1.33244
1.33324
1.33406
1.33491
1.33578
1.33667
1.33757
1.3385
1.33944
1.34039
1.34135
1.34233
1.3433
1.34429
1.34527
1.34625
1.34722
1.34819
1.34915
1.35009
1.35102
1.35194
1.35283
1.3537
1.35454
1.35536
1.35615
1.35691
1.35763
1.35833
1.35899
1.35961
1.3602
1.36076
1.36128
1.36176
1.36221
1.36263
1.36301
1.36337
1.36369
1.36399
1.36426
1.3645
1.36473
1.36492
1.3651
1.36526
1.3654
1.36552
1.36563
1.36573
1.36581
1.36588
1.36594
1.366
1.36604
1.36608
1.36611
1.36613
1.36616
1.36617
1.36618
1.36619
1.3662
1.3662
1.3662
1.3662
1.3662
1.36619
1.36619
1.36618
1.36618
1.36617
1.36616
1.36616
1.36615
1.36614
1.36613
1.36613
1.36612
1.36611
1.3661
1.3661
1.36609
1.36608
1.36608
1.36607
1.36607
1.36606
1.36606
1.36605
1.36605
1.36605
1.36605
1.36604
1.36604
1.36604
1.36604
1.36604
1.36604
1.36604
1.36604
1.36605
1.36605
1.36605
1.36606
1.36606
1.36607
1.36608
1.36608
1.36609
1.3661
1.36611
1.36612
1.36613
1.36614
1.36616
1.36617
1.36619
1.3662
1.36622
1.36624
1.36625
1.36627
1.36629
1.36632
1.36634
1.36636
1.36638
1.36641
1.36644
1.36646
1.36649
1.36652
1.36654
1.36657
1.3666
1.36663
1.36666
1.36669
1.36672
1.36674
1.36677
1.3668
1.36682
1.36685
1.36687
1.36689
1.36691
1.36692
1.36694
1.36695
1.36695
1.36695
1.36695
1.36695
1.36694
1.36692
1.3669
1.36687
1.36684
1.3668
1.36676
1.36671
1.36665
1.36659
1.36652
1.36645
1.36637
1.36628
1.36619
1.36609
1.36598
1.36587
1.36576
1.36564
1.36551
1.36538
1.36525
1.36511
1.36497
1.36482
1.36467
1.36452
1.36436
1.36419
1.36402
1.36385
1.36367
1.36347
1.36327
1.36307
1.36285
1.36261
1.36237
1.36211
1.36183
1.36153
1.36121
1.36087
1.36051
1.36012
1.3597
1.35926
1.35879
1.35828
1.35775
1.35718
1.35658
1.35596
1.3553
1.35461
1.35389
1.35314
1.35237
1.35158
1.35076
1.34993
1.34908
1.34821
1.34733
1.34644
1.34554
1.34463
1.34372
1.34281
1.34191
1.341
1.3401
1.3392
1.33831
1.33743
1.33655
1.33569
1.33484
1.33401
1.33318
1.33237
1.33158
1.3308
1.33004
1.32929
1.32856
1.32784
1.32714
1.32646
1.32579
1.32514
1.3245
1.32389
1.32328
1.32269
1.32212
1.32157
1.32102
1.3205
1.31999
1.31949
1.31901
1.31854
1.31808
1.31764
1.31721
1.31679
1.31639
1.316
1.31562
1.31525
1.3149
1.31456
1.31422
1.3139
1.31359
1.31329
1.31301
1.31273
1.31246
1.3122
1.31195
1.31172
1.31149
1.31127
1.31106
1.31086
1.31067
1.31048
1.31031
1.31015
1.30999
1.30984
1.3097
1.30957
1.30944
1.30933
1.30923
1.30912
1.30903
1.30897
1.30889
1.30879
1.30876
1.30877
1.30866
1.30853
1.3087
1.30877
1.30827
1.30828
1.30916
1.30854
1.30685
1.30848
1.31013
1.3054
1.30334
1.3087
1.30934
1.33733
1.33703
1.33687
1.3365
1.33576
1.33521
1.33473
1.33401
1.33334
1.33276
1.33211
1.33145
1.33084
1.33023
1.32962
1.32904
1.32847
1.32792
1.32739
1.32687
1.32638
1.32591
1.32546
1.32502
1.32461
1.32422
1.32385
1.3235
1.32316
1.32285
1.32255
1.32228
1.32202
1.32178
1.32156
1.32135
1.32117
1.32099
1.32084
1.3207
1.32058
1.32047
1.32038
1.32031
1.32025
1.3202
1.32017
1.32016
1.32016
1.32018
1.32022
1.32027
1.32034
1.32042
1.32052
1.32064
1.32078
1.32094
1.32111
1.3213
1.32152
1.32175
1.322
1.32228
1.32258
1.3229
1.32324
1.32361
1.32401
1.32442
1.32487
1.32534
1.32583
1.32636
1.32691
1.32749
1.32809
1.32873
1.32939
1.33008
1.3308
1.33155
1.33232
1.33312
1.33394
1.33478
1.33565
1.33654
1.33745
1.33838
1.33932
1.34027
1.34124
1.34222
1.3432
1.34418
1.34517
1.34616
1.34714
1.34811
1.34908
1.35003
1.35097
1.35188
1.35278
1.35366
1.35451
1.35534
1.35613
1.3569
1.35763
1.35833
1.359
1.35963
1.36022
1.36078
1.3613
1.36179
1.36224
1.36266
1.36305
1.3634
1.36373
1.36403
1.36429
1.36454
1.36476
1.36495
1.36513
1.36528
1.36542
1.36555
1.36565
1.36575
1.36583
1.3659
1.36596
1.36601
1.36605
1.36609
1.36612
1.36614
1.36616
1.36618
1.36619
1.36619
1.3662
1.3662
1.3662
1.3662
1.3662
1.36619
1.36619
1.36618
1.36618
1.36617
1.36616
1.36615
1.36615
1.36614
1.36613
1.36612
1.36611
1.36611
1.3661
1.36609
1.36609
1.36608
1.36607
1.36607
1.36606
1.36606
1.36605
1.36605
1.36605
1.36604
1.36604
1.36604
1.36604
1.36603
1.36603
1.36603
1.36603
1.36604
1.36604
1.36604
1.36604
1.36605
1.36605
1.36605
1.36606
1.36607
1.36607
1.36608
1.36609
1.3661
1.36611
1.36612
1.36613
1.36614
1.36616
1.36617
1.36619
1.3662
1.36622
1.36624
1.36626
1.36628
1.3663
1.36632
1.36634
1.36637
1.36639
1.36642
1.36644
1.36647
1.3665
1.36652
1.36655
1.36658
1.36661
1.36664
1.36667
1.36669
1.36672
1.36675
1.36678
1.3668
1.36682
1.36685
1.36687
1.36688
1.3669
1.36691
1.36692
1.36693
1.36693
1.36693
1.36693
1.36692
1.3669
1.36688
1.36685
1.36682
1.36678
1.36674
1.36669
1.36663
1.36657
1.3665
1.36643
1.36635
1.36626
1.36616
1.36607
1.36596
1.36585
1.36573
1.36561
1.36549
1.36536
1.36522
1.36509
1.36494
1.3648
1.36464
1.36449
1.36433
1.36416
1.36399
1.36382
1.36363
1.36344
1.36324
1.36303
1.36281
1.36257
1.36233
1.36206
1.36178
1.36148
1.36116
1.36082
1.36046
1.36006
1.35965
1.3592
1.35872
1.35821
1.35767
1.3571
1.3565
1.35587
1.35521
1.35451
1.35379
1.35304
1.35227
1.35147
1.35065
1.34982
1.34896
1.34809
1.34721
1.34632
1.34542
1.34452
1.34361
1.3427
1.3418
1.34089
1.33999
1.3391
1.33821
1.33733
1.33646
1.3356
1.33476
1.33393
1.33311
1.3323
1.33151
1.33074
1.32998
1.32923
1.32851
1.3278
1.3271
1.32642
1.32576
1.32511
1.32448
1.32387
1.32327
1.32268
1.32211
1.32156
1.32102
1.3205
1.31999
1.31949
1.31901
1.31854
1.31809
1.31765
1.31722
1.31681
1.3164
1.31601
1.31564
1.31527
1.31492
1.31457
1.31424
1.31392
1.31361
1.31331
1.31302
1.31274
1.31248
1.31222
1.31197
1.31173
1.3115
1.31129
1.31108
1.31087
1.31068
1.3105
1.31033
1.31016
1.31
1.30986
1.30972
1.30959
1.30946
1.30935
1.30924
1.30915
1.30905
1.30897
1.30893
1.30886
1.30876
1.30876
1.30881
1.30865
1.30856
1.30889
1.30886
1.30823
1.3087
1.3097
1.30817
1.30722
1.3106
1.30991
1.30497
1.3083
1.31083
1.33825
1.33782
1.33727
1.33662
1.33607
1.33548
1.33475
1.33405
1.33344
1.33276
1.33207
1.33144
1.33081
1.33017
1.32956
1.32898
1.3284
1.32785
1.32731
1.3268
1.3263
1.32583
1.32538
1.32495
1.32454
1.32415
1.32378
1.32342
1.32309
1.32278
1.32249
1.32221
1.32196
1.32172
1.3215
1.3213
1.32111
1.32094
1.32079
1.32065
1.32053
1.32042
1.32033
1.32026
1.3202
1.32015
1.32013
1.32011
1.32012
1.32013
1.32017
1.32022
1.32028
1.32037
1.32047
1.32059
1.32072
1.32087
1.32104
1.32124
1.32145
1.32168
1.32193
1.3222
1.32249
1.32281
1.32315
1.32352
1.3239
1.32432
1.32476
1.32522
1.32571
1.32623
1.32678
1.32735
1.32796
1.32859
1.32925
1.32994
1.33065
1.33139
1.33216
1.33296
1.33378
1.33463
1.3355
1.33639
1.3373
1.33823
1.33917
1.34013
1.3411
1.34208
1.34307
1.34406
1.34505
1.34605
1.34703
1.34802
1.34899
1.34995
1.3509
1.35183
1.35274
1.35362
1.35448
1.35532
1.35612
1.3569
1.35764
1.35835
1.35902
1.35965
1.36025
1.36082
1.36134
1.36184
1.36229
1.36271
1.3631
1.36345
1.36378
1.36407
1.36434
1.36458
1.3648
1.36499
1.36517
1.36532
1.36546
1.36558
1.36568
1.36577
1.36585
1.36592
1.36598
1.36603
1.36607
1.3661
1.36613
1.36615
1.36617
1.36618
1.36619
1.3662
1.3662
1.3662
1.3662
1.3662
1.3662
1.36619
1.36619
1.36618
1.36617
1.36617
1.36616
1.36615
1.36614
1.36614
1.36613
1.36612
1.36611
1.3661
1.3661
1.36609
1.36608
1.36608
1.36607
1.36606
1.36606
1.36605
1.36605
1.36604
1.36604
1.36604
1.36603
1.36603
1.36603
1.36603
1.36603
1.36603
1.36603
1.36603
1.36603
1.36603
1.36603
1.36604
1.36604
1.36605
1.36605
1.36606
1.36606
1.36607
1.36608
1.36609
1.3661
1.36611
1.36612
1.36613
1.36615
1.36616
1.36618
1.36619
1.36621
1.36623
1.36624
1.36626
1.36628
1.36631
1.36633
1.36635
1.36637
1.3664
1.36642
1.36645
1.36648
1.3665
1.36653
1.36656
1.36659
1.36662
1.36665
1.36667
1.3667
1.36673
1.36675
1.36678
1.3668
1.36682
1.36684
1.36686
1.36688
1.36689
1.3669
1.36691
1.36691
1.36691
1.3669
1.36689
1.36688
1.36686
1.36683
1.3668
1.36676
1.36672
1.36667
1.36661
1.36655
1.36648
1.36641
1.36632
1.36624
1.36614
1.36604
1.36594
1.36583
1.36571
1.36559
1.36547
1.36534
1.3652
1.36506
1.36492
1.36477
1.36462
1.36447
1.3643
1.36414
1.36397
1.36379
1.36361
1.36342
1.36321
1.363
1.36278
1.36255
1.3623
1.36203
1.36175
1.36145
1.36112
1.36078
1.36041
1.36001
1.35958
1.35913
1.35865
1.35813
1.35758
1.35701
1.3564
1.35576
1.35509
1.35439
1.35366
1.3529
1.35212
1.35132
1.3505
1.34965
1.3488
1.34793
1.34704
1.34615
1.34525
1.34434
1.34344
1.34253
1.34162
1.34072
1.33982
1.33893
1.33804
1.33717
1.3363
1.33545
1.33461
1.33378
1.33297
1.33217
1.33139
1.33062
1.32987
1.32913
1.32841
1.3277
1.32702
1.32634
1.32569
1.32505
1.32442
1.32382
1.32322
1.32265
1.32208
1.32154
1.321
1.32048
1.31998
1.31949
1.31901
1.31855
1.3181
1.31766
1.31723
1.31682
1.31642
1.31603
1.31566
1.31529
1.31494
1.3146
1.31427
1.31395
1.31364
1.31335
1.31306
1.31278
1.31251
1.31226
1.31201
1.31177
1.31155
1.31133
1.31112
1.31092
1.31073
1.31055
1.31037
1.31021
1.31006
1.30991
1.30977
1.30964
1.30953
1.30942
1.30931
1.30922
1.30915
1.30907
1.30899
1.30899
1.30896
1.30884
1.30888
1.30906
1.30889
1.3087
1.30927
1.30949
1.30854
1.309
1.31082
1.30943
1.30774
1.31103
1.31284
1.30984
1.30951
1.3393
1.33849
1.33774
1.337
1.33636
1.3356
1.33481
1.33416
1.33346
1.33271
1.33204
1.33139
1.33072
1.33008
1.32947
1.32887
1.32829
1.32774
1.3272
1.32668
1.32619
1.32572
1.32527
1.32484
1.32443
1.32404
1.32367
1.32332
1.32299
1.32269
1.3224
1.32212
1.32187
1.32163
1.32142
1.32122
1.32103
1.32086
1.32071
1.32058
1.32046
1.32035
1.32026
1.32019
1.32013
1.32009
1.32006
1.32005
1.32005
1.32007
1.3201
1.32015
1.32021
1.3203
1.32039
1.32051
1.32064
1.32079
1.32096
1.32115
1.32135
1.32158
1.32183
1.32209
1.32238
1.3227
1.32303
1.32339
1.32377
1.32418
1.32462
1.32508
1.32557
1.32608
1.32662
1.32719
1.32779
1.32841
1.32907
1.32976
1.33047
1.33121
1.33198
1.33277
1.33359
1.33444
1.33531
1.3362
1.33711
1.33804
1.33899
1.33996
1.34093
1.34192
1.34291
1.34391
1.34491
1.34591
1.34691
1.3479
1.34889
1.34986
1.35081
1.35176
1.35268
1.35357
1.35445
1.35529
1.35611
1.35689
1.35765
1.35836
1.35904
1.35969
1.3603
1.36086
1.3614
1.36189
1.36235
1.36277
1.36316
1.36351
1.36384
1.36413
1.3644
1.36464
1.36485
1.36504
1.36521
1.36537
1.3655
1.36561
1.36572
1.3658
1.36588
1.36595
1.366
1.36605
1.36609
1.36612
1.36614
1.36616
1.36618
1.36619
1.3662
1.36621
1.36621
1.36621
1.36621
1.3662
1.3662
1.36619
1.36619
1.36618
1.36617
1.36617
1.36616
1.36615
1.36614
1.36613
1.36612
1.36612
1.36611
1.3661
1.36609
1.36608
1.36608
1.36607
1.36606
1.36606
1.36605
1.36605
1.36604
1.36604
1.36603
1.36603
1.36603
1.36603
1.36602
1.36602
1.36602
1.36602
1.36602
1.36602
1.36602
1.36602
1.36603
1.36603
1.36603
1.36604
1.36604
1.36605
1.36605
1.36606
1.36607
1.36608
1.36609
1.3661
1.36611
1.36612
1.36613
1.36615
1.36616
1.36618
1.36619
1.36621
1.36623
1.36625
1.36627
1.36629
1.36631
1.36633
1.36636
1.36638
1.36641
1.36643
1.36646
1.36649
1.36651
1.36654
1.36657
1.3666
1.36662
1.36665
1.36668
1.36671
1.36673
1.36676
1.36678
1.3668
1.36682
1.36684
1.36686
1.36687
1.36688
1.36689
1.36689
1.36689
1.36688
1.36687
1.36686
1.36684
1.36681
1.36678
1.36674
1.3667
1.36665
1.36659
1.36653
1.36646
1.36638
1.3663
1.36621
1.36612
1.36602
1.36592
1.36581
1.36569
1.36557
1.36544
1.36532
1.36518
1.36504
1.3649
1.36475
1.3646
1.36445
1.36429
1.36412
1.36395
1.36377
1.36359
1.3634
1.3632
1.36299
1.36276
1.36252
1.36227
1.36201
1.36172
1.36141
1.36108
1.36073
1.36035
1.35995
1.35952
1.35905
1.35856
1.35804
1.35748
1.35689
1.35627
1.35562
1.35494
1.35422
1.35348
1.35272
1.35193
1.35112
1.35029
1.34944
1.34858
1.3477
1.34681
1.34592
1.34501
1.34411
1.3432
1.34229
1.34139
1.34048
1.33959
1.3387
1.33781
1.33694
1.33608
1.33523
1.3344
1.33358
1.33277
1.33198
1.3312
1.33044
1.3297
1.32897
1.32826
1.32756
1.32689
1.32623
1.32558
1.32495
1.32433
1.32373
1.32315
1.32258
1.32203
1.32149
1.32096
1.32045
1.31996
1.31947
1.319
1.31854
1.3181
1.31767
1.31725
1.31684
1.31645
1.31606
1.31569
1.31533
1.31498
1.31464
1.31432
1.314
1.3137
1.3134
1.31312
1.31284
1.31258
1.31232
1.31208
1.31184
1.31162
1.3114
1.3112
1.311
1.31081
1.31063
1.31046
1.3103
1.31015
1.31001
1.30988
1.30976
1.30964
1.30954
1.30945
1.30936
1.3093
1.30926
1.30919
1.30915
1.3092
1.3092
1.3091
1.30924
1.30951
1.3093
1.30927
1.3101
1.31019
1.30936
1.31058
1.31207
1.31067
1.31088
1.31342
1.31368
1.31433
1.34034
1.33908
1.33825
1.33742
1.33653
1.3357
1.33495
1.33419
1.33339
1.33267
1.33198
1.33127
1.3306
1.32996
1.32933
1.32872
1.32814
1.32758
1.32704
1.32653
1.32603
1.32556
1.32511
1.32469
1.32428
1.3239
1.32353
1.32319
1.32287
1.32256
1.32227
1.32201
1.32176
1.32153
1.32131
1.32111
1.32093
1.32077
1.32062
1.32049
1.32037
1.32027
1.32018
1.32011
1.32005
1.32
1.31998
1.31996
1.31997
1.31998
1.32002
1.32006
1.32013
1.32021
1.3203
1.32041
1.32054
1.32069
1.32086
1.32104
1.32124
1.32147
1.32171
1.32197
1.32226
1.32256
1.32289
1.32324
1.32362
1.32402
1.32445
1.32491
1.32539
1.32589
1.32643
1.327
1.32759
1.32821
1.32886
1.32954
1.33025
1.33099
1.33175
1.33255
1.33337
1.33421
1.33508
1.33598
1.33689
1.33783
1.33878
1.33975
1.34073
1.34172
1.34272
1.34373
1.34474
1.34575
1.34676
1.34776
1.34876
1.34974
1.35071
1.35167
1.3526
1.35351
1.3544
1.35526
1.35609
1.35689
1.35765
1.35838
1.35907
1.35973
1.36034
1.36092
1.36145
1.36195
1.36241
1.36284
1.36323
1.36358
1.36391
1.3642
1.36446
1.3647
1.36491
1.3651
1.36526
1.36541
1.36554
1.36565
1.36575
1.36584
1.36591
1.36597
1.36603
1.36607
1.36611
1.36614
1.36616
1.36618
1.36619
1.3662
1.36621
1.36621
1.36621
1.36621
1.36621
1.36621
1.3662
1.3662
1.36619
1.36618
1.36617
1.36616
1.36616
1.36615
1.36614
1.36613
1.36612
1.36611
1.3661
1.3661
1.36609
1.36608
1.36607
1.36607
1.36606
1.36605
1.36605
1.36604
1.36604
1.36603
1.36603
1.36603
1.36602
1.36602
1.36602
1.36602
1.36601
1.36601
1.36601
1.36601
1.36602
1.36602
1.36602
1.36602
1.36602
1.36603
1.36603
1.36604
1.36605
1.36605
1.36606
1.36607
1.36608
1.36609
1.3661
1.36611
1.36612
1.36614
1.36615
1.36616
1.36618
1.3662
1.36622
1.36623
1.36625
1.36627
1.3663
1.36632
1.36634
1.36636
1.36639
1.36641
1.36644
1.36647
1.36649
1.36652
1.36655
1.36658
1.3666
1.36663
1.36666
1.36668
1.36671
1.36673
1.36676
1.36678
1.3668
1.36682
1.36683
1.36685
1.36686
1.36686
1.36686
1.36686
1.36686
1.36685
1.36683
1.36681
1.36679
1.36675
1.36672
1.36667
1.36662
1.36657
1.3665
1.36644
1.36636
1.36628
1.36619
1.3661
1.366
1.36589
1.36578
1.36567
1.36555
1.36542
1.3653
1.36516
1.36502
1.36488
1.36474
1.36459
1.36443
1.36428
1.36411
1.36394
1.36377
1.36358
1.36339
1.36319
1.36298
1.36275
1.36251
1.36226
1.36198
1.36169
1.36138
1.36105
1.36069
1.3603
1.35989
1.35945
1.35897
1.35847
1.35793
1.35736
1.35675
1.35612
1.35545
1.35476
1.35403
1.35328
1.3525
1.3517
1.35088
1.35004
1.34918
1.34831
1.34743
1.34653
1.34564
1.34473
1.34382
1.34291
1.342
1.34109
1.34019
1.33929
1.3384
1.33753
1.33666
1.3358
1.33496
1.33413
1.33331
1.33251
1.33173
1.33096
1.33021
1.32948
1.32876
1.32806
1.32738
1.32671
1.32606
1.32543
1.32481
1.32421
1.32362
1.32305
1.32249
1.32195
1.32142
1.32091
1.32041
1.31992
1.31945
1.31899
1.31854
1.3181
1.31768
1.31727
1.31687
1.31648
1.3161
1.31574
1.31538
1.31504
1.31471
1.31439
1.31407
1.31377
1.31348
1.3132
1.31293
1.31267
1.31242
1.31218
1.31195
1.31173
1.31152
1.31131
1.31112
1.31094
1.31076
1.3106
1.31044
1.3103
1.31016
1.31004
1.30993
1.30982
1.30973
1.30966
1.30959
1.30952
1.3095
1.30951
1.30946
1.30945
1.3096
1.30966
1.30955
1.30982
1.31029
1.31005
1.31006
1.31132
1.31157
1.31069
1.31213
1.31424
1.31367
1.31367
1.31647
1.3185
1.34118
1.33969
1.33869
1.33768
1.33669
1.33582
1.33498
1.33412
1.33332
1.33259
1.33184
1.33111
1.33044
1.32978
1.32913
1.32853
1.32795
1.32738
1.32684
1.32633
1.32584
1.32537
1.32493
1.32451
1.32411
1.32373
1.32337
1.32303
1.32271
1.32241
1.32213
1.32187
1.32162
1.3214
1.32119
1.32099
1.32082
1.32065
1.32051
1.32038
1.32026
1.32016
1.32008
1.32001
1.31995
1.31991
1.31988
1.31987
1.31987
1.31989
1.31992
1.31996
1.32003
1.3201
1.3202
1.32031
1.32043
1.32058
1.32074
1.32092
1.32112
1.32133
1.32157
1.32183
1.32211
1.32241
1.32273
1.32308
1.32345
1.32384
1.32427
1.32471
1.32518
1.32569
1.32622
1.32677
1.32736
1.32798
1.32862
1.3293
1.33
1.33073
1.3315
1.33229
1.33311
1.33395
1.33482
1.33572
1.33663
1.33757
1.33853
1.3395
1.34049
1.34149
1.3425
1.34352
1.34453
1.34556
1.34658
1.34759
1.3486
1.3496
1.35059
1.35156
1.35251
1.35344
1.35434
1.35521
1.35606
1.35688
1.35765
1.35839
1.3591
1.35976
1.36039
1.36097
1.36152
1.36202
1.36248
1.36291
1.3633
1.36366
1.36398
1.36427
1.36453
1.36477
1.36497
1.36516
1.36532
1.36547
1.36559
1.3657
1.36579
1.36588
1.36595
1.366
1.36605
1.3661
1.36613
1.36615
1.36618
1.36619
1.3662
1.36621
1.36622
1.36622
1.36622
1.36622
1.36621
1.36621
1.3662
1.3662
1.36619
1.36618
1.36617
1.36616
1.36615
1.36615
1.36614
1.36613
1.36612
1.36611
1.3661
1.36609
1.36609
1.36608
1.36607
1.36606
1.36606
1.36605
1.36604
1.36604
1.36603
1.36603
1.36602
1.36602
1.36602
1.36601
1.36601
1.36601
1.36601
1.36601
1.36601
1.36601
1.36601
1.36601
1.36601
1.36601
1.36602
1.36602
1.36603
1.36603
1.36604
1.36604
1.36605
1.36606
1.36607
1.36608
1.36609
1.3661
1.36611
1.36612
1.36614
1.36615
1.36617
1.36618
1.3662
1.36622
1.36624
1.36626
1.36628
1.3663
1.36632
1.36635
1.36637
1.3664
1.36642
1.36645
1.36647
1.3665
1.36653
1.36655
1.36658
1.36661
1.36664
1.36666
1.36669
1.36671
1.36673
1.36676
1.36677
1.36679
1.36681
1.36682
1.36683
1.36684
1.36684
1.36684
1.36683
1.36682
1.36681
1.36679
1.36676
1.36673
1.36669
1.36665
1.3666
1.36654
1.36648
1.36641
1.36633
1.36625
1.36616
1.36607
1.36597
1.36587
1.36576
1.36564
1.36553
1.3654
1.36528
1.36514
1.36501
1.36487
1.36472
1.36458
1.36443
1.36427
1.3641
1.36394
1.36376
1.36358
1.36338
1.36319
1.36297
1.36274
1.3625
1.36224
1.36197
1.36167
1.36136
1.36101
1.36065
1.36025
1.35983
1.35937
1.35888
1.35836
1.35781
1.35722
1.3566
1.35595
1.35526
1.35455
1.35381
1.35304
1.35225
1.35143
1.3506
1.34975
1.34888
1.348
1.34711
1.34621
1.34531
1.3444
1.34348
1.34257
1.34166
1.34075
1.33985
1.33895
1.33806
1.33719
1.33632
1.33547
1.33463
1.33381
1.333
1.33221
1.33143
1.33067
1.32993
1.32921
1.32851
1.32781
1.32715
1.32649
1.32585
1.32524
1.32463
1.32404
1.32347
1.32292
1.32237
1.32184
1.32133
1.32083
1.32034
1.31987
1.31941
1.31896
1.31852
1.3181
1.31769
1.31729
1.3169
1.31652
1.31615
1.31579
1.31545
1.31511
1.31479
1.31447
1.31417
1.31387
1.31359
1.31332
1.31305
1.3128
1.31255
1.31232
1.31209
1.31187
1.31167
1.31147
1.31128
1.31111
1.31094
1.31078
1.31063
1.3105
1.31037
1.31025
1.31015
1.31006
1.30998
1.30991
1.30988
1.30984
1.3098
1.30983
1.3099
1.30989
1.30994
1.3102
1.31031
1.31026
1.31074
1.3113
1.31111
1.31148
1.31287
1.31315
1.31306
1.31462
1.31616
1.31697
1.31829
1.31986
1.34178
1.34014
1.33899
1.33784
1.33681
1.33586
1.3349
1.33403
1.33322
1.33241
1.33163
1.33092
1.33022
1.32954
1.3289
1.3283
1.3277
1.32714
1.32661
1.3261
1.32561
1.32515
1.32471
1.3243
1.3239
1.32353
1.32318
1.32284
1.32253
1.32224
1.32197
1.32171
1.32147
1.32125
1.32104
1.32085
1.32068
1.32052
1.32038
1.32026
1.32014
1.32005
1.31996
1.31989
1.31984
1.3198
1.31977
1.31976
1.31976
1.31978
1.31981
1.31985
1.31991
1.31999
1.32008
1.32018
1.32031
1.32045
1.3206
1.32078
1.32097
1.32118
1.32142
1.32167
1.32194
1.32223
1.32255
1.32289
1.32325
1.32364
1.32405
1.32449
1.32496
1.32546
1.32597
1.32652
1.32711
1.32771
1.32835
1.32902
1.32972
1.33045
1.33121
1.33199
1.33281
1.33366
1.33452
1.33542
1.33634
1.33728
1.33824
1.33922
1.34021
1.34122
1.34224
1.34327
1.3443
1.34533
1.34636
1.34739
1.34842
1.34943
1.35043
1.35142
1.35239
1.35333
1.35426
1.35515
1.35601
1.35685
1.35764
1.3584
1.35912
1.3598
1.36043
1.36103
1.36158
1.36209
1.36256
1.36299
1.36338
1.36374
1.36406
1.36435
1.36461
1.36484
1.36504
1.36522
1.36539
1.36552
1.36564
1.36575
1.36584
1.36592
1.36598
1.36604
1.36608
1.36612
1.36615
1.36618
1.36619
1.36621
1.36622
1.36622
1.36623
1.36623
1.36623
1.36622
1.36622
1.36621
1.36621
1.3662
1.36619
1.36618
1.36617
1.36616
1.36615
1.36614
1.36613
1.36613
1.36612
1.36611
1.3661
1.36609
1.36608
1.36607
1.36607
1.36606
1.36605
1.36605
1.36604
1.36603
1.36603
1.36602
1.36602
1.36602
1.36601
1.36601
1.36601
1.366
1.366
1.366
1.366
1.366
1.366
1.366