# vtk DataFile Version 2.0
LBE two cylinders
ASCII
DATASET STRUCTURED_POINTS
DIMENSIONS 400 100 1
ASPECT_RATIO 1 1 1
ORIGIN 0 0 0
POINT_DATA 40000
SCALARS rho double 1
LOOKUP_TABLE default
1.3385
1.33576
1.33604
1.33607
1.33514
1.33462
1.33429
1.33361
1.33298
1.33244
1.33183
1.3312
1.33062
1.33003
1.32944
1.32887
1.32832
1.32778
1.32725
1.32675
1.32626
1.32579
1.32534
1.32492
1.32451
1.32412
1.32375
1.3234
1.32308
1.32277
1.32248
1.32221
1.32196
1.32172
1.32151
1.32131
1.32113
1.32097
1.32082
1.32069
1.32057
1.32047
1.32039
1.32032
1.32026
1.32022
1.3202
1.32019
1.32019
1.32021
1.32024
1.32029
1.32036
1.32044
1.32053
1.32065
1.32078
1.32093
1.3211
1.32129
1.3215
1.32173
1.32198
1.32225
1.32254
1.32286
1.32321
1.32357
1.32397
1.32439
1.32483
1.3253
1.3258
1.32633
1.32689
1.32748
1.32809
1.32874
1.32941
1.33011
1.33084
1.33159
1.33237
1.33318
1.33402
1.33488
1.33576
1.33666
1.33758
1.33853
1.33948
1.34046
1.34144
1.34244
1.34344
1.34445
1.34547
1.34648
1.3475
1.34851
1.34952
1.35051
1.3515
1.35247
1.35343
1.35437
1.35529
1.35618
1.35706
1.3579
1.35872
1.35951
1.36027
1.36101
1.36171
1.36238
1.36301
1.36362
1.3642
1.36475
1.36526
1.36575
1.36622
1.36665
1.36706
1.36745
1.36781
1.36816
1.36848
1.36878
1.36907
1.36934
1.36959
1.36983
1.37006
1.37027
1.37047
1.37066
1.37084
1.37101
1.37117
1.37132
1.37147
1.37161
1.37174
1.37186
1.37198
1.37209
1.3722
1.3723
1.3724
1.37249
1.37258
1.37267
1.37275
1.37283
1.3729
1.37297
1.37303
1.3731
1.37316
1.37321
1.37327
1.37332
1.37337
1.37341
1.37345
1.3735
1.37353
1.37357
1.3736
1.37363
1.37366
1.37369
1.37372
1.37374
1.37376
1.37379
1.37381
1.37382
1.37384
1.37386
1.37387
1.37389
1.3739
1.37391
1.37392
1.37394
1.37395
1.37396
1.37397
1.37398
1.37399
1.374
1.37401
1.37402
1.37403
1.37404
1.37405
1.37406
1.37407
1.37408
1.3741
1.37411
1.37412
1.37413
1.37415
1.37416
1.37418
1.37419
1.37421
1.37422
1.37424
1.37425
1.37426
1.37428
1.37429
1.37431
1.37432
1.37433
1.37434
1.37435
1.37436
1.37436
1.37437
1.37437
1.37437
1.37437
1.37436
1.37435
1.37434
1.37433
1.37431
1.37428
1.37425
1.37422
1.37418
1.37413
1.37408
1.37402
1.37395
1.37388
1.37379
1.37371
1.37361
1.3735
1.37339
1.37327
1.37314
1.373
1.37285
1.3727
1.37253
1.37236
1.37218
1.37199
1.3718
1.37159
1.37138
1.37116
1.37093
1.3707
1.37045
1.3702
1.36995
1.36968
1.36941
1.36913
1.36884
1.36855
1.36824
1.36793
1.36761
1.36727
1.36693
1.36657
1.3662
1.36582
1.36541
1.365
1.36456
1.36411
1.36363
1.36313
1.36261
1.36206
1.36149
1.36089
1.36026
1.35961
1.35892
1.35821
1.35747
1.35671
1.35591
1.3551
1.35426
1.3534
1.35252
1.35162
1.3507
1.34978
1.34884
1.34789
1.34694
1.34598
1.34502
1.34407
1.34311
1.34216
1.34121
1.34028
1.33935
1.33843
1.33752
1.33663
1.33575
1.33488
1.33403
1.3332
1.33238
1.33158
1.3308
1.33003
1.32928
1.32855
1.32784
1.32715
1.32647
1.32582
1.32518
1.32456
1.32395
1.32337
1.3228
1.32224
1.3217
1.32118
1.32067
1.32018
1.3197
1.31924
1.31879
1.31835
1.31793
1.31752
1.31712
1.31673
1.31635
1.31598
1.31563
1.31529
1.31495
1.31463
1.31431
1.31401
1.31372
1.31343
1.31316
1.3129
1.31264
1.3124
1.31216
1.31194
1.31172
1.31151
1.31132
1.31113
1.31095
1.31078
1.31063
1.31048
1.31034
1.31021
1.31009
1.30997
1.30987
1.30979
1.3097
1.30963
1.30958
1.30953
1.30947
1.30945
1.30949
1.30945
1.30936
1.30952
1.30969
1.30936
1.30925
1.3102
1.3101
1.30805
1.30903
1.31292
1.30831
1.29958
1.31012
1.31916
1.33662
1.33675
1.33627
1.3356
1.3353
1.33482
1.33422
1.33364
1.3331
1.33248
1.33186
1.33127
1.33067
1.33007
1.32949
1.32893
1.32837
1.32783
1.3273
1.32679
1.32631
1.32584
1.32539
1.32496
1.32455
1.32416
1.32379
1.32344
1.32311
1.3228
1.32251
1.32224
1.32199
1.32176
1.32154
1.32134
1.32116
1.321
1.32085
1.32072
1.3206
1.3205
1.32041
1.32034
1.32029
1.32025
1.32022
1.32021
1.32021
1.32023
1.32026
1.32031
1.32038
1.32046
1.32055
1.32067
1.3208
1.32095
1.32112
1.32131
1.32151
1.32174
1.32199
1.32226
1.32256
1.32287
1.32321
1.32358
1.32397
1.32439
1.32483
1.32531
1.3258
1.32633
1.32689
1.32747
1.32808
1.32872
1.32939
1.33009
1.33081
1.33157
1.33235
1.33316
1.33399
1.33484
1.33572
1.33662
1.33754
1.33848
1.33943
1.34041
1.34139
1.34238
1.34338
1.34439
1.34541
1.34642
1.34744
1.34845
1.34945
1.35045
1.35143
1.35241
1.35336
1.3543
1.35522
1.35612
1.35699
1.35784
1.35866
1.35946
1.36022
1.36095
1.36165
1.36233
1.36297
1.36358
1.36415
1.3647
1.36522
1.36572
1.36618
1.36662
1.36703
1.36742
1.36778
1.36813
1.36845
1.36876
1.36904
1.36932
1.36957
1.36981
1.37004
1.37025
1.37045
1.37064
1.37082
1.37099
1.37115
1.3713
1.37145
1.37159
1.37172
1.37184
1.37196
1.37207
1.37218
1.37228
1.37238
1.37247
1.37256
1.37264
1.37272
1.3728
1.37287
1.37294
1.37301
1.37307
1.37313
1.37319
1.37324
1.37329
1.37334
1.37338
1.37343
1.37347
1.3735
1.37354
1.37357
1.37361
1.37363
1.37366
1.37369
1.37371
1.37373
1.37376
1.37377
1.37379
1.37381
1.37383
1.37384
1.37386
1.37387
1.37388
1.37389
1.3739
1.37391
1.37392
1.37393
1.37394
1.37395
1.37396
1.37397
1.37398
1.37399
1.374
1.37401
1.37403
1.37404
1.37405
1.37406
1.37407
1.37409
1.3741
1.37411
1.37413
1.37414
1.37415
1.37417
1.37418
1.3742
1.37421
1.37423
1.37424
1.37425
1.37427
1.37428
1.37429
1.3743
1.37431
1.37431
1.37432
1.37432
1.37433
1.37433
1.37432
1.37432
1.37431
1.3743
1.37428
1.37426
1.37423
1.3742
1.37417
1.37413
1.37408
1.37403
1.37397
1.3739
1.37383
1.37374
1.37365
1.37356
1.37345
1.37334
1.37322
1.37309
1.37295
1.3728
1.37265
1.37248
1.37231
1.37213
1.37194
1.37174
1.37154
1.37133
1.37111
1.37088
1.37064
1.3704
1.37015
1.36989
1.36962
1.36935
1.36907
1.36878
1.36848
1.36818
1.36786
1.36754
1.3672
1.36685
1.3665
1.36612
1.36574
1.36533
1.36492
1.36448
1.36402
1.36355
1.36305
1.36253
1.36198
1.36141
1.36081
1.36018
1.35953
1.35885
1.35814
1.3574
1.35664
1.35586
1.35504
1.35421
1.35335
1.35247
1.35158
1.35067
1.34975
1.34882
1.34788
1.34693
1.34598
1.34502
1.34407
1.34312
1.34217
1.34123
1.34029
1.33937
1.33845
1.33755
1.33666
1.33578
1.33492
1.33407
1.33324
1.33242
1.33163
1.33084
1.33008
1.32933
1.3286
1.32789
1.3272
1.32653
1.32587
1.32523
1.32461
1.324
1.32342
1.32285
1.32229
1.32175
1.32123
1.32072
1.32023
1.31975
1.31928
1.31883
1.31839
1.31797
1.31755
1.31715
1.31676
1.31638
1.31601
1.31566
1.31531
1.31497
1.31465
1.31433
1.31403
1.31373
1.31345
1.31317
1.31291
1.31265
1.3124
1.31217
1.31194
1.31172
1.31151
1.31131
1.31112
1.31094
1.31077
1.31061
1.31046
1.31032
1.31018
1.31006
1.30994
1.30984
1.30974
1.30966
1.30958
1.3095
1.30945
1.30942
1.30936
1.30931
1.30935
1.30935
1.30923
1.30924
1.3095
1.30934
1.30885
1.30928
1.30996
1.30826
1.30678
1.30943
1.30887
1.299
1.29351
1.33594
1.33693
1.33621
1.33551
1.33549
1.33493
1.33422
1.33373
1.33318
1.33251
1.33191
1.33133
1.33071
1.33011
1.32954
1.32896
1.3284
1.32786
1.32733
1.32682
1.32633
1.32586
1.32541
1.32498
1.32457
1.32418
1.32381
1.32346
1.32313
1.32282
1.32253
1.32226
1.32201
1.32177
1.32156
1.32136
1.32117
1.32101
1.32086
1.32073
1.32061
1.32051
1.32043
1.32035
1.3203
1.32026
1.32023
1.32022
1.32022
1.32024
1.32027
1.32032
1.32038
1.32046
1.32056
1.32067
1.3208
1.32095
1.32112
1.3213
1.32151
1.32174
1.32198
1.32225
1.32254
1.32286
1.3232
1.32356
1.32395
1.32437
1.32481
1.32528
1.32577
1.3263
1.32685
1.32743
1.32804
1.32868
1.32934
1.33004
1.33076
1.33151
1.33229
1.3331
1.33392
1.33478
1.33566
1.33655
1.33747
1.33841
1.33936
1.34034
1.34132
1.34231
1.34331
1.34432
1.34534
1.34635
1.34737
1.34838
1.34939
1.35039
1.35137
1.35235
1.35331
1.35425
1.35517
1.35608
1.35695
1.3578
1.35863
1.35942
1.36019
1.36092
1.36163
1.3623
1.36294
1.36355
1.36413
1.36468
1.3652
1.3657
1.36616
1.3666
1.36701
1.3674
1.36777
1.36811
1.36843
1.36874
1.36902
1.3693
1.36955
1.36979
1.37001
1.37023
1.37043
1.37061
1.37079
1.37096
1.37112
1.37128
1.37142
1.37156
1.37169
1.37181
1.37193
1.37204
1.37214
1.37225
1.37234
1.37243
1.37252
1.37261
1.37268
1.37276
1.37283
1.3729
1.37296
1.37303
1.37308
1.37314
1.37319
1.37324
1.37329
1.37334
1.37338
1.37342
1.37345
1.37349
1.37352
1.37355
1.37358
1.37361
1.37363
1.37366
1.37368
1.3737
1.37372
1.37374
1.37375
1.37377
1.37378
1.3738
1.37381
1.37382
1.37383
1.37385
1.37386
1.37387
1.37388
1.37389
1.37389
1.3739
1.37391
1.37392
1.37393
1.37394
1.37395
1.37397
1.37398
1.37399
1.374
1.37401
1.37402
1.37404
1.37405
1.37407
1.37408
1.37409
1.37411
1.37412
1.37413
1.37415
1.37416
1.37418
1.37419
1.3742
1.37421
1.37422
1.37423
1.37424
1.37425
1.37425
1.37426
1.37426
1.37426
1.37426
1.37425
1.37424
1.37423
1.37421
1.37419
1.37416
1.37413
1.3741
1.37406
1.37401
1.37396
1.3739
1.37383
1.37376
1.37367
1.37359
1.37349
1.37339
1.37327
1.37315
1.37302
1.37288
1.37274
1.37258
1.37242
1.37225
1.37206
1.37188
1.37168
1.37147
1.37126
1.37104
1.37081
1.37057
1.37033
1.37008
1.36982
1.36955
1.36928
1.369
1.36871
1.36841
1.3681
1.36779
1.36746
1.36713
1.36678
1.36642
1.36605
1.36566
1.36526
1.36484
1.36441
1.36395
1.36347
1.36298
1.36245
1.36191
1.36134
1.36074
1.36012
1.35947
1.35879
1.35808
1.35735
1.35659
1.3558
1.35499
1.35416
1.35331
1.35243
1.35154
1.35064
1.34972
1.34879
1.34785
1.3469
1.34596
1.345
1.34405
1.34311
1.34216
1.34122
1.34029
1.33937
1.33846
1.33756
1.33667
1.33579
1.33493
1.33409
1.33326
1.33244
1.33165
1.33087
1.3301
1.32936
1.32863
1.32792
1.32723
1.32656
1.3259
1.32526
1.32464
1.32404
1.32345
1.32288
1.32232
1.32178
1.32126
1.32075
1.32026
1.31978
1.31931
1.31886
1.31842
1.31799
1.31758
1.31717
1.31678
1.3164
1.31603
1.31568
1.31533
1.31499
1.31466
1.31435
1.31404
1.31375
1.31346
1.31318
1.31291
1.31266
1.31241
1.31217
1.31194
1.31172
1.31151
1.31131
1.31112
1.31094
1.31076
1.3106
1.31044
1.3103
1.31016
1.31003
1.30992
1.30981
1.3097
1.30961
1.30954
1.30945
1.30937
1.30934
1.30931
1.30921
1.30917
1.30929
1.30921
1.30892
1.30917
1.30956
1.30871
1.30813
1.30999
1.30965
1.30486
1.30686
1.31368
1.3013
1.28912
1.33636
1.33643
1.33631
1.33606
1.33554
1.33488
1.33442
1.33384
1.33318
1.33257
1.33198
1.33135
1.33073
1.33014
1.32955
1.32897
1.32841
1.32786
1.32733
1.32682
1.32633
1.32586
1.32541
1.32498
1.32457
1.32418
1.32381
1.32346
1.32313
1.32282
1.32253
1.32226
1.322
1.32177
1.32155
1.32135
1.32117
1.32101
1.32086
1.32073
1.32061
1.32051
1.32042
1.32035
1.32029
1.32025
1.32022
1.32021
1.32021
1.32023
1.32026
1.32031
1.32037
1.32045
1.32054
1.32066
1.32078
1.32093
1.3211
1.32128
1.32148
1.32171
1.32195
1.32222
1.32251
1.32282
1.32316
1.32352
1.32391
1.32432
1.32476
1.32522
1.32571
1.32623
1.32678
1.32736
1.32797
1.3286
1.32926
1.32996
1.33068
1.33143
1.3322
1.333
1.33383
1.33468
1.33556
1.33646
1.33738
1.33831
1.33927
1.34024
1.34122
1.34222
1.34322
1.34424
1.34525
1.34627
1.34729
1.34831
1.34932
1.35032
1.35131
1.35229
1.35326
1.35421
1.35513
1.35604
1.35692
1.35777
1.3586
1.3594
1.36017
1.36091
1.36162
1.36229
1.36293
1.36355
1.36413
1.36468
1.3652
1.36569
1.36616
1.36659
1.367
1.36739
1.36776
1.3681
1.36842
1.36872
1.36901
1.36927
1.36953
1.36976
1.36999
1.3702
1.3704
1.37058
1.37076
1.37093
1.37109
1.37124
1.37138
1.37152
1.37164
1.37177
1.37188
1.37199
1.3721
1.3722
1.37229
1.37238
1.37247
1.37255
1.37263
1.3727
1.37277
1.37284
1.3729
1.37296
1.37302
1.37307
1.37313
1.37317
1.37322
1.37326
1.3733
1.37334
1.37338
1.37342
1.37345
1.37348
1.37351
1.37353
1.37356
1.37358
1.3736
1.37362
1.37364
1.37366
1.37367
1.37369
1.3737
1.37372
1.37373
1.37374
1.37375
1.37376
1.37377
1.37378
1.37379
1.3738
1.37381
1.37382
1.37383
1.37384
1.37385
1.37386
1.37387
1.37388
1.37389
1.3739
1.37391
1.37392
1.37394
1.37395
1.37396
1.37398
1.37399
1.374
1.37402
1.37403
1.37405
1.37406
1.37407
1.37409
1.3741
1.37411
1.37412
1.37413
1.37414
1.37415
1.37416
1.37416
1.37417
1.37417
1.37417
1.37416
1.37416
1.37415
1.37413
1.37412
1.3741
1.37407
1.37404
1.37401
1.37397
1.37392
1.37387
1.37381
1.37374
1.37367
1.37359
1.3735
1.3734
1.3733
1.37319
1.37307
1.37294
1.3728
1.37265
1.3725
1.37234
1.37217
1.37199
1.3718
1.3716
1.3714
1.37118
1.37096
1.37073
1.3705
1.37025
1.37
1.36974
1.36948
1.3692
1.36892
1.36863
1.36833
1.36803
1.36771
1.36739
1.36705
1.36671
1.36635
1.36597
1.36559
1.36519
1.36477
1.36433
1.36388
1.3634
1.3629
1.36238
1.36184
1.36127
1.36067
1.36005
1.3594
1.35872
1.35801
1.35728
1.35652
1.35573
1.35492
1.35409
1.35324
1.35237
1.35147
1.35057
1.34965
1.34872
1.34779
1.34684
1.34589
1.34495
1.344
1.34305
1.34211
1.34117
1.34024
1.33932
1.33841
1.33752
1.33663
1.33576
1.3349
1.33406
1.33323
1.33242
1.33163
1.33085
1.33009
1.32935
1.32863
1.32792
1.32723
1.32656
1.3259
1.32527
1.32465
1.32405
1.32346
1.32289
1.32234
1.3218
1.32128
1.32077
1.32027
1.31979
1.31933
1.31888
1.31844
1.31801
1.31759
1.31719
1.3168
1.31642
1.31605
1.31569
1.31534
1.31501
1.31468
1.31436
1.31405
1.31376
1.31347
1.31319
1.31292
1.31267
1.31242
1.31218
1.31195
1.31173
1.31151
1.31131
1.31112
1.31094
1.31076
1.3106
1.31044
1.31029
1.31015
1.31002
1.3099
1.30979
1.30969
1.30959
1.3095
1.30944
1.30937
1.30928
1.30925
1.30927
1.30916
1.30903
1.30922
1.30929
1.3088
1.30882
1.30971
1.3091
1.30741
1.30906
1.31071
1.30597
1.30391
1.30926
1.30987
1.33712
1.33682
1.33668
1.33632
1.33559
1.33505
1.33459
1.33387
1.33322
1.33264
1.332
1.33135
1.33074
1.33014
1.32953
1.32895
1.32839
1.32784
1.32731
1.3268
1.3263
1.32583
1.32538
1.32495
1.32454
1.32415
1.32378
1.32343
1.3231
1.32279
1.3225
1.32223
1.32198
1.32174
1.32153
1.32133
1.32115
1.32098
1.32084
1.3207
1.32059
1.32049
1.3204
1.32033
1.32027
1.32023
1.3202
1.32019
1.32019
1.3202
1.32023
1.32028
1.32034
1.32042
1.32051
1.32062
1.32075
1.32089
1.32105
1.32123
1.32144
1.32166
1.3219
1.32216
1.32245
1.32276
1.32309
1.32345
1.32383
1.32424
1.32467
1.32514
1.32562
1.32614
1.32668
1.32726
1.32786
1.32849
1.32915
1.32984
1.33056
1.3313
1.33208
1.33288
1.3337
1.33455
1.33543
1.33633
1.33725
1.33819
1.33914
1.34012
1.3411
1.3421
1.34311
1.34413
1.34515
1.34617
1.3472
1.34822
1.34924
1.35025
1.35125
1.35223
1.3532
1.35416
1.35509
1.356
1.35689
1.35775
1.35858
1.35939
1.36016
1.36091
1.36161
1.36229
1.36294
1.36355
1.36413
1.36469
1.36521
1.3657
1.36616
1.36659
1.367
1.36739
1.36775
1.36809
1.36841
1.36871
1.36899
1.36925
1.3695
1.36974
1.36996
1.37016
1.37036
1.37054
1.37072
1.37088
1.37104
1.37119
1.37133
1.37146
1.37159
1.37171
1.37182
1.37193
1.37203
1.37213
1.37222
1.37231
1.37239
1.37247
1.37255
1.37262
1.37269
1.37276
1.37282
1.37288
1.37293
1.37299
1.37304
1.37308
1.37313
1.37317
1.37321
1.37325
1.37328
1.37332
1.37335
1.37338
1.3734
1.37343
1.37345
1.37348
1.3735
1.37352
1.37353
1.37355
1.37357
1.37358
1.37359
1.37361
1.37362
1.37363
1.37364
1.37365
1.37366
1.37367
1.37368
1.37369
1.37369
1.3737
1.37371
1.37372
1.37373
1.37374
1.37375
1.37376
1.37377
1.37378
1.3738
1.37381
1.37382
1.37383
1.37385
1.37386
1.37387
1.37389
1.3739
1.37392
1.37393
1.37394
1.37396
1.37397
1.37398
1.374
1.37401
1.37402
1.37403
1.37404
1.37404
1.37405
1.37405
1.37405
1.37405
1.37405
1.37404
1.37403
1.37402
1.374
1.37398
1.37396
1.37392
1.37389
1.37385
1.3738
1.37375
1.37369
1.37363
1.37356
1.37348
1.37339
1.37329
1.37319
1.37308
1.37296
1.37283
1.3727
1.37255
1.3724
1.37224
1.37207
1.37189
1.3717
1.3715
1.3713
1.37109
1.37087
1.37064
1.37041
1.37016
1.36991
1.36966
1.36939
1.36912
1.36884
1.36855
1.36825
1.36795
1.36763
1.36731
1.36698
1.36663
1.36627
1.3659
1.36552
1.36511
1.3647
1.36426
1.3638
1.36333
1.36283
1.36231
1.36176
1.36119
1.36059
1.35996
1.35931
1.35863
1.35792
1.35718
1.35642
1.35563
1.35482
1.35398
1.35313
1.35225
1.35136
1.35045
1.34953
1.34861
1.34767
1.34672
1.34578
1.34483
1.34388
1.34294
1.34199
1.34106
1.34013
1.33922
1.33831
1.33742
1.33653
1.33567
1.33481
1.33397
1.33315
1.33235
1.33156
1.33078
1.33003
1.32929
1.32857
1.32787
1.32719
1.32652
1.32587
1.32524
1.32463
1.32403
1.32345
1.32288
1.32233
1.3218
1.32127
1.32077
1.32028
1.3198
1.31934
1.31889
1.31845
1.31802
1.31761
1.31721
1.31682
1.31644
1.31607
1.31571
1.31536
1.31503
1.3147
1.31438
1.31408
1.31378
1.31349
1.31321
1.31295
1.31269
1.31244
1.3122
1.31197
1.31175
1.31154
1.31133
1.31114
1.31096
1.31078
1.31062
1.31046
1.31031
1.31017
1.31005
1.30993
1.30981
1.30971
1.30962
1.30953
1.30945
1.30941
1.30935
1.30926
1.30927
1.30932
1.30917
1.30909
1.30942
1.3094
1.30878
1.30926
1.31026
1.30874
1.3078
1.31118
1.31048
1.30554
1.30885
1.31136
1.33801
1.3376
1.33707
1.33643
1.33589
1.33532
1.33461
1.33392
1.33332
1.33265
1.33197
1.33135
1.33072
1.33009
1.32949
1.32891
1.32833
1.32778
1.32725
1.32673
1.32624
1.32577
1.32532
1.32489
1.32448
1.32409
1.32372
1.32337
1.32305
1.32274
1.32245
1.32218
1.32193
1.3217
1.32148
1.32129
1.32111
1.32094
1.32079
1.32066
1.32055
1.32045
1.32036
1.32029
1.32023
1.32019
1.32016
1.32015
1.32015
1.32016
1.32019
1.32023
1.32029
1.32037
1.32046
1.32057
1.32069
1.32083
1.32099
1.32117
1.32137
1.32159
1.32182
1.32208
1.32237
1.32267
1.323
1.32335
1.32373
1.32413
1.32456
1.32502
1.3255
1.32601
1.32655
1.32712
1.32772
1.32835
1.329
1.32969
1.3304
1.33114
1.33192
1.33271
1.33354
1.33439
1.33527
1.33616
1.33709
1.33803
1.33899
1.33996
1.34095
1.34196
1.34297
1.34399
1.34502
1.34605
1.34708
1.34811
1.34914
1.35016
1.35116
1.35216
1.35314
1.3541
1.35504
1.35596
1.35686
1.35773
1.35857
1.35938
1.36016
1.36091
1.36162
1.3623
1.36295
1.36356
1.36415
1.3647
1.36522
1.3657
1.36616
1.3666
1.367
1.36738
1.36774
1.36808
1.36839
1.36869
1.36896
1.36922
1.36947
1.3697
1.36991
1.37012
1.37031
1.37049
1.37066
1.37083
1.37098
1.37112
1.37126
1.37139
1.37151
1.37163
1.37174
1.37185
1.37195
1.37204
1.37213
1.37222
1.3723
1.37238
1.37245
1.37252
1.37259
1.37265
1.37271
1.37277
1.37282
1.37287
1.37292
1.37297
1.37301
1.37305
1.37309
1.37313
1.37316
1.37319
1.37322
1.37325
1.37328
1.3733
1.37332
1.37335
1.37336
1.37338
1.3734
1.37342
1.37343
1.37344
1.37346
1.37347
1.37348
1.37349
1.3735
1.37351
1.37352
1.37353
1.37353
1.37354
1.37355
1.37356
1.37357
1.37358
1.37359
1.3736
1.3736
1.37362
1.37363
1.37364
1.37365
1.37366
1.37367
1.37369
1.3737
1.37372
1.37373
1.37374
1.37376
1.37377
1.37379
1.3738
1.37381
1.37383
1.37384
1.37385
1.37386
1.37387
1.37388
1.37389
1.3739
1.3739
1.37391
1.37391
1.37391
1.3739
1.3739
1.37389
1.37387
1.37386
1.37384
1.37381
1.37378
1.37375
1.37371
1.37366
1.37361
1.37355
1.37349
1.37342
1.37334
1.37326
1.37316
1.37306
1.37295
1.37283
1.37271
1.37257
1.37243
1.37228
1.37212
1.37195
1.37177
1.37159
1.37139
1.37119
1.37098
1.37076
1.37054
1.3703
1.37006
1.36981
1.36956
1.3693
1.36902
1.36874
1.36846
1.36817
1.36786
1.36755
1.36723
1.36689
1.36655
1.36619
1.36582
1.36544
1.36504
1.36462
1.36418
1.36373
1.36325
1.36275
1.36222
1.36167
1.3611
1.36049
1.35986
1.3592
1.35852
1.3578
1.35706
1.35629
1.35549
1.35467
1.35383
1.35297
1.35209
1.35119
1.35028
1.34936
1.34843
1.34749
1.34654
1.34559
1.34465
1.3437
1.34275
1.34181
1.34088
1.33996
1.33904
1.33814
1.33725
1.33637
1.3355
1.33466
1.33382
1.33301
1.33221
1.33143
1.33066
1.32991
1.32919
1.32847
1.32778
1.3271
1.32644
1.3258
1.32518
1.32457
1.32398
1.3234
1.32285
1.3223
1.32177
1.32126
1.32076
1.32027
1.3198
1.31934
1.31889
1.31846
1.31804
1.31762
1.31723
1.31684
1.31646
1.3161
1.31574
1.31539
1.31506
1.31473
1.31442
1.31411
1.31382
1.31353
1.31326
1.31299
1.31273
1.31248
1.31224
1.31201
1.3118
1.31159
1.31138
1.31119
1.31101
1.31084
1.31067
1.31052
1.31038
1.31024
1.31011
1.31
1.30989
1.30979
1.30971
1.30964
1.30956
1.30949
1.30949
1.30947
1.30935
1.3094
1.30959
1.30942
1.30924
1.30982
1.31005
1.3091
1.30957
1.31141
1.31002
1.30833
1.31162
1.31342
1.3104
1.31005
1.33904
1.33824
1.33752
1.33679
1.33618
1.33544
1.33467
1.33402
1.33335
1.33261
1.33195
1.33131
1.33065
1.33001
1.32941
1.32881
1.32824
1.32768
1.32715
1.32663
1.32614
1.32567
1.32522
1.32479
1.32439
1.324
1.32363
1.32329
1.32296
1.32266
1.32237
1.32211
1.32186
1.32163
1.32142
1.32122
1.32104
1.32088
1.32074
1.3206
1.32049
1.32039
1.3203
1.32023
1.32018
1.32013
1.3201
1.32009
1.32009
1.3201
1.32013
1.32017
1.32023
1.3203
1.32039
1.32049
1.32062
1.32075
1.32091
1.32109
1.32128
1.32149
1.32173
1.32198
1.32226
1.32256
1.32288
1.32323
1.3236
1.324
1.32442
1.32487
1.32535
1.32586
1.32639
1.32695
1.32755
1.32817
1.32882
1.3295
1.33021
1.33095
1.33172
1.33252
1.33334
1.33419
1.33507
1.33597
1.33689
1.33783
1.33879
1.33977
1.34077
1.34178
1.3428
1.34383
1.34486
1.3459
1.34694
1.34798
1.34902
1.35004
1.35106
1.35207
1.35306
1.35403
1.35498
1.35591
1.35682
1.3577
1.35855
1.35937
1.36015
1.3609
1.36162
1.36231
1.36296
1.36358
1.36416
1.36471
1.36522
1.36571
1.36617
1.3666
1.367
1.36738
1.36773
1.36806
1.36837
1.36866
1.36893
1.36919
1.36943
1.36965
1.36986
1.37006
1.37025
1.37043
1.37059
1.37075
1.3709
1.37104
1.37118
1.37131
1.37142
1.37154
1.37165
1.37175
1.37185
1.37194
1.37203
1.37211
1.37219
1.37226
1.37233
1.3724
1.37246
1.37253
1.37258
1.37264
1.37269
1.37274
1.37278
1.37283
1.37287
1.37291
1.37294
1.37298
1.37301
1.37304
1.37307
1.3731
1.37312
1.37315
1.37317
1.37319
1.3732
1.37322
1.37324
1.37325
1.37327
1.37328
1.37329
1.3733
1.37331
1.37332
1.37333
1.37334
1.37334
1.37335
1.37336
1.37337
1.37337
1.37338
1.37339
1.3734
1.37341
1.37342
1.37343
1.37344
1.37345
1.37346
1.37347
1.37349
1.3735
1.37351
1.37352
1.37354
1.37355
1.37357
1.37358
1.3736
1.37361
1.37363
1.37364
1.37365
1.37366
1.37368
1.37369
1.3737
1.37371
1.37372
1.37372
1.37373
1.37373
1.37373
1.37373
1.37373
1.37372
1.37371
1.3737
1.37369
1.37367
1.37364
1.37361
1.37358
1.37354
1.3735
1.37345
1.37339
1.37333
1.37326
1.37318
1.37309
1.373
1.3729
1.37279
1.37268
1.37255
1.37242
1.37228
1.37213
1.37197
1.37181
1.37163
1.37145
1.37126
1.37106
1.37085
1.37063
1.37041
1.37018
1.36994
1.3697
1.36945
1.36919
1.36892
1.36864
1.36836
1.36807
1.36777
1.36746
1.36714
1.3668
1.36646
1.36611
1.36574
1.36535
1.36496
1.36454
1.3641
1.36364
1.36316
1.36265
1.36213
1.36157
1.36099
1.36038
1.35974
1.35907
1.35838
1.35765
1.3569
1.35612
1.35532
1.35449
1.35364
1.35277
1.35188
1.35097
1.35006
1.34913
1.34819
1.34725
1.3463
1.34535
1.3444
1.34345
1.3425
1.34156
1.34063
1.33971
1.3388
1.3379
1.33701
1.33614
1.33528
1.33443
1.33361
1.3328
1.33201
1.33123
1.33048
1.32974
1.32902
1.32832
1.32763
1.32697
1.32632
1.32569
1.32507
1.32448
1.3239
1.32333
1.32278
1.32225
1.32173
1.32122
1.32073
1.32025
1.31979
1.31933
1.31889
1.31846
1.31805
1.31764
1.31725
1.31687
1.3165
1.31613
1.31578
1.31544
1.31511
1.31479
1.31448
1.31417
1.31388
1.3136
1.31332
1.31306
1.3128
1.31256
1.31232
1.3121
1.31188
1.31167
1.31147
1.31128
1.31111
1.31094
1.31078
1.31063
1.31049
1.31036
1.31024
1.31012
1.31003
1.30994
1.30986
1.3098
1.30977
1.3097
1.30966
1.30972
1.30973
1.30964
1.30979
1.31006
1.30986
1.30983
1.31068
1.31077
1.30995
1.31118
1.31268
1.31128
1.31149
1.31403
1.31428
1.31492
1.34004
1.33882
1.33801
1.33721
1.33634
1.33553
1.3348
1.33406
1.33328
1.33257
1.3319
1.3312
1.33053
1.32991
1.32928
1.32868
1.3281
1.32755
1.32701
1.3265
1.32601
1.32554
1.32509
1.32467
1.32426
1.32388
1.32352
1.32318
1.32286
1.32256
1.32228
1.32201
1.32177
1.32154
1.32133
1.32114
1.32096
1.3208
1.32066
1.32053
1.32042
1.32032
1.32023
1.32016
1.32011
1.32006
1.32003
1.32002
1.32002
1.32003
1.32006
1.3201
1.32015
1.32022
1.32031
1.32041
1.32052
1.32066
1.32081
1.32098
1.32117
1.32138
1.32161
1.32186
1.32213
1.32243
1.32274
1.32308
1.32345
1.32384
1.32426
1.3247
1.32517
1.32567
1.3262
1.32676
1.32734
1.32796
1.3286
1.32928
1.32999
1.33072
1.33149
1.33228
1.3331
1.33395
1.33483
1.33573
1.33665
1.3376
1.33857
1.33955
1.34055
1.34157
1.34259
1.34363
1.34467
1.34572
1.34677
1.34782
1.34886
1.3499
1.35093
1.35195
1.35295
1.35394
1.35491
1.35585
1.35677
1.35765
1.35851
1.35934
1.36014
1.3609
1.36162
1.36231
1.36296
1.36358
1.36417
1.36472
1.36523
1.36571
1.36617
1.36659
1.36699
1.36736
1.36771
1.36803
1.36834
1.36862
1.36889
1.36914
1.36937
1.36959
1.3698
1.36999
1.37017
1.37035
1.37051
1.37066
1.37081
1.37094
1.37107
1.3712
1.37131
1.37142
1.37153
1.37163
1.37172
1.37181
1.37189
1.37197
1.37205
1.37212
1.37219
1.37225
1.37231
1.37237
1.37243
1.37248
1.37253
1.37257
1.37262
1.37266
1.3727
1.37274
1.37277
1.3728
1.37283
1.37286
1.37289
1.37291
1.37294
1.37296
1.37298
1.373
1.37301
1.37303
1.37304
1.37306
1.37307
1.37308
1.37309
1.3731
1.37311
1.37312
1.37312
1.37313
1.37314
1.37315
1.37315
1.37316
1.37317
1.37318
1.37318
1.37319
1.3732
1.37321
1.37322
1.37323
1.37324
1.37325
1.37326
1.37328
1.37329
1.3733
1.37332
1.37333
1.37334
1.37336
1.37337
1.37339
1.3734
1.37342
1.37343
1.37345
1.37346
1.37347
1.37348
1.3735
1.37351
1.37351
1.37352
1.37353
1.37353
1.37353
1.37353
1.37353
1.37352
1.37351
1.3735
1.37349
1.37347
1.37344
1.37341
1.37338
1.37334
1.3733
1.37325
1.3732
1.37313
1.37306
1.37299
1.37291
1.37282
1.37272
1.37261
1.3725
1.37238
1.37225
1.37211
1.37196
1.37181
1.37164
1.37147
1.37129
1.3711
1.37091
1.3707
1.37049
1.37027
1.37004
1.36981
1.36957
1.36932
1.36906
1.3688
1.36853
1.36825
1.36796
1.36766
1.36736
1.36704
1.36671
1.36637
1.36602
1.36565
1.36527
1.36487
1.36445
1.36401
1.36355
1.36306
1.36255
1.36202
1.36145
1.36086
1.36024
1.3596
1.35892
1.35821
1.35747
1.35671
1.35592
1.3551
1.35426
1.3534
1.35252
1.35162
1.35071
1.34978
1.34885
1.3479
1.34695
1.346
1.34504
1.34409
1.34314
1.34219
1.34125
1.34032
1.3394
1.33849
1.33759
1.33671
1.33584
1.33499
1.33415
1.33333
1.33253
1.33175
1.33098
1.33024
1.32951
1.3288
1.32811
1.32744
1.32678
1.32615
1.32553
1.32493
1.32434
1.32378
1.32322
1.32269
1.32216
1.32166
1.32116
1.32068
1.32021
1.31976
1.31932
1.31889
1.31847
1.31806
1.31766
1.31728
1.3169
1.31654
1.31618
1.31584
1.3155
1.31518
1.31486
1.31456
1.31426
1.31397
1.31369
1.31342
1.31316
1.31291
1.31267
1.31244
1.31221
1.312
1.3118
1.3116
1.31142
1.31125
1.31108
1.31093
1.31078
1.31065
1.31053
1.31042
1.31032
1.31023
1.31016
1.3101
1.31003
1.31002
1.31003
1.30999
1.30999
1.31015
1.31021
1.31011
1.31039
1.31087
1.31064
1.31066
1.31193
1.31219
1.31131
1.31277
1.31488
1.31432
1.31432
1.31711
1.31914
1.34085
1.3394
1.33844
1.33746
1.3365
1.33565
1.33484
1.334
1.33322
1.3325
1.33177
1.33105
1.33039
1.32974
1.32911
1.32851
1.32793
1.32737
1.32684
1.32633
1.32584
1.32537
1.32493
1.32451
1.32411
1.32374
1.32338
1.32304
1.32273
1.32243
1.32216
1.3219
1.32166
1.32143
1.32123
1.32104
1.32087
1.32071
1.32057
1.32044
1.32033
1.32023
1.32015
1.32008
1.32002
1.31998
1.31995
1.31993
1.31993
1.31994
1.31997
1.32
1.32006
1.32012
1.32021
1.3203
1.32042
1.32055
1.3207
1.32086
1.32105
1.32125
1.32147
1.32172
1.32198
1.32227
1.32258
1.32292
1.32327
1.32366
1.32407
1.3245
1.32496
1.32546
1.32598
1.32653
1.32711
1.32772
1.32835
1.32903
1.32973
1.33046
1.33122
1.33201
1.33283
1.33368
1.33455
1.33545
1.33638
1.33733
1.3383
1.33929
1.34029
1.34131
1.34235
1.34339
1.34444
1.3455
1.34656
1.34762
1.34868
1.34973
1.35078
1.35181
1.35282
1.35383
1.35481
1.35576
1.35669
1.35759
1.35847
1.3593
1.36011
1.36088
1.36161
1.3623
1.36296
1.36358
1.36417
1.36471
1.36523
1.36571
1.36616
1.36658
1.36697
1.36734
1.36768
1.368
1.36829
1.36857
1.36883
1.36907
1.3693
1.36951
1.36972
1.3699
1.37008
1.37025
1.3704
1.37055
1.37069
1.37083
1.37095
1.37107
1.37118
1.37129
1.37139
1.37148
1.37157
1.37166
1.37174
1.37182
1.37189
1.37196
1.37202
1.37208
1.37214
1.37219
1.37224
1.37229
1.37234
1.37238
1.37242
1.37246
1.3725
1.37253
1.37257
1.3726
1.37263
1.37265
1.37268
1.3727
1.37272
1.37274
1.37276
1.37278
1.37279
1.37281
1.37282
1.37283
1.37284
1.37285
1.37286
1.37287
1.37288
1.37289
1.37289
1.3729
1.3729
1.37291
1.37292
1.37292
1.37293
1.37294
1.37294
1.37295
1.37296
1.37297
1.37298
1.37299
1.373
1.37301
1.37302
1.37304
1.37305
1.37306
1.37308
1.37309
1.3731
1.37312
1.37314
1.37315
1.37317
1.37318
1.3732
1.37321
1.37322
1.37324
1.37325
1.37326
1.37327
1.37328
1.37329
1.37329
1.37329
1.3733
1.3733
1.37329
1.37329
1.37328
1.37327
1.37325
1.37323
1.37321
1.37318
1.37315
1.37312
1.37307
1.37303
1.37297
1.37291
1.37284
1.37277
1.37269
1.3726
1.37251
1.3724
1.37229
1.37217
1.37204
1.37191
1.37176
1.37161
1.37145
1.37128
1.37111
1.37092
1.37073
1.37053
1.37032
1.37011
1.36988
1.36965
1.36942
1.36917
1.36892
1.36866
1.3684
1.36812
1.36784
1.36755
1.36724
1.36693
1.36661
1.36627
1.36592
1.36555
1.36517
1.36477
1.36435
1.36391
1.36344
1.36295
1.36244
1.3619
1.36132
1.36072
1.36009
1.35943
1.35874
1.35802
1.35727
1.35649
1.35568
1.35485
1.354
1.35312
1.35223
1.35132
1.35039
1.34946
1.34851
1.34757
1.34661
1.34565
1.34469
1.34373
1.34278
1.34183
1.34089
1.33996
1.33904
1.33813
1.33723
1.33636
1.33549
1.33464
1.33381
1.333
1.33221
1.33144
1.33068
1.32994
1.32923
1.32853
1.32785
1.3272
1.32656
1.32593
1.32533
1.32475
1.32417
1.32362
1.32309
1.32256
1.32205
1.32156
1.32108
1.32062
1.32016
1.31972
1.31929
1.31887
1.31847
1.31807
1.31769
1.31731
1.31695
1.31659
1.31625
1.31591
1.31558
1.31527
1.31496
1.31466
1.31437
1.31408
1.31381
1.31355
1.31329
1.31305
1.31281
1.31259
1.31237
1.31217
1.31197
1.31178
1.3116
1.31144
1.31128
1.31113
1.311
1.31087
1.31076
1.31066
1.31058
1.3105
1.31044
1.31041
1.31038
1.31034
1.31038
1.31045
1.31045
1.31051
1.31078
1.3109
1.31086
1.31134
1.31192
1.31173
1.31212
1.31352
1.31381
1.31373
1.3153
1.31685
1.31767
1.31898
1.32055
1.34143
1.33983
1.33872
1.3376
1.33661
1.33569
1.33476
1.33391
1.33312
1.33234
1.33157
1.33088
1.33019
1.32952
1.3289
1.3283
1.32771
1.32716
1.32663
1.32612
1.32564
1.32518
1.32474
1.32433
1.32394
1.32357
1.32322
1.32289
1.32258
1.32229
1.32202
1.32176
1.32153
1.32131
1.32111
1.32092
1.32076
1.3206
1.32046
1.32034
1.32023
1.32013
1.32005
1.31998
1.31993
1.31989
1.31986
1.31984
1.31984
1.31984
1.31987
1.3199
1.31995
1.32002
1.3201
1.32019
1.3203
1.32042
1.32057
1.32073
1.32091
1.3211
1.32132
1.32156
1.32182
1.3221
1.3224
1.32273
1.32308
1.32345
1.32385
1.32428
1.32474
1.32522
1.32573
1.32627
1.32685
1.32744
1.32808
1.32874
1.32943
1.33016
1.33092
1.3317
1.33252
1.33337
1.33424
1.33514
1.33607
1.33702
1.33799
1.33898
1.33999
1.34102
1.34207
1.34312
1.34418
1.34525
1.34632
1.34739
1.34846
1.34952
1.35058
1.35163
1.35266
1.35368
1.35467
1.35565
1.35659
1.35751
1.3584
1.35925
1.36006
1.36084
1.36158
1.36228
1.36295
1.36357
1.36416
1.3647
1.36522
1.3657
1.36614
1.36655
1.36694
1.3673
1.36763
1.36794
1.36824
1.3685
1.36876
1.36899
1.36921
1.36942
1.36961
1.3698
1.36997
1.37013
1.37028
1.37042
1.37056
1.37068
1.3708
1.37092
1.37103
1.37113
1.37122
1.37131
1.3714
1.37148
1.37156
1.37163
1.3717
1.37176
1.37182
1.37188
1.37193
1.37199
1.37203
1.37208
1.37212
1.37216
1.3722
1.37224
1.37227
1.3723
1.37233
1.37236
1.37239
1.37241
1.37244
1.37246
1.37248
1.3725
1.37251
1.37253
1.37254
1.37255
1.37256
1.37258
1.37258