# vtk DataFile Version 2.0
LBE two cylinders
ASCII
DATASET STRUCTURED_POINTS
DIMENSIONS 400 100 1
ASPECT_RATIO 1 1 1
ORIGIN 0 0 0
POINT_DATA 40000
SCALARS rho double 1
LOOKUP_TABLE default
1.33847
1.33573
1.336
1.33602
1.33508
1.33456
1.33422
1.33354
1.33291
1.33236
1.33175
1.33112
1.33054
1.32996
1.32937
1.3288
1.32826
1.32772
1.3272
1.3267
1.32622
1.32576
1.32532
1.3249
1.32449
1.32411
1.32374
1.3234
1.32307
1.32276
1.32247
1.3222
1.32194
1.32171
1.32149
1.32129
1.3211
1.32093
1.32078
1.32064
1.32052
1.32042
1.32033
1.32025
1.3202
1.32015
1.32013
1.32012
1.32012
1.32014
1.32018
1.32023
1.3203
1.32039
1.3205
1.32062
1.32076
1.32092
1.3211
1.3213
1.32151
1.32175
1.32201
1.3223
1.3226
1.32293
1.32328
1.32365
1.32405
1.32448
1.32493
1.32541
1.32591
1.32644
1.327
1.32759
1.3282
1.32885
1.32952
1.33021
1.33094
1.33169
1.33247
1.33327
1.3341
1.33495
1.33582
1.33671
1.33762
1.33855
1.33949
1.34044
1.34141
1.34238
1.34336
1.34434
1.34532
1.3463
1.34727
1.34824
1.34919
1.35014
1.35106
1.35197
1.35286
1.35373
1.35457
1.35538
1.35616
1.35692
1.35764
1.35833
1.35899
1.35961
1.36019
1.36075
1.36126
1.36175
1.3622
1.36262
1.363
1.36336
1.36369
1.36399
1.36426
1.36451
1.36474
1.36494
1.36513
1.36529
1.36544
1.36558
1.3657
1.3658
1.36589
1.36598
1.36605
1.36612
1.36617
1.36622
1.36627
1.36631
1.36634
1.36637
1.36639
1.36642
1.36644
1.36645
1.36647
1.36648
1.3665
1.36651
1.36652
1.36653
1.36654
1.36654
1.36655
1.36656
1.36657
1.36657
1.36658
1.36658
1.36659
1.3666
1.3666
1.36661
1.36661
1.36662
1.36662
1.36663
1.36664
1.36664
1.36665
1.36665
1.36666
1.36666
1.36667
1.36667
1.36668
1.36668
1.36669
1.36669
1.3667
1.3667
1.36671
1.36672
1.36672
1.36673
1.36673
1.36674
1.36675
1.36675
1.36676
1.36677
1.36678
1.36679
1.3668
1.36681
1.36682
1.36683
1.36684
1.36685
1.36686
1.36688
1.36689
1.3669
1.36692
1.36693
1.36695
1.36697
1.36698
1.367
1.36702
1.36704
1.36706
1.36708
1.3671
1.36712
1.36714
1.36716
1.36717
1.36719
1.36721
1.36723
1.36725
1.36726
1.36728
1.36729
1.3673
1.36731
1.36732
1.36732
1.36732
1.36732
1.36732
1.36731
1.3673
1.36729
1.36727
1.36724
1.36722
1.36718
1.36715
1.3671
1.36705
1.367
1.36694
1.36688
1.36681
1.36674
1.36666
1.36658
1.36649
1.36639
1.3663
1.36619
1.36609
1.36597
1.36586
1.36574
1.36562
1.36549
1.36536
1.36523
1.36509
1.36495
1.3648
1.36465
1.36449
1.36433
1.36416
1.36399
1.3638
1.36361
1.36341
1.36319
1.36296
1.36272
1.36246
1.36219
1.36189
1.36157
1.36123
1.36087
1.36048
1.36006
1.35961
1.35913
1.35863
1.35809
1.35751
1.35691
1.35627
1.35561
1.35491
1.35418
1.35342
1.35264
1.35184
1.35101
1.35016
1.3493
1.34841
1.34752
1.34662
1.3457
1.34478
1.34386
1.34294
1.34201
1.34109
1.34018
1.33927
1.33836
1.33747
1.33659
1.33572
1.33486
1.33401
1.33318
1.33236
1.33156
1.33077
1.33
1.32924
1.32851
1.32779
1.32708
1.3264
1.32573
1.32507
1.32444
1.32382
1.32321
1.32262
1.32205
1.3215
1.32096
1.32043
1.31992
1.31943
1.31894
1.31848
1.31803
1.31759
1.31716
1.31675
1.31635
1.31596
1.31558
1.31522
1.31487
1.31453
1.3142
1.31389
1.31358
1.31328
1.313
1.31273
1.31246
1.31221
1.31197
1.31173
1.31151
1.31129
1.31109
1.31089
1.31071
1.31053
1.31036
1.3102
1.31005
1.30991
1.30978
1.30965
1.30954
1.30943
1.30934
1.30925
1.30917
1.30912
1.30907
1.309
1.30897
1.309
1.30896
1.30886
1.30901
1.30918
1.30884
1.30872
1.30966
1.30956
1.30751
1.30848
1.31237
1.30776
1.29904
1.30958
1.31863
1.33658
1.33672
1.33623
1.33555
1.33524
1.33475
1.33415
1.33357
1.33302
1.3324
1.33178
1.33119
1.33059
1.33
1.32942
1.32886
1.3283
1.32777
1.32725
1.32675
1.32627
1.3258
1.32536
1.32494
1.32453
1.32415
1.32378
1.32343
1.3231
1.3228
1.3225
1.32223
1.32198
1.32174
1.32152
1.32132
1.32113
1.32096
1.32081
1.32067
1.32055
1.32044
1.32035
1.32028
1.32022
1.32018
1.32015
1.32014
1.32015
1.32017
1.3202
1.32026
1.32033
1.32041
1.32052
1.32064
1.32078
1.32094
1.32112
1.32131
1.32153
1.32177
1.32203
1.32231
1.32261
1.32294
1.32329
1.32366
1.32406
1.32448
1.32493
1.32541
1.32591
1.32644
1.327
1.32758
1.32819
1.32883
1.3295
1.3302
1.33092
1.33167
1.33244
1.33324
1.33407
1.33491
1.33578
1.33667
1.33758
1.3385
1.33944
1.34039
1.34135
1.34232
1.3433
1.34428
1.34526
1.34624
1.34721
1.34817
1.34913
1.35007
1.351
1.35191
1.3528
1.35366
1.3545
1.35532
1.3561
1.35686
1.35758
1.35827
1.35893
1.35956
1.36014
1.3607
1.36122
1.36171
1.36216
1.36258
1.36297
1.36333
1.36366
1.36396
1.36424
1.36449
1.36472
1.36493
1.36511
1.36528
1.36543
1.36556
1.36568
1.36579
1.36589
1.36597
1.36604
1.36611
1.36617
1.36622
1.36626
1.3663
1.36633
1.36636
1.36639
1.36641
1.36643
1.36645
1.36647
1.36648
1.36649
1.36651
1.36652
1.36652
1.36653
1.36654
1.36655
1.36656
1.36656
1.36657
1.36658
1.36658
1.36659
1.36659
1.3666
1.3666
1.36661
1.36662
1.36662
1.36663
1.36663
1.36664
1.36664
1.36665
1.36665
1.36666
1.36666
1.36667
1.36667
1.36668
1.36668
1.36669
1.36669
1.3667
1.3667
1.36671
1.36672
1.36672
1.36673
1.36674
1.36674
1.36675
1.36676
1.36676
1.36677
1.36678
1.36679
1.3668
1.36681
1.36682
1.36683
1.36684
1.36685
1.36687
1.36688
1.36689
1.36691
1.36692
1.36694
1.36696
1.36697
1.36699
1.36701
1.36703
1.36704
1.36706
1.36708
1.3671
1.36712
1.36714
1.36716
1.36718
1.36719
1.36721
1.36723
1.36724
1.36726
1.36727
1.36728
1.36729
1.3673
1.3673
1.3673
1.3673
1.3673
1.36729
1.36728
1.36726
1.36724
1.36722
1.36719
1.36716
1.36712
1.36708
1.36703
1.36698
1.36692
1.36685
1.36679
1.36671
1.36663
1.36655
1.36646
1.36636
1.36627
1.36616
1.36605
1.36594
1.36583
1.36571
1.36558
1.36545
1.36532
1.36519
1.36505
1.3649
1.36475
1.3646
1.36444
1.36428
1.36411
1.36393
1.36374
1.36355
1.36334
1.36312
1.36289
1.36265
1.36239
1.36211
1.36181
1.36149
1.36115
1.36079
1.3604
1.35998
1.35953
1.35905
1.35855
1.35801
1.35744
1.35684
1.3562
1.35554
1.35485
1.35412
1.35337
1.35259
1.35179
1.35097
1.35013
1.34926
1.34839
1.3475
1.3466
1.34569
1.34478
1.34386
1.34294
1.34202
1.34111
1.34019
1.33929
1.33839
1.3375
1.33662
1.33575
1.33489
1.33405
1.33322
1.3324
1.3316
1.33081
1.33005
1.32929
1.32856
1.32784
1.32713
1.32645
1.32578
1.32512
1.32449
1.32387
1.32326
1.32267
1.3221
1.32154
1.321
1.32048
1.31997
1.31947
1.31899
1.31852
1.31806
1.31762
1.31719
1.31678
1.31638
1.31599
1.31561
1.31525
1.3149
1.31455
1.31422
1.31391
1.3136
1.3133
1.31302
1.31274
1.31247
1.31222
1.31197
1.31174
1.31151
1.3113
1.31109
1.31089
1.3107
1.31052
1.31035
1.31019
1.31003
1.30989
1.30975
1.30963
1.30951
1.3094
1.3093
1.30921
1.30913
1.30904
1.30899
1.30895
1.30888
1.30883
1.30885
1.30885
1.30873
1.30873
1.30898
1.30881
1.30832
1.30874
1.30942
1.30771
1.30623
1.30888
1.30833
1.29847
1.293
1.33591
1.3369
1.33617
1.33546
1.33544
1.33486
1.33415
1.33365
1.3331
1.33243
1.33183
1.33125
1.33063
1.33003
1.32946
1.32889
1.32833
1.32779
1.32727
1.32677
1.32629
1.32582
1.32538
1.32495
1.32455
1.32416
1.32379
1.32345
1.32312
1.32281
1.32252
1.32224
1.32199
1.32175
1.32153
1.32133
1.32114
1.32097
1.32082
1.32068
1.32056
1.32045
1.32036
1.32029
1.32023
1.32019
1.32016
1.32015
1.32015
1.32017
1.32021
1.32026
1.32033
1.32042
1.32052
1.32064
1.32078
1.32094
1.32111
1.32131
1.32152
1.32176
1.32202
1.3223
1.3226
1.32292
1.32327
1.32364
1.32404
1.32446
1.32491
1.32538
1.32588
1.32641
1.32696
1.32754
1.32815
1.32879
1.32946
1.33015
1.33087
1.33161
1.33239
1.33318
1.33401
1.33485
1.33572
1.3366
1.33751
1.33843
1.33937
1.34032
1.34128
1.34225
1.34323
1.34421
1.34519
1.34617
1.34714
1.34811
1.34907
1.35001
1.35094
1.35185
1.35274
1.35361
1.35446
1.35527
1.35606
1.35682
1.35755
1.35824
1.3589
1.35953
1.36012
1.36068
1.36121
1.36169
1.36215
1.36257
1.36296
1.36333
1.36366
1.36396
1.36424
1.36449
1.36472
1.36493
1.36511
1.36528
1.36543
1.36557
1.36569
1.36579
1.36589
1.36597
1.36605
1.36611
1.36617
1.36622
1.36626
1.3663
1.36634
1.36636
1.36639
1.36641
1.36643
1.36645
1.36647
1.36648
1.36649
1.3665
1.36651
1.36652
1.36653
1.36654
1.36655
1.36655
1.36656
1.36657
1.36657
1.36658
1.36659
1.36659
1.3666
1.3666
1.36661
1.36661
1.36662
1.36662
1.36663
1.36663
1.36664
1.36664
1.36665
1.36666
1.36666
1.36667
1.36667
1.36668
1.36668
1.36669
1.36669
1.3667
1.3667
1.36671
1.36671
1.36672
1.36672
1.36673
1.36674
1.36674
1.36675
1.36676
1.36677
1.36677
1.36678
1.36679
1.3668
1.36681
1.36682
1.36683
1.36685
1.36686
1.36687
1.36689
1.3669
1.36691
1.36693
1.36695
1.36696
1.36698
1.367
1.36701
1.36703
1.36705
1.36707
1.36709
1.36711
1.36712
1.36714
1.36716
1.36718
1.36719
1.36721
1.36723
1.36724
1.36725
1.36726
1.36727
1.36728
1.36728
1.36728
1.36728
1.36728
1.36727
1.36726
1.36724
1.36722
1.3672
1.36717
1.36714
1.3671
1.36706
1.36701
1.36695
1.3669
1.36683
1.36676
1.36669
1.36661
1.36652
1.36643
1.36634
1.36624
1.36614
1.36603
1.36591
1.3658
1.36568
1.36555
1.36542
1.36529
1.36515
1.36501
1.36486
1.36471
1.36456
1.3644
1.36423
1.36406
1.36388
1.36369
1.36349
1.36329
1.36307
1.36284
1.36259
1.36233
1.36205
1.36175
1.36143
1.36109
1.36072
1.36033
1.35991
1.35947
1.35899
1.35848
1.35795
1.35738
1.35678
1.35615
1.35549
1.35479
1.35407
1.35332
1.35255
1.35175
1.35093
1.35009
1.34923
1.34836
1.34747
1.34657
1.34567
1.34476
1.34384
1.34293
1.34201
1.3411
1.34019
1.33928
1.33839
1.3375
1.33662
1.33576
1.3349
1.33406
1.33323
1.33242
1.33162
1.33084
1.33007
1.32932
1.32858
1.32786
1.32716
1.32647
1.3258
1.32515
1.32452
1.32389
1.32329
1.3227
1.32213
1.32157
1.32103
1.32051
1.31999
1.3195
1.31901
1.31854
1.31809
1.31765
1.31722
1.3168
1.3164
1.31601
1.31563
1.31527
1.31491
1.31457
1.31424
1.31392
1.31361
1.31331
1.31302
1.31275
1.31248
1.31222
1.31198
1.31174
1.31151
1.31129
1.31108
1.31088
1.31069
1.31051
1.31034
1.31017
1.31001
1.30987
1.30973
1.3096
1.30948
1.30936
1.30925
1.30916
1.30908
1.30899
1.3089
1.30886
1.30883
1.30872
1.30868
1.30878
1.3087
1.30841
1.30865
1.30904
1.30818
1.30759
1.30944
1.30911
1.30432
1.30631
1.31314
1.30078
1.28865
1.33633
1.3364
1.33627
1.33601
1.33548
1.33482
1.33434
1.33376
1.3331
1.33249
1.33189
1.33126
1.33064
1.33005
1.32947
1.32889
1.32833
1.32779
1.32727
1.32677
1.32628
1.32581
1.32537
1.32494
1.32454
1.32415
1.32378
1.32344
1.32311
1.3228
1.32251
1.32223
1.32198
1.32174
1.32152
1.32132
1.32113
1.32096
1.32081
1.32067
1.32055
1.32044
1.32035
1.32028
1.32022
1.32018
1.32015
1.32014
1.32014
1.32016
1.32019
1.32025
1.32031
1.3204
1.3205
1.32062
1.32076
1.32091
1.32109
1.32128
1.3215
1.32173
1.32199
1.32226
1.32256
1.32288
1.32323
1.3236
1.32399
1.32441
1.32485
1.32532
1.32582
1.32634
1.32689
1.32747
1.32808
1.32871
1.32938
1.33007
1.33078
1.33153
1.3323
1.33309
1.33391
1.33476
1.33562
1.33651
1.33742
1.33834
1.33928
1.34023
1.34119
1.34217
1.34314
1.34413
1.34511
1.34609
1.34707
1.34804
1.349
1.34995
1.35088
1.3518
1.3527
1.35357
1.35442
1.35524
1.35604
1.3568
1.35753
1.35823
1.3589
1.35953
1.36013
1.36069
1.36121
1.36171
1.36216
1.36259
1.36298
1.36334
1.36368
1.36398
1.36426
1.36451
1.36474
1.36494
1.36513
1.3653
1.36545
1.36558
1.3657
1.36581
1.3659
1.36598
1.36606
1.36612
1.36618
1.36623
1.36627
1.36631
1.36634
1.36637
1.36639
1.36642
1.36644
1.36645
1.36647
1.36648
1.36649
1.36651
1.36652
1.36652
1.36653
1.36654
1.36655
1.36655
1.36656
1.36657
1.36657
1.36658
1.36658
1.36659
1.3666
1.3666
1.36661
1.36661
1.36662
1.36662
1.36663
1.36663
1.36664
1.36664
1.36665
1.36665
1.36666
1.36666
1.36667
1.36667
1.36668
1.36668
1.36669
1.36669
1.3667
1.3667
1.36671
1.36672
1.36672
1.36673
1.36673
1.36674
1.36675
1.36675
1.36676
1.36677
1.36678
1.36679
1.3668
1.36681
1.36682
1.36683
1.36684
1.36685
1.36686
1.36688
1.36689
1.36691
1.36692
1.36694
1.36695
1.36697
1.36699
1.367
1.36702
1.36704
1.36706
1.36707
1.36709
1.36711
1.36713
1.36715
1.36716
1.36718
1.3672
1.36721
1.36722
1.36724
1.36725
1.36726
1.36726
1.36727
1.36727
1.36727
1.36726
1.36725
1.36724
1.36723
1.36721
1.36718
1.36715
1.36712
1.36708
1.36704
1.36699
1.36694
1.36688
1.36682
1.36675
1.36667
1.36659
1.36651
1.36641
1.36632
1.36622
1.36611
1.366
1.36589
1.36577
1.36565
1.36552
1.36539
1.36526
1.36512
1.36498
1.36483
1.36468
1.36452
1.36436
1.36419
1.36402
1.36384
1.36365
1.36345
1.36324
1.36302
1.36279
1.36254
1.36228
1.362
1.3617
1.36138
1.36104
1.36067
1.36028
1.35986
1.35941
1.35893
1.35843
1.35789
1.35732
1.35672
1.35608
1.35542
1.35473
1.354
1.35326
1.35248
1.35168
1.35086
1.35002
1.34916
1.34829
1.34741
1.34651
1.34561
1.3447
1.34379
1.34287
1.34196
1.34105
1.34014
1.33924
1.33835
1.33746
1.33659
1.33572
1.33487
1.33403
1.33321
1.3324
1.3316
1.33082
1.33005
1.3293
1.32857
1.32786
1.32716
1.32647
1.32581
1.32515
1.32452
1.3239
1.3233
1.32271
1.32214
1.32158
1.32104
1.32052
1.32001
1.31951
1.31903
1.31856
1.3181
1.31766
1.31723
1.31682
1.31641
1.31602
1.31565
1.31528
1.31492
1.31458
1.31425
1.31393
1.31362
1.31332
1.31303
1.31275
1.31249
1.31223
1.31198
1.31174
1.31151
1.31129
1.31108
1.31088
1.31069
1.31051
1.31033
1.31016
1.31001
1.30986
1.30972
1.30958
1.30946
1.30934
1.30924
1.30913
1.30904
1.30897
1.3089
1.30879
1.30876
1.30877
1.30866
1.30853
1.3087
1.30877
1.30827
1.30829
1.30917
1.30856
1.30687
1.30851
1.31016
1.30543
1.30338
1.30874
1.30938
1.33711
1.3368
1.33665
1.33628
1.33554
1.33498
1.33451
1.33379
1.33313
1.33255
1.33191
1.33125
1.33065
1.33004
1.32944
1.32886
1.32831
1.32776
1.32723
1.32673
1.32624
1.32577
1.32533
1.3249
1.32449
1.32411
1.32374
1.3234
1.32307
1.32276
1.32247
1.3222
1.32194
1.32171
1.32149
1.32128
1.3211
1.32093
1.32078
1.32064
1.32052
1.32041
1.32032
1.32025
1.32019
1.32015
1.32012
1.32011
1.32011
1.32013
1.32016
1.32021
1.32028
1.32036
1.32046
1.32058
1.32072
1.32087
1.32104
1.32124
1.32145
1.32168
1.32193
1.3222
1.3225
1.32282
1.32316
1.32353
1.32391
1.32433
1.32477
1.32524
1.32573
1.32625
1.3268
1.32737
1.32797
1.32861
1.32926
1.32995
1.33067
1.33141
1.33218
1.33297
1.33379
1.33463
1.3355
1.33639
1.33729
1.33822
1.33916
1.34011
1.34108
1.34205
1.34304
1.34402
1.34501
1.346
1.34698
1.34796
1.34893
1.34988
1.35082
1.35175
1.35265
1.35353
1.35439
1.35522
1.35602
1.3568
1.35753
1.35824
1.35891
1.35955
1.36015
1.36071
1.36124
1.36174
1.3622
1.36262
1.36302
1.36338
1.36371
1.36401
1.36429
1.36454
1.36477
1.36497
1.36516
1.36532
1.36547
1.3656
1.36572
1.36583
1.36592
1.366
1.36607
1.36613
1.36619
1.36624
1.36628
1.36632
1.36635
1.36638
1.3664
1.36642
1.36644
1.36646
1.36647
1.36649
1.3665
1.36651
1.36652
1.36653
1.36653
1.36654
1.36655
1.36656
1.36656
1.36657
1.36657
1.36658
1.36659
1.36659
1.3666
1.3666
1.36661
1.36661
1.36662
1.36662
1.36663
1.36663
1.36664
1.36664
1.36665
1.36665
1.36666
1.36666
1.36667
1.36667
1.36668
1.36668
1.36669
1.36669
1.3667
1.3667
1.36671
1.36671
1.36672
1.36673
1.36673
1.36674
1.36675
1.36675
1.36676
1.36677
1.36678
1.36678
1.36679
1.3668
1.36681
1.36682
1.36683
1.36685
1.36686
1.36687
1.36688
1.3669
1.36691
1.36693
1.36694
1.36696
1.36698
1.36699
1.36701
1.36703
1.36705
1.36706
1.36708
1.3671
1.36712
1.36714
1.36715
1.36717
1.36718
1.3672
1.36721
1.36722
1.36723
1.36724
1.36725
1.36725
1.36725
1.36725
1.36725
1.36724
1.36723
1.36721
1.36719
1.36717
1.36714
1.36711
1.36707
1.36703
1.36698
1.36692
1.36686
1.3668
1.36673
1.36666
1.36657
1.36649
1.3664
1.3663
1.3662
1.3661
1.36599
1.36587
1.36575
1.36563
1.3655
1.36537
1.36523
1.3651
1.36495
1.3648
1.36465
1.36449
1.36433
1.36416
1.36399
1.36381
1.36362
1.36342
1.36321
1.36299
1.36275
1.3625
1.36224
1.36196
1.36165
1.36133
1.36099
1.36062
1.36022
1.3598
1.35935
1.35887
1.35836
1.35781
1.35724
1.35664
1.356
1.35533
1.35463
1.35391
1.35315
1.35238
1.35157
1.35075
1.34991
1.34905
1.34818
1.34729
1.34639
1.34549
1.34458
1.34367
1.34276
1.34185
1.34094
1.34003
1.33913
1.33824
1.33736
1.33649
1.33563
1.33478
1.33395
1.33313
1.33232
1.33153
1.33075
1.32999
1.32925
1.32852
1.32781
1.32711
1.32643
1.32577
1.32513
1.3245
1.32388
1.32328
1.3227
1.32213
1.32158
1.32104
1.32052
1.32001
1.31951
1.31903
1.31857
1.31811
1.31767
1.31724
1.31683
1.31643
1.31604
1.31566
1.3153
1.31494
1.3146
1.31427
1.31395
1.31364
1.31334
1.31305
1.31277
1.3125
1.31225
1.312
1.31176
1.31153
1.31131
1.3111
1.3109
1.3107
1.31052
1.31035
1.31018
1.31002
1.30987
1.30973
1.3096
1.30947
1.30935
1.30925
1.30916
1.30906
1.30897
1.30893
1.30886
1.30876
1.30876
1.30881
1.30865
1.30856
1.30889
1.30887
1.30824
1.30871
1.30972
1.30819
1.30725
1.31063
1.30994
1.30501
1.30834
1.31087
1.33801
1.33759
1.33704
1.33639
1.33584
1.33526
1.33453
1.33384
1.33323
1.33255
1.33187
1.33124
1.33062
1.32998
1.32939
1.32881
1.32823
1.32769
1.32716
1.32665
1.32616
1.3257
1.32525
1.32482
1.32442
1.32403
1.32367
1.32332
1.323
1.32269
1.3224
1.32213
1.32188
1.32165
1.32143
1.32123
1.32104
1.32088
1.32072
1.32059
1.32047
1.32036
1.32028
1.3202
1.32014
1.3201
1.32007
1.32006
1.32006
1.32008
1.32011
1.32016
1.32023
1.32031
1.32041
1.32052
1.32066
1.32081
1.32098
1.32117
1.32138
1.3216
1.32185
1.32212
1.32241
1.32273
1.32307
1.32343
1.32381
1.32422
1.32466
1.32512
1.32561
1.32612
1.32667
1.32724
1.32784
1.32846
1.32912
1.3298
1.33051
1.33125
1.33202
1.33281
1.33363
1.33448
1.33534
1.33623
1.33714
1.33807
1.33901
1.33997
1.34094
1.34192
1.34291
1.3439
1.34489
1.34589
1.34688
1.34786
1.34884
1.3498
1.35075
1.35169
1.3526
1.35349
1.35436
1.3552
1.35601
1.35679
1.35754
1.35825
1.35893
1.35957
1.36018
1.36075
1.36128
1.36178
1.36224
1.36267
1.36307
1.36343
1.36376
1.36406
1.36434
1.36459
1.36481
1.36502
1.3652
1.36536
1.36551
1.36564
1.36575
1.36585
1.36594
1.36602
1.36609
1.36615
1.36621
1.36625
1.36629
1.36633
1.36636
1.36639
1.36641
1.36643
1.36645
1.36646
1.36648
1.36649
1.3665
1.36651
1.36652
1.36653
1.36654
1.36654
1.36655
1.36656
1.36656
1.36657
1.36658
1.36658
1.36659
1.36659
1.3666
1.3666
1.36661
1.36661
1.36662
1.36662
1.36663
1.36663
1.36664
1.36664
1.36665
1.36665
1.36666
1.36666
1.36667
1.36667
1.36668
1.36668
1.36669
1.36669
1.3667
1.3667
1.36671
1.36672
1.36672
1.36673
1.36673
1.36674
1.36675
1.36675
1.36676
1.36677
1.36677
1.36678
1.36679
1.3668
1.36681
1.36682
1.36683
1.36684
1.36685
1.36687
1.36688
1.36689
1.36691
1.36692
1.36694
1.36695
1.36697
1.36699
1.367
1.36702
1.36704
1.36706
1.36707
1.36709
1.36711
1.36712
1.36714
1.36716
1.36717
1.36719
1.3672
1.36721
1.36722
1.36723
1.36724
1.36724
1.36724
1.36724
1.36723
1.36723
1.36722
1.3672
1.36718
1.36716
1.36713
1.36709
1.36706
1.36701
1.36696
1.36691
1.36685
1.36679
1.36672
1.36664
1.36656
1.36648
1.36638
1.36629
1.36619
1.36608
1.36597
1.36585
1.36574
1.36561
1.36548
1.36535
1.36522
1.36508
1.36493
1.36479
1.36463
1.36447
1.36431
1.36414
1.36397
1.36378
1.3636
1.36339
1.36318
1.36296
1.36272
1.36247
1.36221
1.36192
1.36162
1.36129
1.36094
1.36057
1.36017
1.35974
1.35928
1.35879
1.35828
1.35773
1.35714
1.35653
1.35589
1.35521
1.35451
1.35377
1.35301
1.35223
1.35142
1.35059
1.34975
1.34888
1.34801
1.34712
1.34622
1.34531
1.34441
1.34349
1.34258
1.34167
1.34076
1.33986
1.33896
1.33808
1.3372
1.33633
1.33547
1.33463
1.3338
1.33299
1.33219
1.3314
1.33063
1.32988
1.32914
1.32842
1.32772
1.32703
1.32636
1.3257
1.32506
1.32444
1.32383
1.32324
1.32266
1.3221
1.32155
1.32102
1.3205
1.32
1.31951
1.31903
1.31857
1.31812
1.31768
1.31726
1.31685
1.31645
1.31606
1.31568
1.31532
1.31497
1.31463
1.3143
1.31398
1.31367
1.31337
1.31308
1.31281
1.31254
1.31228
1.31204
1.3118
1.31157
1.31135
1.31114
1.31094
1.31075
1.31057
1.31039
1.31023
1.31007
1.30993
1.30979
1.30965
1.30954
1.30943
1.30932
1.30923
1.30916
1.30907
1.309
1.30899
1.30896
1.30884
1.30888
1.30906
1.30889
1.30871
1.30928
1.3095
1.30855
1.30902
1.31085
1.30946
1.30777
1.31106
1.31288
1.30987
1.30954
1.33906
1.33825
1.33751
1.33676
1.33613
1.33537
1.33459
1.33394
1.33325
1.33251
1.33184
1.3312
1.33053
1.3299
1.3293
1.3287
1.32812
1.32758
1.32705
1.32654
1.32605
1.32558
1.32514
1.32471
1.32431
1.32393
1.32356
1.32322
1.3229
1.32259
1.32231
1.32204
1.32179
1.32156
1.32135
1.32115
1.32097
1.3208
1.32065
1.32052
1.3204
1.3203
1.32021
1.32013
1.32008
1.32003
1.32001
1.31999
1.31999
1.32001
1.32004
1.32009
1.32016
1.32024
1.32033
1.32045
1.32058
1.32073
1.32089
1.32108
1.32128
1.32151
1.32175
1.32202
1.3223
1.32262
1.32295
1.3233
1.32368
1.32409
1.32452
1.32497
1.32546
1.32597
1.32651
1.32707
1.32767
1.32829
1.32894
1.32962
1.33033
1.33107
1.33183
1.33262
1.33344
1.33428
1.33515
1.33604
1.33695
1.33788
1.33883
1.33979
1.34076
1.34175
1.34275
1.34374
1.34475
1.34575
1.34675
1.34775
1.34873
1.34971
1.35067
1.35162
1.35254
1.35344
1.35432
1.35517
1.356
1.35679
1.35755
1.35827
1.35896
1.35961
1.36022
1.3608
1.36133
1.36184
1.3623
1.36273
1.36312
1.36349
1.36382
1.36412
1.36439
1.36464
1.36487
1.36506
1.36525
1.36541
1.36555
1.36567
1.36579
1.36589
1.36597
1.36605
1.36612
1.36617
1.36623
1.36627
1.36631
1.36634
1.36637
1.3664
1.36642
1.36644
1.36646
1.36647
1.36648
1.3665
1.36651
1.36652
1.36653
1.36653
1.36654
1.36655
1.36655
1.36656
1.36657
1.36657
1.36658
1.36658
1.36659
1.36659
1.3666
1.36661
1.36661
1.36662
1.36662
1.36663
1.36663
1.36664
1.36664
1.36665
1.36665
1.36666
1.36666
1.36667
1.36667
1.36668
1.36668
1.36669
1.36669
1.3667
1.3667
1.36671
1.36671
1.36672
1.36672
1.36673
1.36673
1.36674
1.36675
1.36675
1.36676
1.36677
1.36677
1.36678
1.36679
1.3668
1.36681
1.36682
1.36683
1.36684
1.36685
1.36686
1.36688
1.36689
1.3669
1.36692
1.36693
1.36695
1.36696
1.36698
1.367
1.36701
1.36703
1.36705
1.36706
1.36708
1.3671
1.36712
1.36713
1.36715
1.36716
1.36718
1.36719
1.3672
1.36721
1.36722
1.36723
1.36723
1.36723
1.36723
1.36722
1.36722
1.3672
1.36719
1.36717
1.36714
1.36712
1.36708
1.36704
1.367
1.36695
1.3669
1.36684
1.36677
1.3667
1.36663
1.36655
1.36646
1.36637
1.36627
1.36617
1.36607
1.36596
1.36584
1.36572
1.3656
1.36547
1.36534
1.3652
1.36506
1.36492
1.36477
1.36462
1.36446
1.3643
1.36413
1.36396
1.36377
1.36358
1.36338
1.36317
1.36294
1.3627
1.36245
1.36218
1.36189
1.36158
1.36125
1.3609
1.36052
1.36011
1.35967
1.35921
1.35871
1.35818
1.35762
1.35703
1.3564
1.35575
1.35506
1.35434
1.3536
1.35283
1.35204
1.35122
1.35038
1.34953
1.34866
1.34778
1.34689
1.34599
1.34508
1.34417
1.34325
1.34234
1.34143
1.34052
1.33962
1.33873
1.33784
1.33697
1.3361
1.33525
1.33442
1.33359
1.33279
1.33199
1.33122
1.33045
1.32971
1.32898
1.32827
1.32757
1.3269
1.32624
1.32559
1.32496
1.32435
1.32375
1.32316
1.3226
1.32204
1.3215
1.32098
1.32047
1.31997
1.31949
1.31902
1.31856
1.31812
1.31769
1.31727
1.31686
1.31647
1.31609
1.31572
1.31536
1.31501
1.31467
1.31434
1.31403
1.31372
1.31343
1.31314
1.31287
1.3126
1.31235
1.3121
1.31187
1.31164
1.31143
1.31122
1.31102
1.31083
1.31065
1.31048
1.31032
1.31017
1.31003
1.30989
1.30977
1.30965
1.30955
1.30946
1.30937
1.30931
1.30927
1.3092
1.30915
1.30921
1.30921
1.3091
1.30925
1.30951
1.30931
1.30928
1.31012
1.31021
1.30938
1.31061
1.3121
1.31071
1.31093
1.31347
1.31373
1.31438
1.34008
1.33883
1.338
1.33718
1.33629
1.33546
1.33472
1.33397
1.33317
1.33246
1.33178
1.33107
1.3304
1.32977
1.32915
1.32855
1.32797
1.32742
1.32689
1.32638
1.3259
1.32543
1.32499
1.32457
1.32417
1.32379
1.32343
1.32309
1.32277
1.32247
1.32219
1.32193
1.32168
1.32145
1.32124
1.32105
1.32087
1.32071
1.32056
1.32043
1.32031
1.32021
1.32012
1.32005
1.31999
1.31995
1.31992
1.31991
1.31991
1.31993
1.31996
1.32001
1.32007
1.32015
1.32024
1.32035
1.32048
1.32063
1.32079
1.32097
1.32117
1.32139
1.32163
1.32189
1.32218
1.32248
1.3228
1.32316
1.32353
1.32393
1.32435
1.32481
1.32528
1.32578
1.32632
1.32688
1.32747
1.32809
1.32873
1.32941
1.33011
1.33085
1.33161
1.3324
1.33322
1.33406
1.33493
1.33582
1.33673
1.33766
1.33861
1.33958
1.34056
1.34155
1.34255
1.34356
1.34457
1.34559
1.3466
1.3476
1.3486
1.34959
1.35056
1.35152
1.35246
1.35338
1.35427
1.35514
1.35598
1.35678
1.35755
1.35828
1.35898
1.35964
1.36026
1.36085
1.36139
1.3619
1.36236
1.3628
1.36319
1.36355
1.36389
1.36419
1.36446
1.3647
1.36493
1.36512
1.3653
1.36546
1.36559
1.36572
1.36583
1.36592
1.36601
1.36608
1.36614
1.3662
1.36625
1.36629
1.36633
1.36636
1.36639
1.36641
1.36643
1.36645
1.36647
1.36648
1.36649
1.3665
1.36651
1.36652
1.36653
1.36654
1.36654
1.36655
1.36656
1.36656
1.36657
1.36658
1.36658
1.36659
1.36659
1.3666
1.3666
1.36661
1.36661
1.36662
1.36662
1.36663
1.36663
1.36664
1.36665
1.36665
1.36666
1.36666
1.36667
1.36667
1.36668
1.36668
1.36668
1.36669
1.36669
1.3667
1.3667
1.36671
1.36671
1.36672
1.36672
1.36673
1.36674
1.36674
1.36675
1.36675
1.36676
1.36677
1.36678
1.36678
1.36679
1.3668
1.36681
1.36682
1.36683
1.36684
1.36685
1.36686
1.36687
1.36689
1.3669
1.36691
1.36693
1.36694
1.36696
1.36698
1.36699
1.36701
1.36702
1.36704
1.36706
1.36708
1.36709
1.36711
1.36712
1.36714
1.36715
1.36717
1.36718
1.36719
1.3672
1.36721
1.36722
1.36722
1.36722
1.36722
1.36721
1.3672
1.36719
1.36718
1.36716
1.36713
1.3671
1.36707
1.36703
1.36699
1.36694
1.36689
1.36683
1.36676
1.36669
1.36662
1.36653
1.36645
1.36636
1.36626
1.36616
1.36605
1.36594
1.36583
1.36571
1.36559
1.36546
1.36533
1.36519
1.36506
1.36491
1.36477
1.36461
1.36446
1.3643
1.36413
1.36395
1.36377
1.36357
1.36337
1.36316
1.36293
1.36269
1.36244
1.36216
1.36187
1.36156
1.36122
1.36086
1.36047
1.36005
1.3596
1.35913
1.35862
1.35808
1.3575
1.35689
1.35625
1.35558
1.35488
1.35415
1.35339
1.35261
1.3518
1.35098
1.35013
1.34927
1.34839
1.3475
1.3466
1.3457
1.34479
1.34387
1.34296
1.34204
1.34113
1.34022
1.33932
1.33843
1.33755
1.33668
1.33582
1.33497
1.33414
1.33332
1.33252
1.33174
1.33097
1.33022
1.32949
1.32877
1.32807
1.32739
1.32672
1.32607
1.32544
1.32482
1.32421
1.32363
1.32306
1.3225
1.32196
1.32143
1.32092
1.32042
1.31994
1.31946
1.319
1.31856
1.31812
1.3177
1.31729
1.31689
1.3165
1.31613
1.31576
1.31541
1.31506
1.31473
1.31441
1.3141
1.3138
1.31351
1.31323
1.31296
1.3127
1.31245
1.31221
1.31197
1.31175
1.31154
1.31134
1.31114
1.31096
1.31078
1.31062
1.31046
1.31032
1.31018
1.31005
1.30994
1.30983
1.30974
1.30967
1.3096
1.30953
1.3095
1.30951
1.30946
1.30945
1.3096
1.30966
1.30955
1.30983
1.3103
1.31006
1.31008
1.31134
1.31159
1.31072
1.31217
1.31429
1.31372
1.31373
1.31653
1.31857
1.34091
1.33942
1.33843
1.33743
1.33645
1.33558
1.33475
1.3339
1.3331
1.33238
1.33163
1.33091
1.33025
1.3296
1.32896
1.32836
1.32778
1.32722
1.32669
1.32619
1.3257
1.32524
1.3248
1.32439
1.32399
1.32362
1.32327
1.32293
1.32262
1.32232
1.32205
1.32179
1.32155
1.32132
1.32112
1.32093
1.32075
1.32059
1.32045
1.32032
1.32021
1.32011
1.32002
1.31995
1.3199
1.31985
1.31983
1.31981
1.31982
1.31983
1.31986
1.31991
1.31997
1.32005
1.32014
1.32025
1.32037
1.32051
1.32067
1.32085
1.32105
1.32126
1.32149
1.32175
1.32203
1.32232
1.32264
1.32299
1.32335
1.32375
1.32417
1.32461
1.32508
1.32558
1.3261
1.32665
1.32724
1.32785
1.32849
1.32916
1.32986
1.33059
1.33135
1.33214
1.33295
1.3338
1.33466
1.33555
1.33647
1.33741
1.33836
1.33933
1.34032
1.34132
1.34233
1.34335
1.34437
1.34539
1.34641
1.34743
1.34844
1.34945
1.35044
1.35141
1.35236
1.3533
1.35421
1.35509
1.35594
1.35676
1.35754
1.35829
1.359
1.35968
1.36031
1.3609
1.36145
1.36196
1.36243
1.36287
1.36327
1.36363
1.36396
1.36426
1.36453
1.36477
1.36499
1.36518
1.36535
1.36551
1.36564
1.36576
1.36587
1.36596
1.36604
1.36611
1.36617
1.36623
1.36627
1.36631
1.36635
1.36638
1.3664
1.36643
1.36645
1.36646
1.36648
1.36649
1.3665
1.36651
1.36652
1.36653
1.36654
1.36654
1.36655
1.36656
1.36656
1.36657
1.36657
1.36658
1.36658
1.36659
1.3666
1.3666
1.36661
1.36661
1.36662
1.36662
1.36663
1.36663
1.36664
1.36664
1.36665
1.36665
1.36666
1.36666
1.36667
1.36667
1.36668
1.36668
1.36669
1.36669
1.3667
1.3667
1.36671
1.36671
1.36672
1.36672
1.36673
1.36673
1.36674
1.36675
1.36675
1.36676
1.36676
1.36677
1.36678
1.36679
1.36679
1.3668
1.36681
1.36682
1.36683
1.36684
1.36685
1.36686
1.36687
1.36689
1.3669
1.36691
1.36693
1.36694
1.36696
1.36697
1.36699
1.367
1.36702
1.36704
1.36705
1.36707
1.36709
1.3671
1.36712
1.36713
1.36715
1.36716
1.36717
1.36718
1.36719
1.3672
1.36721
1.36721
1.36721
1.36721
1.3672
1.36719
1.36718
1.36717
1.36715
1.36712
1.36709
1.36706
1.36702
1.36698
1.36693
1.36687
1.36681
1.36675
1.36668
1.3666
1.36652
1.36643
1.36634
1.36625
1.36615
1.36604
1.36593
1.36582
1.3657
1.36558
1.36545
1.36532
1.36519
1.36505
1.36491
1.36476
1.36461
1.36446
1.36429
1.36413
1.36395
1.36377
1.36358
1.36338
1.36316
1.36293
1.36269
1.36243
1.36215
1.36185
1.36153
1.36119
1.36082
1.36042
1.35999
1.35953
1.35904
1.35851
1.35796
1.35736
1.35674
1.35608
1.35539
1.35467
1.35393
1.35316
1.35236
1.35154
1.3507
1.34984
1.34896
1.34808
1.34718
1.34628
1.34536
1.34445
1.34353
1.34261
1.3417
1.34078
1.33987
1.33898
1.33809
1.3372
1.33634
1.33548
1.33464
1.33382
1.333
1.33221
1.33144
1.33068
1.32993
1.32921
1.32851
1.32782
1.32715
1.3265
1.32586
1.32524
1.32464
1.32405
1.32348
1.32292
1.32238
1.32185
1.32134
1.32084
1.32035
1.31988
1.31942
1.31897
1.31854
1.31812
1.3177
1.3173
1.31692
1.31654
1.31617
1.31582
1.31547
1.31514
1.31481
1.3145
1.31419
1.3139
1.31362
1.31334
1.31308
1.31282
1.31258
1.31234
1.31211
1.3119
1.31169
1.31149
1.31131
1.31113
1.31096
1.3108
1.31065
1.31051
1.31039
1.31027
1.31017
1.31008
1.30999
1.30992
1.30989
1.30985
1.30981
1.30984
1.30991
1.30989
1.30995
1.31021
1.31032
1.31027
1.31075
1.31132
1.31113
1.31151
1.31291
1.31319
1.3131
1.31468
1.31622
1.31705
1.31836
1.31995
1.3415
1.33986
1.33872
1.33758
1.33656
1.33562
1.33466
1.3338
1.333
1.3322
1.33143
1.33072
1.33003
1.32936
1.32872
1.32812
1.32754
1.32699
1.32646
1.32596
1.32548
1.32502
1.32459
1.32418
1.32379
1.32342
1.32308
1.32275
1.32244
1.32215
1.32188
1.32163
1.32139
1.32118
1.32097
1.32079
1.32062
1.32046
1.32032
1.3202
1.32009
1.31999
1.31991
1.31984
1.31979
1.31975
1.31972
1.31971
1.31971
1.31972
1.31975
1.3198
1.31986
1.31993
1.32002
1.32012
1.32025
1.32038
1.32054
1.32071
1.3209
1.32111
1.32134
1.32159
1.32186
1.32215
1.32247
1.3228
1.32316
1.32355
1.32395
1.32439
1.32485
1.32534
1.32586
1.32641
1.32698
1.32758
1.32822
1.32889
1.32958
1.3303
1.33106
1.33184
1.33266
1.3335
1.33436
1.33526
1.33618
1.33711
1.33807
1.33905
1.34004
1.34105
1.34207
1.34309
1.34412
1.34516
1.34619
1.34722
1.34825
1.34927
1.35027
1.35127
1.35224
1.35319
1.35412
1.35502
1.35589
1.35673
1.35753
1.35829
1.35902
1.3597
1.36035
1.36095
1.36151
1.36203
1.3625
1.36294
1.36334
1.36371
1.36404
1.36433
1.3646
1.36484
1.36505
1.36524
1.36542
1.36556
1.36569
1.36581
1.36591
1.366
1.36608
1.36615
1.3662
1.36625
1.3663
1.36634
1.36637
1.3664
1.36642
1.36644
1.36646
1.36647
1.36649
1.3665
1.36651
1.36652
1.36653
1.36654
1.36654
1.36655
1.36656
1.36656
1.36657
1.36657
1.36658
1.36658
1.36659
1.36659
1.3666
1.36661
1.36661
1.36662
1.36662
1.36663
1.36663
1.36664
1.36664
1.36665
1.36665
1.36666
1.36666
1.36667
1.36667
1.36668
1.36668