# vtk DataFile Version 2.0
LBE two cylinders
ASCII
DATASET STRUCTURED_POINTS
DIMENSIONS 400 100 1
ASPECT_RATIO 1 1 1
ORIGIN 0 0 0
POINT_DATA 40000
SCALARS rho double 1
LOOKUP_TABLE default
1.33848
1.33574
1.33601
1.33602
1.33507
1.33454
1.3342
1.33351
1.33287
1.33232
1.33171
1.33107
1.33048
1.3299
1.3293
1.32873
1.32818
1.32764
1.32712
1.32662
1.32614
1.32567
1.32523
1.3248
1.3244
1.32401
1.32365
1.3233
1.32297
1.32266
1.32238
1.3221
1.32185
1.32162
1.3214
1.3212
1.32101
1.32085
1.3207
1.32056
1.32045
1.32034
1.32026
1.32019
1.32013
1.32009
1.32007
1.32006
1.32007
1.3201
1.32014
1.32019
1.32027
1.32036
1.32046
1.32059
1.32073
1.32089
1.32108
1.32128
1.3215
1.32174
1.322
1.32229
1.32259
1.32292
1.32328
1.32366
1.32406
1.32449
1.32494
1.32543
1.32593
1.32647
1.32703
1.32762
1.32824
1.32888
1.32956
1.33026
1.33099
1.33174
1.33252
1.33332
1.33415
1.335
1.33587
1.33676
1.33767
1.3386
1.33954
1.34049
1.34145
1.34242
1.34339
1.34436
1.34534
1.34631
1.34728
1.34823
1.34918
1.35011
1.35103
1.35193
1.35281
1.35366
1.35449
1.35529
1.35606
1.3568
1.35751
1.35819
1.35883
1.35944
1.36001
1.36055
1.36106
1.36153
1.36196
1.36237
1.36274
1.36308
1.3634
1.36368
1.36394
1.36418
1.36439
1.36458
1.36475
1.36491
1.36504
1.36516
1.36527
1.36536
1.36544
1.36551
1.36557
1.36563
1.36567
1.36571
1.36574
1.36577
1.36579
1.36581
1.36583
1.36584
1.36585
1.36586
1.36586
1.36587
1.36587
1.36588
1.36588
1.36588
1.36588
1.36589
1.36589
1.36589
1.36589
1.3659
1.3659
1.3659
1.36591
1.36591
1.36592
1.36592
1.36593
1.36593
1.36594
1.36595
1.36596
1.36596
1.36597
1.36598
1.36599
1.366
1.36601
1.36601
1.36602
1.36603
1.36604
1.36605
1.36606
1.36607
1.36608
1.36609
1.3661
1.36611
1.36612
1.36613
1.36614
1.36615
1.36616
1.36617
1.36618
1.36619
1.3662
1.36621
1.36622
1.36623
1.36624
1.36625
1.36626
1.36627
1.36628
1.36629
1.36631
1.36632
1.36633
1.36634
1.36636
1.36637
1.36638
1.3664
1.36641
1.36643
1.36644
1.36646
1.36647
1.36648
1.3665
1.36651
1.36653
1.36654
1.36655
1.36656
1.36657
1.36658
1.36659
1.36659
1.3666
1.3666
1.3666
1.36659
1.36659
1.36658
1.36657
1.36655
1.36653
1.36651
1.36649
1.36645
1.36642
1.36638
1.36634
1.36629
1.36624
1.36618
1.36612
1.36606
1.36599
1.36591
1.36583
1.36575
1.36567
1.36558
1.36548
1.36539
1.36529
1.36518
1.36507
1.36496
1.36485
1.36473
1.36461
1.36449
1.36436
1.36423
1.36409
1.36395
1.3638
1.36364
1.36347
1.3633
1.36311
1.36292
1.36271
1.36248
1.36224
1.36198
1.3617
1.3614
1.36108
1.36073
1.36036
1.35995
1.35952
1.35906
1.35856
1.35804
1.35748
1.35688
1.35626
1.3556
1.35491
1.3542
1.35345
1.35267
1.35188
1.35105
1.35021
1.34935
1.34847
1.34758
1.34668
1.34577
1.34485
1.34393
1.34301
1.34209
1.34116
1.34025
1.33934
1.33843
1.33753
1.33665
1.33577
1.33491
1.33406
1.33322
1.3324
1.33159
1.3308
1.33003
1.32927
1.32853
1.3278
1.3271
1.3264
1.32573
1.32507
1.32443
1.32381
1.3232
1.32261
1.32203
1.32148
1.32093
1.3204
1.31989
1.31939
1.31891
1.31844
1.31798
1.31754
1.31711
1.31669
1.31629
1.3159
1.31552
1.31515
1.3148
1.31445
1.31412
1.3138
1.31349
1.31319
1.31291
1.31263
1.31236
1.31211
1.31186
1.31163
1.3114
1.31118
1.31098
1.31078
1.31059
1.31042
1.31025
1.31009
1.30994
1.3098
1.30967
1.30955
1.30943
1.30933
1.30924
1.30916
1.30908
1.30903
1.30899
1.30893
1.30891
1.30894
1.30891
1.30882
1.30897
1.30915
1.30882
1.30871
1.30966
1.30956
1.30752
1.3085
1.3124
1.3078
1.29909
1.30963
1.3187
1.3366
1.33673
1.33623
1.33555
1.33523
1.33474
1.33413
1.33354
1.33298
1.33236
1.33174
1.33114
1.33054
1.32994
1.32936
1.32879
1.32823
1.32769
1.32717
1.32667
1.32618
1.32572
1.32527
1.32484
1.32444
1.32405
1.32368
1.32334
1.32301
1.3227
1.32241
1.32214
1.32188
1.32165
1.32143
1.32123
1.32105
1.32088
1.32073
1.32059
1.32047
1.32037
1.32029
1.32021
1.32016
1.32012
1.3201
1.32009
1.3201
1.32012
1.32016
1.32021
1.32029
1.32038
1.32048
1.32061
1.32075
1.32091
1.32109
1.32129
1.32151
1.32175
1.32202
1.3223
1.32261
1.32293
1.32329
1.32367
1.32407
1.32449
1.32495
1.32543
1.32593
1.32647
1.32702
1.32761
1.32823
1.32887
1.32954
1.33024
1.33096
1.33172
1.33249
1.33329
1.33412
1.33497
1.33583
1.33672
1.33763
1.33855
1.33949
1.34044
1.34139
1.34236
1.34333
1.3443
1.34528
1.34625
1.34721
1.34817
1.34912
1.35005
1.35097
1.35186
1.35274
1.3536
1.35443
1.35523
1.356
1.35674
1.35746
1.35813
1.35878
1.35939
1.35996
1.3605
1.36101
1.36148
1.36192
1.36233
1.36271
1.36305
1.36337
1.36366
1.36392
1.36416
1.36437
1.36456
1.36474
1.36489
1.36503
1.36515
1.36526
1.36535
1.36543
1.3655
1.36557
1.36562
1.36567
1.3657
1.36574
1.36576
1.36579
1.36581
1.36582
1.36584
1.36585
1.36585
1.36586
1.36587
1.36587
1.36587
1.36588
1.36588
1.36588
1.36588
1.36589
1.36589
1.36589
1.36589
1.3659
1.3659
1.3659
1.36591
1.36591
1.36592
1.36592
1.36593
1.36594
1.36594
1.36595
1.36596
1.36597
1.36597
1.36598
1.36599
1.366
1.36601
1.36602
1.36603
1.36604
1.36605
1.36606
1.36606
1.36607
1.36608
1.36609
1.3661
1.36611
1.36612
1.36613
1.36614
1.36615
1.36616
1.36617
1.36618
1.36619
1.3662
1.36621
1.36622
1.36623
1.36624
1.36625
1.36626
1.36627
1.36628
1.36629
1.36631
1.36632
1.36633
1.36634
1.36636
1.36637
1.36638
1.3664
1.36641
1.36642
1.36644
1.36645
1.36647
1.36648
1.36649
1.36651
1.36652
1.36653
1.36654
1.36655
1.36656
1.36657
1.36657
1.36657
1.36657
1.36657
1.36657
1.36656
1.36656
1.36654
1.36653
1.36651
1.36649
1.36646
1.36643
1.36639
1.36636
1.36631
1.36626
1.36621
1.36616
1.36609
1.36603
1.36596
1.36588
1.36581
1.36572
1.36564
1.36555
1.36545
1.36535
1.36525
1.36515
1.36504
1.36493
1.36481
1.36469
1.36457
1.36444
1.36431
1.36418
1.36404
1.36389
1.36374
1.36358
1.36341
1.36324
1.36305
1.36285
1.36264
1.36241
1.36217
1.36191
1.36163
1.36132
1.361
1.36065
1.36027
1.35987
1.35944
1.35898
1.35848
1.35796
1.3574
1.35681
1.35619
1.35554
1.35485
1.35414
1.35339
1.35263
1.35183
1.35101
1.35018
1.34932
1.34845
1.34756
1.34667
1.34576
1.34485
1.34393
1.34301
1.34209
1.34118
1.34026
1.33936
1.33845
1.33756
1.33668
1.33581
1.33495
1.3341
1.33326
1.33244
1.33164
1.33085
1.33008
1.32932
1.32858
1.32785
1.32715
1.32646
1.32578
1.32512
1.32448
1.32386
1.32325
1.32266
1.32208
1.32152
1.32098
1.32045
1.31993
1.31943
1.31895
1.31848
1.31802
1.31757
1.31714
1.31672
1.31632
1.31593
1.31555
1.31518
1.31482
1.31448
1.31414
1.31382
1.31351
1.31321
1.31292
1.31264
1.31238
1.31212
1.31187
1.31163
1.3114
1.31119
1.31098
1.31078
1.31059
1.31041
1.31024
1.31007
1.30992
1.30978
1.30964
1.30952
1.3094
1.3093
1.3092
1.30911
1.30904
1.30896
1.30891
1.30887
1.30882
1.30877
1.3088
1.30881
1.30869
1.3087
1.30896
1.3088
1.30832
1.30875
1.30943
1.30773
1.30626
1.30892
1.30838
1.29852
1.29306
1.33593
1.33691
1.33618
1.33546
1.33543
1.33485
1.33412
1.33363
1.33307
1.33239
1.33178
1.3312
1.33057
1.32997
1.32939
1.32882
1.32826
1.32772
1.3272
1.32669
1.3262
1.32574
1.32529
1.32486
1.32446
1.32407
1.3237
1.32335
1.32302
1.32272
1.32242
1.32215
1.3219
1.32166
1.32144
1.32124
1.32106
1.32089
1.32074
1.3206
1.32049
1.32038
1.3203
1.32023
1.32017
1.32013
1.32011
1.3201
1.3201
1.32013
1.32017
1.32022
1.32029
1.32038
1.32049
1.32061
1.32075
1.32091
1.32109
1.32129
1.32151
1.32175
1.32201
1.32229
1.3226
1.32292
1.32327
1.32365
1.32405
1.32447
1.32492
1.3254
1.3259
1.32643
1.32699
1.32758
1.32819
1.32883
1.3295
1.33019
1.33091
1.33166
1.33244
1.33324
1.33406
1.3349
1.33577
1.33666
1.33756
1.33848
1.33942
1.34037
1.34132
1.34229
1.34326
1.34424
1.34521
1.34618
1.34715
1.34811
1.34905
1.34999
1.35091
1.35181
1.35269
1.35355
1.35438
1.35519
1.35596
1.35671
1.35742
1.3581
1.35875
1.35937
1.35994
1.36049
1.361
1.36147
1.36191
1.36232
1.3627
1.36305
1.36336
1.36365
1.36392
1.36416
1.36437
1.36456
1.36474
1.36489
1.36503
1.36515
1.36526
1.36535
1.36543
1.36551
1.36557
1.36562
1.36567
1.3657
1.36574
1.36576
1.36579
1.36581
1.36582
1.36583
1.36584
1.36585
1.36586
1.36586
1.36587
1.36587
1.36587
1.36588
1.36588
1.36588
1.36588
1.36588
1.36589
1.36589
1.36589
1.3659
1.3659
1.3659
1.36591
1.36591
1.36592
1.36593
1.36593
1.36594
1.36595
1.36595
1.36596
1.36597
1.36598
1.36599
1.36599
1.366
1.36601
1.36602
1.36603
1.36604
1.36605
1.36606
1.36607
1.36608
1.36609
1.3661
1.36611
1.36611
1.36612
1.36613
1.36614
1.36615
1.36616
1.36617
1.36618
1.36619
1.3662
1.36621
1.36622
1.36623
1.36624
1.36625
1.36626
1.36627
1.36628
1.36629
1.3663
1.36632
1.36633
1.36634
1.36635
1.36637
1.36638
1.36639
1.36641
1.36642
1.36644
1.36645
1.36646
1.36648
1.36649
1.3665
1.36651
1.36652
1.36653
1.36654
1.36654
1.36655
1.36655
1.36655
1.36655
1.36655
1.36654
1.36653
1.36652
1.36651
1.36649
1.36646
1.36644
1.36641
1.36637
1.36633
1.36629
1.36624
1.36619
1.36613
1.36607
1.36601
1.36594
1.36586
1.36578
1.3657
1.36561
1.36552
1.36542
1.36532
1.36522
1.36512
1.36501
1.36489
1.36478
1.36466
1.36453
1.3644
1.36427
1.36413
1.36399
1.36384
1.36369
1.36353
1.36336
1.36318
1.36299
1.36279
1.36258
1.36235
1.36211
1.36184
1.36156
1.36126
1.36093
1.36059
1.36021
1.35981
1.35938
1.35891
1.35842
1.3579
1.35734
1.35675
1.35613
1.35548
1.3548
1.35409
1.35335
1.35258
1.35179
1.35097
1.35014
1.34929
1.34842
1.34753
1.34664
1.34574
1.34483
1.34392
1.343
1.34208
1.34117
1.34026
1.33935
1.33846
1.33757
1.33669
1.33582
1.33496
1.33411
1.33328
1.33246
1.33166
1.33087
1.3301
1.32934
1.3286
1.32788
1.32718
1.32649
1.32581
1.32515
1.32451
1.32389
1.32328
1.32269
1.32211
1.32155
1.32101
1.32048
1.31996
1.31946
1.31898
1.3185
1.31804
1.3176
1.31717
1.31675
1.31634
1.31595
1.31557
1.3152
1.31484
1.3145
1.31416
1.31384
1.31353
1.31322
1.31293
1.31265
1.31238
1.31212
1.31187
1.31163
1.3114
1.31118
1.31097
1.31077
1.31058
1.3104
1.31022
1.31006
1.3099
1.30976
1.30962
1.30949
1.30937
1.30926
1.30916
1.30907
1.30899
1.30891
1.30883
1.30879
1.30877
1.30867
1.30863
1.30874
1.30867
1.30838
1.30863
1.30902
1.30817
1.3076
1.30946
1.30913
1.30435
1.30635
1.31319
1.30084
1.28871
1.33635
1.33642
1.33627
1.33601
1.33547
1.3348
1.33432
1.33373
1.33306
1.33245
1.33185
1.33121
1.33059
1.33
1.3294
1.32882
1.32826
1.32772
1.32719
1.32669
1.3262
1.32573
1.32528
1.32486
1.32445
1.32406
1.32369
1.32334
1.32302
1.32271
1.32242
1.32214
1.32189
1.32165
1.32144
1.32123
1.32105
1.32088
1.32073
1.3206
1.32048
1.32038
1.32029
1.32022
1.32016
1.32012
1.3201
1.32009
1.32009
1.32012
1.32016
1.32021
1.32028
1.32037
1.32047
1.3206
1.32074
1.3209
1.32107
1.32127
1.32149
1.32172
1.32198
1.32226
1.32256
1.32289
1.32323
1.32361
1.324
1.32442
1.32487
1.32535
1.32585
1.32637
1.32693
1.32751
1.32812
1.32876
1.32942
1.33011
1.33083
1.33158
1.33235
1.33315
1.33397
1.33481
1.33568
1.33657
1.33747
1.33839
1.33933
1.34028
1.34124
1.3422
1.34318
1.34415
1.34513
1.34611
1.34707
1.34804
1.34899
1.34993
1.35085
1.35176
1.35265
1.35351
1.35435
1.35516
1.35594
1.35669
1.35741
1.3581
1.35875
1.35937
1.35995
1.3605
1.36101
1.36148
1.36193
1.36234
1.36272
1.36306
1.36338
1.36367
1.36394
1.36417
1.36439
1.36458
1.36475
1.36491
1.36504
1.36516
1.36527
1.36536
1.36544
1.36551
1.36558
1.36563
1.36567
1.36571
1.36574
1.36577
1.36579
1.36581
1.36582
1.36584
1.36585
1.36585
1.36586
1.36586
1.36587
1.36587
1.36587
1.36587
1.36588
1.36588
1.36588
1.36588
1.36588
1.36589
1.36589
1.36589
1.3659
1.3659
1.3659
1.36591
1.36592
1.36592
1.36593
1.36593
1.36594
1.36595
1.36596
1.36596
1.36597
1.36598
1.36599
1.366
1.36601
1.36602
1.36602
1.36603
1.36604
1.36605
1.36606
1.36607
1.36608
1.36609
1.3661
1.36611
1.36612
1.36612
1.36613
1.36614
1.36615
1.36616
1.36617
1.36618
1.36619
1.3662
1.36621
1.36622
1.36623
1.36624
1.36625
1.36626
1.36627
1.36628
1.36629
1.3663
1.36632
1.36633
1.36634
1.36635
1.36637
1.36638
1.36639
1.36641
1.36642
1.36643
1.36644
1.36646
1.36647
1.36648
1.36649
1.3665
1.36651
1.36652
1.36653
1.36653
1.36653
1.36653
1.36653
1.36653
1.36652
1.36651
1.3665
1.36649
1.36647
1.36645
1.36642
1.36639
1.36635
1.36631
1.36627
1.36622
1.36617
1.36611
1.36605
1.36599
1.36591
1.36584
1.36576
1.36568
1.36559
1.3655
1.3654
1.3653
1.3652
1.36509
1.36498
1.36486
1.36475
1.36462
1.3645
1.36437
1.36424
1.3641
1.36395
1.36381
1.36365
1.36349
1.36332
1.36314
1.36295
1.36275
1.36253
1.3623
1.36206
1.36179
1.36151
1.36121
1.36088
1.36053
1.36015
1.35975
1.35932
1.35886
1.35836
1.35784
1.35728
1.35669
1.35607
1.35542
1.35473
1.35402
1.35328
1.35251
1.35172
1.35091
1.35007
1.34922
1.34835
1.34747
1.34658
1.34568
1.34477
1.34386
1.34295
1.34203
1.34112
1.34021
1.33931
1.33841
1.33753
1.33665
1.33578
1.33493
1.33409
1.33326
1.33244
1.33164
1.33086
1.33009
1.32933
1.3286
1.32788
1.32717
1.32649
1.32582
1.32516
1.32452
1.3239
1.32329
1.3227
1.32213
1.32157
1.32102
1.32049
1.31998
1.31948
1.31899
1.31852
1.31806
1.31762
1.31719
1.31677
1.31636
1.31597
1.31558
1.31521
1.31486
1.31451
1.31418
1.31385
1.31354
1.31324
1.31294
1.31266
1.31239
1.31213
1.31188
1.31164
1.31141
1.31119
1.31098
1.31077
1.31058
1.3104
1.31022
1.31006
1.3099
1.30975
1.30961
1.30948
1.30936
1.30924
1.30914
1.30904
1.30895
1.30889
1.30882
1.30873
1.30869
1.30872
1.30861
1.30849
1.30867
1.30875
1.30826
1.30828
1.30917
1.30856
1.30688
1.30853
1.3102
1.30547
1.30343
1.3088
1.30944
1.33713
1.33681
1.33665
1.33627
1.33553
1.33497
1.33449
1.33377
1.3331
1.33251
1.33186
1.3312
1.3306
1.32999
1.32938
1.3288
1.32824
1.32769
1.32716
1.32665
1.32616
1.32569
1.32524
1.32482
1.32441
1.32402
1.32365
1.32331
1.32298
1.32267
1.32238
1.32211
1.32186
1.32162
1.3214
1.3212
1.32102
1.32085
1.3207
1.32057
1.32045
1.32035
1.32026
1.32019
1.32014
1.3201
1.32007
1.32006
1.32007
1.32009
1.32013
1.32018
1.32025
1.32034
1.32044
1.32056
1.3207
1.32086
1.32103
1.32123
1.32144
1.32167
1.32193
1.32221
1.3225
1.32282
1.32317
1.32354
1.32393
1.32435
1.32479
1.32526
1.32576
1.32628
1.32683
1.32741
1.32802
1.32865
1.32931
1.33
1.33072
1.33146
1.33223
1.33303
1.33385
1.33469
1.33556
1.33644
1.33735
1.33827
1.33921
1.34016
1.34113
1.3421
1.34307
1.34405
1.34504
1.34602
1.34699
1.34796
1.34892
1.34987
1.3508
1.35171
1.3526
1.35347
1.35432
1.35514
1.35593
1.35668
1.35741
1.3581
1.35876
1.35938
1.35997
1.36052
1.36104
1.36152
1.36196
1.36237
1.36275
1.3631
1.36342
1.36371
1.36397
1.36421
1.36442
1.36461
1.36478
1.36493
1.36507
1.36519
1.36529
1.36538
1.36546
1.36553
1.36559
1.36564
1.36568
1.36572
1.36575
1.36578
1.3658
1.36581
1.36583
1.36584
1.36585
1.36585
1.36586
1.36586
1.36587
1.36587
1.36587
1.36587
1.36587
1.36588
1.36588
1.36588
1.36588
1.36588
1.36589
1.36589
1.36589
1.3659
1.3659
1.36591
1.36591
1.36592
1.36592
1.36593
1.36594
1.36594
1.36595
1.36596
1.36597
1.36598
1.36598
1.36599
1.366
1.36601
1.36602
1.36603
1.36604
1.36605
1.36606
1.36606
1.36607
1.36608
1.36609
1.3661
1.36611
1.36612
1.36613
1.36613
1.36614
1.36615
1.36616
1.36617
1.36618
1.36619
1.3662
1.36621
1.36622
1.36623
1.36624
1.36625
1.36626
1.36627
1.36628
1.36629
1.3663
1.36631
1.36633
1.36634
1.36635
1.36636
1.36638
1.36639
1.3664
1.36641
1.36643
1.36644
1.36645
1.36646
1.36647
1.36648
1.36649
1.3665
1.36651
1.36651
1.36652
1.36652
1.36652
1.36651
1.36651
1.3665
1.36648
1.36647
1.36645
1.36643
1.3664
1.36637
1.36634
1.3663
1.36625
1.36621
1.36615
1.3661
1.36603
1.36597
1.3659
1.36582
1.36574
1.36566
1.36557
1.36547
1.36538
1.36528
1.36517
1.36507
1.36495
1.36484
1.36472
1.3646
1.36447
1.36434
1.36421
1.36407
1.36392
1.36378
1.36362
1.36346
1.36328
1.3631
1.36291
1.36271
1.36249
1.36226
1.36202
1.36175
1.36147
1.36116
1.36083
1.36048
1.3601
1.35969
1.35926
1.35879
1.3583
1.35777
1.3572
1.35661
1.35599
1.35533
1.35464
1.35393
1.35318
1.35241
1.35162
1.3508
1.34996
1.34911
1.34824
1.34736
1.34647
1.34557
1.34466
1.34375
1.34284
1.34192
1.34101
1.34011
1.33921
1.33832
1.33743
1.33656
1.33569
1.33484
1.33401
1.33318
1.33237
1.33158
1.3308
1.33003
1.32928
1.32855
1.32784
1.32714
1.32645
1.32579
1.32514
1.3245
1.32388
1.32328
1.32269
1.32212
1.32156
1.32102
1.3205
1.31998
1.31949
1.319
1.31853
1.31807
1.31763
1.3172
1.31678
1.31638
1.31598
1.3156
1.31523
1.31488
1.31453
1.3142
1.31387
1.31356
1.31326
1.31297
1.31268
1.31241
1.31215
1.3119
1.31166
1.31143
1.31121
1.311
1.31079
1.3106
1.31042
1.31024
1.31007
1.30992
1.30977
1.30963
1.3095
1.30938
1.30926
1.30916
1.30907
1.30898
1.3089
1.30886
1.3088
1.3087
1.30871
1.30877
1.30861
1.30853
1.30887
1.30885
1.30823
1.30871
1.30972
1.3082
1.30727
1.31067
1.30998
1.30506
1.3084
1.31093
1.33803
1.3376
1.33704
1.33638
1.33583
1.33524
1.33451
1.33381
1.3332
1.33252
1.33183
1.3312
1.33056
1.32993
1.32932
1.32874
1.32817
1.32762
1.32709
1.32658
1.32608
1.32562
1.32517
1.32474
1.32434
1.32395
1.32358
1.32324
1.32291
1.32261
1.32232
1.32205
1.3218
1.32157
1.32135
1.32115
1.32097
1.3208
1.32066
1.32052
1.32041
1.3203
1.32022
1.32015
1.32009
1.32005
1.32003
1.32002
1.32002
1.32004
1.32008
1.32013
1.3202
1.32029
1.32039
1.32051
1.32064
1.3208
1.32097
1.32116
1.32137
1.3216
1.32185
1.32213
1.32242
1.32274
1.32308
1.32344
1.32383
1.32425
1.32468
1.32515
1.32564
1.32616
1.32671
1.32728
1.32788
1.32851
1.32917
1.32986
1.33057
1.33131
1.33208
1.33288
1.33369
1.33454
1.3354
1.33629
1.3372
1.33812
1.33906
1.34002
1.34099
1.34196
1.34295
1.34393
1.34492
1.34591
1.34689
1.34787
1.34883
1.34979
1.35073
1.35165
1.35255
1.35343
1.35429
1.35512
1.35592
1.35668
1.35742
1.35812
1.35878
1.35941
1.36
1.36056
1.36108
1.36156
1.36201
1.36242
1.3628
1.36315
1.36347
1.36376
1.36402
1.36425
1.36446
1.36465
1.36482
1.36497
1.3651
1.36522
1.36532
1.36541
1.36549
1.36555
1.36561
1.36566
1.3657
1.36573
1.36576
1.36579
1.3658
1.36582
1.36583
1.36584
1.36585
1.36586
1.36586
1.36587
1.36587
1.36587
1.36587
1.36587
1.36587
1.36587
1.36588
1.36588
1.36588
1.36588
1.36588
1.36589
1.36589
1.36589
1.3659
1.3659
1.36591
1.36591
1.36592
1.36593
1.36593
1.36594
1.36595
1.36595
1.36596
1.36597
1.36598
1.36599
1.366
1.36601
1.36601
1.36602
1.36603
1.36604
1.36605
1.36606
1.36607
1.36608
1.36608
1.36609
1.3661
1.36611
1.36612
1.36613
1.36614
1.36614
1.36615
1.36616
1.36617
1.36618
1.36619
1.3662
1.36621
1.36622
1.36622
1.36623
1.36624
1.36625
1.36627
1.36628
1.36629
1.3663
1.36631
1.36632
1.36634
1.36635
1.36636
1.36637
1.36639
1.3664
1.36641
1.36642
1.36644
1.36645
1.36646
1.36647
1.36648
1.36648
1.36649
1.3665
1.3665
1.3665
1.3665
1.3665
1.36649
1.36648
1.36647
1.36645
1.36643
1.36641
1.36639
1.36635
1.36632
1.36628
1.36624
1.36619
1.36614
1.36608
1.36602
1.36595
1.36588
1.3658
1.36572
1.36564
1.36555
1.36546
1.36536
1.36526
1.36516
1.36505
1.36493
1.36482
1.3647
1.36458
1.36445
1.36432
1.36419
1.36405
1.3639
1.36376
1.3636
1.36343
1.36326
1.36308
1.36289
1.36268
1.36247
1.36223
1.36198
1.36172
1.36143
1.36112
1.36079
1.36043
1.36005
1.35963
1.35919
1.35872
1.35822
1.35768
1.35711
1.35651
1.35588
1.35521
1.35452
1.35379
1.35304
1.35227
1.35147
1.35064
1.3498
1.34895
1.34807
1.34719
1.34629
1.34539
1.34448
1.34357
1.34266
1.34175
1.34084
1.33994
1.33904
1.33815
1.33727
1.3364
1.33554
1.3347
1.33386
1.33304
1.33224
1.33145
1.33068
1.32992
1.32918
1.32845
1.32775
1.32705
1.32638
1.32572
1.32508
1.32445
1.32383
1.32324
1.32266
1.32209
1.32154
1.32101
1.32048
1.31998
1.31948
1.319
1.31854
1.31808
1.31764
1.31722
1.3168
1.3164
1.31601
1.31563
1.31526
1.31491
1.31456
1.31423
1.31391
1.3136
1.31329
1.313
1.31272
1.31245
1.31219
1.31194
1.3117
1.31147
1.31125
1.31104
1.31084
1.31065
1.31047
1.31029
1.31013
1.30997
1.30983
1.30969
1.30956
1.30944
1.30934
1.30923
1.30915
1.30908
1.309
1.30893
1.30893
1.3089
1.30879
1.30884
1.30902
1.30886
1.30868
1.30927
1.30949
1.30855
1.30902
1.31086
1.30949
1.30781
1.31111
1.31293
1.30993
1.30961
1.33907
1.33825
1.33751
1.33675
1.33612
1.33536
1.33457
1.33391
1.33322
1.33247
1.3318
1.33115
1.33048
1.32984
1.32924
1.32864
1.32806
1.32751
1.32697
1.32646
1.32597
1.32551
1.32506
1.32463
1.32423
1.32385
1.32348
1.32314
1.32282
1.32251
1.32223
1.32196
1.32171
1.32148
1.32127
1.32108
1.3209
1.32073
1.32059
1.32046
1.32034
1.32024
1.32016
1.32009
1.32003
1.31999
1.31997
1.31996
1.31996
1.31998
1.32002
1.32007
1.32014
1.32022
1.32032
1.32044
1.32057
1.32072
1.32089
1.32108
1.32129
1.32151
1.32176
1.32203
1.32232
1.32263
1.32297
1.32332
1.32371
1.32412
1.32455
1.32501
1.3255
1.32601
1.32655
1.32712
1.32772
1.32834
1.329
1.32968
1.33039
1.33113
1.3319
1.33269
1.33351
1.33435
1.33522
1.33611
1.33702
1.33794
1.33889
1.33985
1.34082
1.3418
1.34279
1.34378
1.34478
1.34578
1.34677
1.34775
1.34873
1.3497
1.35065
1.35158
1.3525
1.35339
1.35426
1.3551
1.3559
1.35668
1.35743
1.35814
1.35881
1.35945
1.36004
1.36061
1.36113
1.36162
1.36207
1.36248
1.36286
1.36321
1.36353
1.36381
1.36407
1.36431
1.36452
1.3647
1.36487
1.36501
1.36514
1.36525
1.36535
1.36544
1.36551
1.36558
1.36563
1.36568
1.36572
1.36575
1.36578
1.3658
1.36582
1.36583
1.36584
1.36585
1.36586
1.36586
1.36587
1.36587
1.36587
1.36587
1.36587
1.36587
1.36587
1.36587
1.36587
1.36588
1.36588
1.36588
1.36588
1.36588
1.36589
1.36589
1.3659
1.3659
1.3659
1.36591
1.36592
1.36592
1.36593
1.36594
1.36594
1.36595
1.36596
1.36597
1.36598
1.36598
1.36599
1.366
1.36601
1.36602
1.36603
1.36604
1.36605
1.36605
1.36606
1.36607
1.36608
1.36609
1.3661
1.3661
1.36611
1.36612
1.36613
1.36614
1.36615
1.36615
1.36616
1.36617
1.36618
1.36619
1.3662
1.36621
1.36621
1.36622
1.36623
1.36624
1.36625
1.36626
1.36628
1.36629
1.3663
1.36631
1.36632
1.36633
1.36635
1.36636
1.36637
1.36638
1.3664
1.36641
1.36642
1.36643
1.36644
1.36645
1.36646
1.36647
1.36647
1.36648
1.36648
1.36648
1.36648
1.36648
1.36647
1.36646
1.36645
1.36644
1.36642
1.3664
1.36637
1.36634
1.3663
1.36627
1.36622
1.36617
1.36612
1.36606
1.366
1.36593
1.36586
1.36579
1.36571
1.36562
1.36553
1.36544
1.36534
1.36524
1.36514
1.36503
1.36492
1.36481
1.36469
1.36456
1.36444
1.36431
1.36417
1.36404
1.36389
1.36374
1.36358
1.36342
1.36325
1.36306
1.36287
1.36267
1.36245
1.36221
1.36196
1.36169
1.3614
1.36108
1.36075
1.36038
1.35999
1.35957
1.35912
1.35864
1.35812
1.35758
1.357
1.35638
1.35574
1.35506
1.35436
1.35362
1.35286
1.35208
1.35127
1.35044
1.34959
1.34873
1.34785
1.34696
1.34606
1.34516
1.34425
1.34334
1.34242
1.34151
1.34061
1.3397
1.33881
1.33792
1.33704
1.33618
1.33533
1.33448
1.33366
1.33285
1.33205
1.33127
1.3305
1.32975
1.32902
1.32831
1.32761
1.32693
1.32626
1.32561
1.32498
1.32436
1.32376
1.32317
1.3226
1.32204
1.3215
1.32097
1.32046
1.31996
1.31947
1.319
1.31854
1.31809
1.31766
1.31723
1.31682
1.31643
1.31604
1.31567
1.3153
1.31495
1.31461
1.31428
1.31396
1.31365
1.31335
1.31307
1.31279
1.31252
1.31226
1.31202
1.31178
1.31155
1.31133
1.31112
1.31093
1.31074
1.31056
1.31039
1.31022
1.31007
1.30993
1.3098
1.30968
1.30956
1.30947
1.30938
1.30929
1.30923
1.3092
1.30913
1.30909
1.30915
1.30916
1.30906
1.30921
1.30948
1.30929
1.30926
1.31011
1.31021
1.30939
1.31063
1.31213
1.31074
1.31097
1.31352
1.31379
1.31445
1.3401
1.33884
1.338
1.33717
1.33628
1.33544
1.3347
1.33394
1.33314
1.33242
1.33174
1.33103
1.33035
1.32972
1.32909
1.32849
1.32791
1.32736
1.32682
1.32631
1.32582
1.32536
1.32491
1.32449
1.32409
1.32371
1.32335
1.32301
1.32269
1.32239
1.32211
1.32185
1.32161
1.32138
1.32117
1.32098
1.3208
1.32064
1.3205
1.32037
1.32026
1.32016
1.32008
1.32001
1.31995
1.31991
1.31989
1.31988
1.31989
1.31991
1.31994
1.31999
1.32006
1.32014
1.32023
1.32035
1.32048
1.32063
1.32079
1.32098
1.32118
1.3214
1.32165
1.32191
1.3222
1.3225
1.32283
1.32318
1.32356
1.32396
1.32439
1.32485
1.32533
1.32583
1.32637
1.32693
1.32752
1.32815
1.3288
1.32947
1.33018
1.33092
1.33168
1.33247
1.33329
1.33413
1.335
1.33589
1.3368
1.33773
1.33868
1.33964
1.34062
1.34161
1.3426
1.34361
1.34461
1.34562
1.34662
1.34762
1.3486
1.34958
1.35055
1.35149
1.35242
1.35333
1.35421
1.35506
1.35589
1.35668
1.35743
1.35815
1.35884
1.35948
1.36009
1.36066
1.36119
1.36168
1.36213
1.36255
1.36293
1.36328
1.3636
1.36388
1.36414
1.36437
1.36458
1.36476
1.36492
1.36506
1.36519
1.3653
1.36539
1.36548
1.36554
1.3656
1.36566
1.3657
1.36574
1.36577
1.36579
1.36581
1.36583
1.36584
1.36585
1.36586
1.36586
1.36587
1.36587
1.36587
1.36587
1.36587
1.36587
1.36587
1.36587
1.36587
1.36587
1.36588
1.36588
1.36588
1.36588
1.36588
1.36589
1.36589
1.36589
1.3659
1.3659
1.36591
1.36591
1.36592
1.36593
1.36593
1.36594
1.36595
1.36596
1.36596
1.36597
1.36598
1.36599
1.366
1.36601
1.36602
1.36602
1.36603
1.36604
1.36605
1.36606
1.36607
1.36607
1.36608
1.36609
1.3661
1.36611
1.36612
1.36612
1.36613
1.36614
1.36615
1.36615
1.36616
1.36617
1.36618
1.36619
1.3662
1.36621
1.36621
1.36622
1.36623
1.36624
1.36625
1.36626
1.36628
1.36629
1.3663
1.36631
1.36632
1.36633
1.36635
1.36636
1.36637
1.36638
1.36639
1.36641
1.36642
1.36643
1.36644
1.36644
1.36645
1.36646
1.36646
1.36647
1.36647
1.36647
1.36646
1.36646
1.36645
1.36644
1.36642
1.3664
1.36638
1.36635
1.36632
1.36629
1.36625
1.36621
1.36616
1.3661
1.36605
1.36599
1.36592
1.36585
1.36577
1.36569
1.36561
1.36552
1.36543
1.36533
1.36523
1.36513
1.36502
1.36491
1.36479
1.36468
1.36456
1.36443
1.3643
1.36417
1.36403
1.36389
1.36373
1.36358
1.36342
1.36324
1.36306
1.36287
1.36266
1.36243
1.3622
1.36194
1.36167
1.36137
1.36105
1.3607
1.36033
1.35993
1.3595
1.35904
1.35854
1.35802
1.35746
1.35686
1.35624
1.35558
1.35489
1.35417
1.35342
1.35265
1.35185
1.35103
1.35019
1.34933
1.34846
1.34758
1.34668
1.34578
1.34487
1.34396
1.34305
1.34213
1.34122
1.34031
1.33941
1.33852
1.33763
1.33676
1.3359
1.33505
1.33421
1.33339
1.33259
1.3318
1.33103
1.33028
1.32954
1.32881
1.32811
1.32742
1.32675
1.3261
1.32546
1.32484
1.32423
1.32364
1.32307
1.32251
1.32196
1.32143
1.32092
1.32041
1.31992
1.31945
1.31898
1.31853
1.3181
1.31767
1.31726
1.31685
1.31646
1.31608
1.31572
1.31536
1.31501
1.31468
1.31435
1.31404
1.31373
1.31344
1.31316
1.31288
1.31262
1.31237
1.31212
1.31189
1.31167
1.31145
1.31125
1.31105
1.31087
1.31069
1.31052
1.31037
1.31022
1.31009
1.30996
1.30985
1.30975
1.30966
1.30959
1.30952
1.30946
1.30944
1.30945
1.30941
1.3094
1.30956
1.30963
1.30952
1.30981
1.31028
1.31005
1.31007
1.31135
1.31161
1.31074
1.3122
1.31432
1.31377
1.31378
1.31659
1.31864
1.34092
1.33943
1.33843
1.33742
1.33643
1.33557
1.33473
1.33387
1.33307
1.33234
1.33159
1.33087
1.3302
1.32954
1.3289
1.3283
1.32772
1.32716
1.32663
1.32612
1.32563
1.32517
1.32473
1.32432
1.32392
1.32355
1.32319
1.32286
1.32255
1.32225
1.32198
1.32172
1.32148
1.32126
1.32105
1.32086
1.32069
1.32054
1.3204
1.32027
1.32016
1.32006
1.31998
1.31991
1.31986
1.31982
1.3198
1.31979
1.31979
1.31981
1.31985
1.3199
1.31996
1.32004
1.32013
1.32025
1.32037
1.32052
1.32068
1.32086
1.32106
1.32128
1.32151
1.32177
1.32205
1.32235
1.32268
1.32303
1.32339
1.32379
1.32421
1.32466
1.32513
1.32563
1.32616
1.32671
1.3273
1.32792
1.32856
1.32924
1.32994
1.33067
1.33143
1.33222
1.33303
1.33388
1.33474
1.33563
1.33655
1.33748
1.33843
1.3394
1.34039
1.34138
1.34238
1.3434
1.34441
1.34542
1.34644
1.34745
1.34845
1.34944
1.35042
1.35139
1.35233
1.35325
1.35415
1.35502
1.35586
1.35666
1.35743
1.35817
1.35886
1.35952
1.36014
1.36071
1.36125
1.36175
1.3622
1.36262
1.36301
1.36335
1.36367
1.36395
1.36421
1.36443
1.36464
1.36482
1.36498
1.36511
1.36524
1.36534
1.36543
1.36551
1.36558
1.36564
1.36568
1.36573
1.36576
1.36579
1.36581
1.36583
1.36584
1.36585
1.36586
1.36587
1.36587
1.36587
1.36588
1.36588
1.36588
1.36588
1.36588
1.36588
1.36588
1.36588
1.36588
1.36588
1.36588
1.36588
1.36588
1.36588
1.36589
1.36589
1.36589
1.3659
1.3659
1.36591
1.36591
1.36592
1.36593
1.36593
1.36594
1.36595
1.36596
1.36596
1.36597
1.36598
1.36599
1.366
1.36601
1.36601
1.36602
1.36603
1.36604
1.36605
1.36606
1.36606
1.36607
1.36608
1.36609
1.3661
1.3661
1.36611
1.36612
1.36613
1.36613
1.36614
1.36615
1.36616
1.36616
1.36617
1.36618
1.36619
1.3662
1.36621
1.36622
1.36623
1.36623
1.36624
1.36625
1.36627
1.36628
1.36629
1.3663
1.36631
1.36632
1.36633
1.36635
1.36636
1.36637
1.36638
1.36639
1.3664
1.36641
1.36642
1.36643
1.36644
1.36644
1.36645
1.36645
1.36645
1.36645
1.36645
1.36644
1.36643
1.36642
1.3664
1.36639
1.36636
1.36634
1.36631
1.36627
1.36623
1.36619
1.36614
1.36609
1.36603
1.36597
1.3659
1.36583
1.36576
1.36568
1.36559
1.3655
1.36541
1.36532
1.36522
1.36511
1.36501
1.3649
1.36478
1.36467
1.36455
1.36442
1.3643
1.36417
1.36403
1.36388
1.36374
1.36358
1.36341
1.36324
1.36306
1.36286
1.36265
1.36243
1.36219
1.36193
1.36165
1.36135
1.36102
1.36067
1.36029
1.35987
1.35943
1.35895
1.35845
1.3579
1.35732
1.35671
1.35607
1.35539
1.35468
1.35395
1.35319
1.3524
1.35159
1.35075
1.3499
1.34903
1.34816
1.34726
1.34636
1.34545
1.34454
1.34362
1.3427
1.34179
1.34088
1.33997
1.33907
1.33818
1.33729
1.33643
1.33557
1.33472
1.3339
1.33308
1.33228
1.33151
1.33074
1.32999
1.32927
1.32856
1.32787
1.32719
1.32654
1.32589
1.32527
1.32467
1.32407
1.3235
1.32294
1.32239
1.32186
1.32135
1.32084
1.32035
1.31988
1.31941
1.31896
1.31852
1.3181
1.31768
1.31728
1.31689
1.31651
1.31614
1.31578
1.31543
1.31509
1.31476
1.31445
1.31414
1.31384
1.31355
1.31328
1.31301
1.31275
1.3125
1.31227
1.31204
1.31182
1.31161
1.31141
1.31122
1.31104
1.31087
1.31071
1.31056
1.31043
1.3103
1.31018
1.31008
1.31
1.30991
1.30985
1.30982
1.30979
1.30975
1.30978
1.30985
1.30984
1.3099
1.31017
1.31029
1.31025
1.31074
1.31131
1.31113
1.31152
1.31292
1.31321
1.31313
1.31472
1.31627
1.3171
1.31843
1.32002
1.34151
1.33986
1.33872
1.33757
1.33655
1.3356
1.33464
1.33377
1.33296
1.33216
1.33138
1.33067
1.32998
1.32931
1.32867
1.32807
1.32748
1.32692
1.3264
1.32589
1.32541
1.32495
1.32452
1.32411
1.32372
1.32335
1.32301
1.32268
1.32237
1.32209
1.32182
1.32157
1.32133
1.32112
1.32092
1.32073
1.32057
1.32041
1.32028
1.32015
1.32005
1.31995
1.31987
1.31981
1.31976
1.31972
1.3197
1.31969
1.31969
1.31971
1.31974
1.31979
1.31985
1.31993
1.32002
1.32013
1.32026
1.3204
1.32055
1.32073
1.32092
1.32114
1.32137
1.32162
1.32189
1.32219
1.3225
1.32284
1.3232
1.3236
1.32401
1.32444
1.32491
1.32541
1.32592
1.32647
1.32706
1.32766
1.3283
1.32897
1.32966
1.33039
1.33115
1.33193
1.33274
1.33359
1.33445
1.33534
1.33626
1.33719
1.33815
1.33913
1.34011
1.34111
1.34213
1.34315
1.34417
1.3452
1.34622
1.34725
1.34827
1.34927
1.35027
1.35125
1.35221
1.35315
1.35407
1.35495
1.35581
1.35663
1.35742
1.35817
1.35888
1.35955
1.36018
1.36077
1.36131
1.36181
1.36228
1.3627
1.36308
1.36343
1.36375
1.36403
1.36428
1.36451
1.3647
1.36488
1.36504
1.36517
1.36529
1.36539
1.36548
1.36555
1.36562
1.36567
1.36571
1.36575
1.36578
1.36581
1.36583
1.36584
1.36586
1.36587
1.36587
1.36588
1.36588
1.36588
1.36588
1.36588
1.36588
1.36588
1.36588
1.36588
1.36588
1.36588
1.36588
1.36588
1.36588
1.36588
1.36588
1.36588
1.36589
1.36589
1.36589
1.3659
1.3659
1.36591
1.36591
1.36592
1.36593
1.36593
1.36594
1.36595
1.36596
1.36596