# vtk DataFile Version 2.0
LBE two cylinders
ASCII
DATASET STRUCTURED_POINTS
DIMENSIONS 400 100 1
ASPECT_RATIO 1 1 1
ORIGIN 0 0 0
POINT_DATA 40000
SCALARS rho double 1
LOOKUP_TABLE default
1.33615
1.33317
1.33344
1.33345
1.33245
1.3319
1.33157
1.33087
1.33023
1.3297
1.3291
1.32849
1.32793
1.32738
1.32683
1.32632
1.32583
1.32535
1.32491
1.32449
1.32409
1.32371
1.32336
1.32304
1.32273
1.32245
1.32219
1.32195
1.32173
1.32152
1.32133
1.32116
1.321
1.32084
1.3207
1.32056
1.32043
1.3203
1.32017
1.32005
1.31993
1.31981
1.31969
1.31957
1.31945
1.31934
1.31923
1.31913
1.31904
1.31895
1.31887
1.3188
1.31874
1.3187
1.31867
1.31866
1.31867
1.31869
1.31874
1.31881
1.31891
1.31903
1.31917
1.31934
1.31954
1.31977
1.32002
1.32031
1.32063
1.32097
1.32134
1.32175
1.32218
1.32265
1.32314
1.32366
1.32421
1.32479
1.3254
1.32604
1.3267
1.32739
1.32811
1.32885
1.32962
1.33042
1.33124
1.33209
1.33296
1.33386
1.33478
1.33572
1.33668
1.33765
1.33864
1.33964
1.34064
1.34166
1.34267
1.34368
1.34469
1.34569
1.34668
1.34765
1.34861
1.34954
1.35045
1.35133
1.35218
1.35299
1.35378
1.35453
1.35524
1.35591
1.35655
1.35715
1.35771
1.35823
1.35871
1.35916
1.35958
1.35996
1.36031
1.36063
1.36092
1.36119
1.36143
1.36164
1.36184
1.36201
1.36217
1.36232
1.36245
1.36257
1.36268
1.36278
1.36288
1.36297
1.36305
1.36314
1.36322
1.3633
1.36339
1.36347
1.36355
1.36363
1.36371
1.36379
1.36387
1.36394
1.36401
1.36408
1.36415
1.3642
1.36425
1.3643
1.36433
1.36436
1.36437
1.36438
1.36438
1.36437
1.36434
1.36431
1.36427
1.36422
1.36417
1.3641
1.36403
1.36395
1.36387
1.36378
1.36369
1.3636
1.3635
1.3634
1.3633
1.3632
1.3631
1.36301
1.36291
1.36282
1.36274
1.36265
1.36258
1.36251
1.36244
1.36238
1.36233
1.36229
1.36225
1.36221
1.36219
1.36217
1.36215
1.36215
1.36215
1.36215
1.36217
1.36219
1.36221
1.36224
1.36228
1.36232
1.36237
1.36242
1.36248
1.36254
1.36261
1.36269
1.36277
1.36286
1.36295
1.36304
1.36314
1.36324
1.36335
1.36345
1.36356
1.36367
1.36378
1.36389
1.364
1.3641
1.3642
1.3643
1.36439
1.36447
1.36455
1.36462
1.36469
1.36474
1.36478
1.36482
1.36484
1.36486
1.36486
1.36486
1.36484
1.36482
1.36478
1.36474
1.3647
1.36464
1.36458
1.36452
1.36445
1.36438
1.36431
1.36424
1.36417
1.36409
1.36402
1.36395
1.36387
1.3638
1.36373
1.36366
1.36359
1.36351
1.36344
1.36336
1.36328
1.36319
1.3631
1.363
1.36289
1.36278
1.36265
1.36251
1.36235
1.36218
1.36199
1.36178
1.36156
1.36131
1.36104
1.36074
1.36042
1.36008
1.35971
1.35931
1.35888
1.35843
1.35794
1.35743
1.35689
1.35631
1.35571
1.35507
1.3544
1.35371
1.35298
1.35223
1.35145
1.35065
1.34982
1.34897
1.3481
1.34722
1.34631
1.3454
1.34447
1.34354
1.3426
1.34166
1.34072
1.33978
1.33884
1.33791
1.33699
1.33608
1.33518
1.33429
1.33341
1.33255
1.33171
1.33088
1.33007
1.32928
1.32851
1.32776
1.32702
1.32631
1.32562
1.32495
1.32429
1.32366
1.32305
1.32246
1.32189
1.32134
1.32081
1.3203
1.31981
1.31934
1.31889
1.31845
1.31803
1.31763
1.31725
1.31688
1.31653
1.31618
1.31586
1.31554
1.31523
1.31494
1.31465
1.31437
1.3141
1.31383
1.31357
1.31331
1.31306
1.3128
1.31255
1.31231
1.31206
1.31182
1.31157
1.31133
1.31109
1.31086
1.31062
1.31039
1.31017
1.30994
1.30973
1.30952
1.30931
1.30912
1.30893
1.30875
1.30858
1.30842
1.30827
1.30814
1.30801
1.3079
1.30782
1.30774
1.30765
1.3076
1.30762
1.30757
1.30747
1.30761
1.30777
1.30743
1.30731
1.30824
1.30813
1.30608
1.30705
1.31091
1.30628
1.29759
1.30811
1.31711
1.33415
1.33423
1.33369
1.33296
1.33262
1.33212
1.33149
1.3309
1.33035
1.32974
1.32913
1.32856
1.32799
1.32743
1.32689
1.32638
1.32588
1.32541
1.32496
1.32454
1.32414
1.32376
1.32341
1.32308
1.32278
1.32249
1.32223
1.32199
1.32176
1.32156
1.32137
1.32119
1.32103
1.32087
1.32073
1.32059
1.32045
1.32032
1.3202
1.32007
1.31995
1.31983
1.31971
1.31959
1.31948
1.31937
1.31926
1.31916
1.31906
1.31897
1.31889
1.31883
1.31877
1.31873
1.3187
1.31869
1.31869
1.31872
1.31877
1.31884
1.31893
1.31905
1.31919
1.31936
1.31956
1.31978
1.32004
1.32032
1.32063
1.32098
1.32135
1.32175
1.32218
1.32264
1.32313
1.32365
1.3242
1.32478
1.32538
1.32602
1.32668
1.32736
1.32808
1.32882
1.32959
1.33039
1.33121
1.33205
1.33292
1.33382
1.33473
1.33567
1.33663
1.3376
1.33858
1.33958
1.34058
1.3416
1.34261
1.34362
1.34463
1.34563
1.34661
1.34759
1.34854
1.34947
1.35038
1.35127
1.35212
1.35294
1.35372
1.35448
1.35519
1.35587
1.35651
1.35711
1.35767
1.3582
1.35869
1.35914
1.35956
1.35995
1.3603
1.36063
1.36093
1.3612
1.36144
1.36166
1.36186
1.36204
1.36221
1.36236
1.36249
1.36261
1.36273
1.36283
1.36293
1.36303
1.36312
1.3632
1.36329
1.36337
1.36346
1.36354
1.36362
1.36371
1.36379
1.36387
1.36395
1.36402
1.3641
1.36417
1.36423
1.36429
1.36434
1.36439
1.36442
1.36445
1.36447
1.36447
1.36447
1.36446
1.36444
1.36441
1.36437
1.36433
1.36427
1.36421
1.36414
1.36406
1.36398
1.3639
1.36381
1.36371
1.36362
1.36352
1.36342
1.36333
1.36323
1.36313
1.36304
1.36295
1.36287
1.36279
1.36271
1.36264
1.36258
1.36252
1.36247
1.36243
1.36239
1.36235
1.36233
1.36231
1.3623
1.36229
1.36229
1.3623
1.36231
1.36233
1.36235
1.36238
1.36242
1.36246
1.36251
1.36256
1.36262
1.36268
1.36275
1.36283
1.36291
1.36299
1.36308
1.36318
1.36327
1.36337
1.36348
1.36358
1.36369
1.36379
1.3639
1.36401
1.36411
1.36421
1.36431
1.36441
1.36449
1.36458
1.36465
1.36472
1.36478
1.36484
1.36488
1.36491
1.36493
1.36495
1.36495
1.36494
1.36493
1.3649
1.36487
1.36483
1.36478
1.36472
1.36466
1.3646
1.36453
1.36446
1.36439
1.36431
1.36424
1.36416
1.36409
1.36401
1.36394
1.36386
1.36379
1.36371
1.36364
1.36356
1.36348
1.3634
1.36331
1.36322
1.36312
1.36302
1.36291
1.36278
1.36265
1.3625
1.36234
1.36216
1.36197
1.36176
1.36152
1.36127
1.361
1.3607
1.36037
1.36003
1.35965
1.35925
1.35882
1.35837
1.35788
1.35736
1.35682
1.35624
1.35564
1.355
1.35434
1.35364
1.35292
1.35217
1.3514
1.3506
1.34977
1.34893
1.34806
1.34718
1.34628
1.34537
1.34445
1.34352
1.34259
1.34166
1.34072
1.33978
1.33885
1.33793
1.33701
1.3361
1.3352
1.33432
1.33345
1.33259
1.33175
1.33092
1.33012
1.32933
1.32856
1.32781
1.32708
1.32637
1.32568
1.325
1.32435
1.32372
1.32311
1.32252
1.32195
1.3214
1.32087
1.32036
1.31987
1.3194
1.31895
1.31851
1.31809
1.31769
1.3173
1.31693
1.31658
1.31623
1.3159
1.31558
1.31528
1.31498
1.31469
1.31441
1.31413
1.31386
1.3136
1.31334
1.31308
1.31282
1.31257
1.31232
1.31207
1.31183
1.31158
1.31134
1.3111
1.31086
1.31062
1.31039
1.31016
1.30994
1.30972
1.30951
1.3093
1.3091
1.30891
1.30873
1.30856
1.30839
1.30824
1.3081
1.30797
1.30786
1.30775
1.30766
1.3076
1.30752
1.30745
1.30747
1.30746
1.30733
1.30732
1.30757
1.3074
1.30691
1.30732
1.30798
1.30627
1.30479
1.30741
1.30685
1.29701
1.29155
1.33342
1.33442
1.33362
1.33284
1.33282
1.33223
1.33148
1.33099
1.33044
1.32977
1.32918
1.32862
1.32803
1.32746
1.32694
1.32641
1.32591
1.32544
1.32499
1.32457
1.32417
1.32379
1.32344
1.32311
1.3228
1.32252
1.32225
1.32201
1.32178
1.32158
1.32139
1.32121
1.32104
1.32089
1.32074
1.3206
1.32047
1.32034
1.32021
1.32008
1.31996
1.31984
1.31972
1.3196
1.31949
1.31938
1.31927
1.31917
1.31908
1.31899
1.31891
1.31884
1.31879
1.31874
1.31871
1.3187
1.31871
1.31873
1.31878
1.31885
1.31894
1.31906
1.3192
1.31937
1.31956
1.31978
1.32004
1.32032
1.32062
1.32096
1.32133
1.32173
1.32216
1.32261
1.3231
1.32362
1.32416
1.32474
1.32534
1.32597
1.32663
1.32731
1.32803
1.32877
1.32953
1.33033
1.33115
1.33199
1.33286
1.33375
1.33467
1.33561
1.33656
1.33753
1.33852
1.33951
1.34052
1.34153
1.34255
1.34356
1.34457
1.34557
1.34656
1.34754
1.3485
1.34943
1.35035
1.35123
1.35209
1.35291
1.3537
1.35446
1.35518
1.35586
1.35651
1.35712
1.35769
1.35822
1.35871
1.35917
1.3596
1.35999
1.36035
1.36068
1.36099
1.36126
1.36151
1.36174
1.36194
1.36213
1.3623
1.36245
1.36259
1.36272
1.36284
1.36295
1.36305
1.36315
1.36325
1.36334
1.36343
1.36351
1.3636
1.36369
1.36377
1.36386
1.36394
1.36403
1.36411
1.36419
1.36427
1.36434
1.36441
1.36447
1.36452
1.36457
1.36461
1.36464
1.36466
1.36467
1.36467
1.36466
1.36465
1.36462
1.36458
1.36454
1.36449
1.36443
1.36436
1.36429
1.36421
1.36413
1.36404
1.36395
1.36386
1.36377
1.36367
1.36358
1.36348
1.36339
1.3633
1.36322
1.36313
1.36306
1.36298
1.36292
1.36285
1.3628
1.36275
1.3627
1.36266
1.36263
1.36261
1.36259
1.36258
1.36257
1.36257
1.36258
1.36259
1.36261
1.36263
1.36266
1.3627
1.36274
1.36279
1.36284
1.3629
1.36297
1.36303
1.36311
1.36319
1.36327
1.36336
1.36345
1.36354
1.36364
1.36374
1.36384
1.36395
1.36405
1.36416
1.36426
1.36436
1.36446
1.36455
1.36464
1.36473
1.36481
1.36488
1.36495
1.365
1.36505
1.36509
1.36512
1.36514
1.36515
1.36515
1.36514
1.36512
1.36509
1.36506
1.36501
1.36496
1.36491
1.36484
1.36478
1.36471
1.36463
1.36456
1.36448
1.3644
1.36433
1.36425
1.36417
1.36409
1.36401
1.36393
1.36385
1.36377
1.36369
1.3636
1.36351
1.36342
1.36332
1.36322
1.36311
1.36299
1.36286
1.36271
1.36256
1.36239
1.36221
1.36201
1.36179
1.36155
1.36129
1.361
1.3607
1.36037
1.36002
1.35964
1.35923
1.3588
1.35834
1.35785
1.35733
1.35678
1.35621
1.3556
1.35496
1.3543
1.3536
1.35288
1.35213
1.35136
1.35055
1.34973
1.34889
1.34802
1.34714
1.34625
1.34534
1.34442
1.3435
1.34257
1.34163
1.3407
1.33977
1.33884
1.33792
1.33701
1.3361
1.33521
1.33432
1.33346
1.3326
1.33176
1.33094
1.33014
1.32935
1.32859
1.32784
1.32711
1.3264
1.32571
1.32504
1.32439
1.32376
1.32316
1.32257
1.322
1.32145
1.32092
1.32041
1.31992
1.31945
1.319
1.31856
1.31814
1.31774
1.31735
1.31698
1.31662
1.31628
1.31595
1.31563
1.31532
1.31502
1.31473
1.31444
1.31416
1.31389
1.31363
1.31336
1.3131
1.31285
1.31259
1.31234
1.31209
1.31184
1.3116
1.31135
1.31111
1.31087
1.31063
1.31039
1.31016
1.30994
1.30972
1.3095
1.30929
1.30909
1.3089
1.30871
1.30854
1.30837
1.30822
1.30807
1.30793
1.30782
1.3077
1.30759
1.30753
1.30748
1.30735
1.3073
1.30739
1.3073
1.307
1.30724
1.30762
1.30675
1.30617
1.308
1.30765
1.30287
1.30485
1.31162
1.29928
1.28716
1.33385
1.33385
1.33369
1.33341
1.33285
1.33216
1.33168
1.3311
1.33043
1.32983
1.32925
1.32864
1.32805
1.3275
1.32695
1.32642
1.32593
1.32545
1.325
1.32457
1.32417
1.32379
1.32344
1.32311
1.3228
1.32252
1.32225
1.32201
1.32178
1.32158
1.32138
1.32121
1.32104
1.32088
1.32074
1.3206
1.32046
1.32033
1.3202
1.32008
1.31996
1.31984
1.31972
1.3196
1.31949
1.31938
1.31927
1.31917
1.31908
1.31899
1.31891
1.31885
1.31879
1.31875
1.31872
1.31871
1.31871
1.31874
1.31878
1.31885
1.31894
1.31905
1.31919
1.31936
1.31955
1.31977
1.32001
1.32029
1.32059
1.32093
1.32129
1.32168
1.32211
1.32256
1.32304
1.32355
1.3241
1.32467
1.32527
1.32589
1.32655
1.32723
1.32794
1.32868
1.32945
1.33024
1.33106
1.3319
1.33277
1.33367
1.33458
1.33552
1.33648
1.33745
1.33844
1.33944
1.34045
1.34146
1.34248
1.3435
1.34451
1.34552
1.34652
1.3475
1.34846
1.34941
1.35033
1.35122
1.35208
1.35292
1.35371
1.35448
1.35521
1.3559
1.35655
1.35716
1.35774
1.35828
1.35878
1.35925
1.35968
1.36008
1.36045
1.36079
1.3611
1.36138
1.36164
1.36187
1.36208
1.36228
1.36245
1.36261
1.36276
1.36289
1.36302
1.36313
1.36324
1.36335
1.36344
1.36354
1.36364
1.36373
1.36382
1.36391
1.364
1.36409
1.36418
1.36427
1.36436
1.36444
1.36452
1.3646
1.36467
1.36474
1.3648
1.36485
1.36489
1.36493
1.36495
1.36497
1.36497
1.36497
1.36496
1.36494
1.36491
1.36487
1.36482
1.36476
1.3647
1.36463
1.36456
1.36448
1.3644
1.36431
1.36422
1.36413
1.36404
1.36395
1.36386
1.36378
1.36369
1.36361
1.36353
1.36345
1.36338
1.36332
1.36326
1.3632
1.36316
1.36311
1.36308
1.36305
1.36302
1.36301
1.363
1.36299
1.36299
1.363
1.36301
1.36303
1.36305
1.36308
1.36312
1.36316
1.36321
1.36326
1.36332
1.36338
1.36345
1.36352
1.3636
1.36368
1.36377
1.36386
1.36395
1.36405
1.36414
1.36424
1.36434
1.36444
1.36454
1.36464
1.36474
1.36483
1.36492
1.36501
1.36509
1.36516
1.36523
1.36529
1.36534
1.36538
1.36542
1.36544
1.36546
1.36546
1.36546
1.36545
1.36542
1.36539
1.36535
1.36531
1.36525
1.36519
1.36513
1.36506
1.36498
1.36491
1.36483
1.36475
1.36467
1.36458
1.3645
1.36442
1.36433
1.36425
1.36416
1.36408
1.36399
1.3639
1.3638
1.36371
1.36361
1.3635
1.36339
1.36327
1.36314
1.363
1.36285
1.36268
1.3625
1.36231
1.3621
1.36187
1.36162
1.36135
1.36106
1.36075
1.36041
1.36005
1.35966
1.35925
1.35881
1.35834
1.35785
1.35732
1.35677
1.35619
1.35558
1.35493
1.35426
1.35356
1.35284
1.35208
1.3513
1.3505
1.34968
1.34883
1.34796
1.34708
1.34619
1.34528
1.34436
1.34344
1.34251
1.34158
1.34064
1.33972
1.33879
1.33787
1.33696
1.33606
1.33517
1.33429
1.33342
1.33257
1.33174
1.33092
1.33012
1.32934
1.32857
1.32783
1.32711
1.3264
1.32571
1.32505
1.3244
1.32378
1.32318
1.32259
1.32202
1.32148
1.32096
1.32045
1.31996
1.31949
1.31904
1.3186
1.31819
1.31779
1.3174
1.31703
1.31667
1.31632
1.31599
1.31567
1.31536
1.31506
1.31477
1.31448
1.3142
1.31393
1.31366
1.3134
1.31314
1.31288
1.31262
1.31237
1.31212
1.31186
1.31162
1.31137
1.31112
1.31088
1.31064
1.3104
1.31017
1.30994
1.30972
1.30951
1.3093
1.30909
1.3089
1.30871
1.30853
1.30836
1.30821
1.30806
1.30792
1.30779
1.30769
1.30759
1.30747
1.30741
1.30741
1.30728
1.30714
1.30731
1.30737
1.30687
1.30688
1.30775
1.30712
1.30544
1.30706
1.30869
1.30396
1.30188
1.30721
1.30781
1.3346
1.33421
1.33404
1.33365
1.33288
1.33231
1.33185
1.33112
1.33046
1.3299
1.32927
1.32863
1.32806
1.3275
1.32694
1.32641
1.32592
1.32543
1.32498
1.32456
1.32415
1.32377
1.32342
1.32309
1.32278
1.3225
1.32223
1.32199
1.32176
1.32155
1.32136
1.32118
1.32101
1.32086
1.32071
1.32057
1.32044
1.32031
1.32018
1.32006
1.31993
1.31981
1.3197
1.31958
1.31947
1.31936
1.31926
1.31916
1.31907
1.31898
1.31891
1.31884
1.31878
1.31874
1.31871
1.3187
1.31871
1.31873
1.31877
1.31884
1.31892
1.31903
1.31917
1.31933
1.31952
1.31973
1.31997
1.32024
1.32054
1.32087
1.32123
1.32162
1.32203
1.32248
1.32296
1.32346
1.324
1.32457
1.32516
1.32578
1.32644
1.32712
1.32783
1.32856
1.32933
1.33012
1.33094
1.33178
1.33266
1.33355
1.33447
1.33541
1.33637
1.33735
1.33834
1.33934
1.34036
1.34138
1.3424
1.34343
1.34445
1.34546
1.34647
1.34746
1.34843
1.34939
1.35032
1.35122
1.3521
1.35294
1.35375
1.35452
1.35526
1.35596
1.35662
1.35725
1.35783
1.35838
1.35889
1.35937
1.35981
1.36022
1.36059
1.36094
1.36126
1.36155
1.36181
1.36206
1.36228
1.36248
1.36266
1.36283
1.36298
1.36313
1.36326
1.36338
1.3635
1.36361
1.36371
1.36382
1.36392
1.36401
1.36411
1.36421
1.36431
1.3644
1.3645
1.36459
1.36469
1.36478
1.36486
1.36495
1.36502
1.3651
1.36516
1.36522
1.36527
1.36531
1.36534
1.36536
1.36538
1.36538
1.36537
1.36536
1.36533
1.3653
1.36526
1.36521
1.36515
1.36509
1.36502
1.36495
1.36487
1.36479
1.36471
1.36462
1.36454
1.36445
1.36437
1.36428
1.3642
1.36412
1.36405
1.36398
1.36391
1.36385
1.36379
1.36374
1.3637
1.36366
1.36362
1.36359
1.36357
1.36356
1.36355
1.36354
1.36354
1.36355
1.36356
1.36358
1.36361
1.36364
1.36367
1.36372
1.36376
1.36381
1.36387
1.36393
1.364
1.36407
1.36415
1.36423
1.36431
1.3644
1.36449
1.36458
1.36467
1.36477
1.36486
1.36496
1.36505
1.36515
1.36524
1.36533
1.36541
1.36549
1.36557
1.36563
1.36569
1.36575
1.36579
1.36583
1.36586
1.36588
1.36589
1.36589
1.36588
1.36586
1.36583
1.36579
1.36575
1.3657
1.36564
1.36558
1.36551
1.36543
1.36535
1.36527
1.36519
1.36511
1.36502
1.36493
1.36484
1.36475
1.36466
1.36457
1.36448
1.36438
1.36428
1.36419
1.36408
1.36398
1.36387
1.36375
1.36362
1.36349
1.36335
1.3632
1.36304
1.36286
1.36267
1.36246
1.36224
1.362
1.36174
1.36146
1.36116
1.36083
1.36048
1.36011
1.35972
1.35929
1.35884
1.35837
1.35786
1.35733
1.35676
1.35617
1.35555
1.3549
1.35422
1.35351
1.35278
1.35202
1.35123
1.35042
1.34959
1.34873
1.34786
1.34698
1.34608
1.34517
1.34425
1.34332
1.34239
1.34146
1.34053
1.3396
1.33868
1.33776
1.33685
1.33595
1.33507
1.33419
1.33333
1.33248
1.33166
1.33084
1.33005
1.32927
1.32852
1.32778
1.32706
1.32636
1.32568
1.32502
1.32439
1.32377
1.32317
1.32259
1.32203
1.32149
1.32097
1.32047
1.31999
1.31952
1.31907
1.31864
1.31823
1.31783
1.31745
1.31708
1.31672
1.31638
1.31605
1.31572
1.31541
1.31511
1.31482
1.31453
1.31425
1.31398
1.31371
1.31345
1.31318
1.31292
1.31267
1.31241
1.31216
1.3119
1.31165
1.31141
1.31116
1.31091
1.31067
1.31044
1.3102
1.30997
1.30975
1.30953
1.30932
1.30912
1.30892
1.30874
1.30856
1.30839
1.30823
1.30809
1.30796
1.30782
1.30771
1.30763
1.30754
1.30742
1.3074
1.30744
1.30727
1.30717
1.30749
1.30745
1.30682
1.30728
1.30826
1.30673
1.30578
1.30913
1.30842
1.30348
1.30677
1.30925
1.33544
1.33496
1.33439
1.33371
1.33315
1.33257
1.33184
1.33115
1.33055
1.32989
1.32923
1.32863
1.32804
1.32745
1.3269
1.32637
1.32586
1.32538
1.32493
1.3245
1.3241
1.32372
1.32337
1.32303
1.32273
1.32244
1.32218
1.32193
1.32171
1.3215
1.32131
1.32113
1.32096
1.32081
1.32066
1.32052
1.32039
1.32026
1.32013
1.32001
1.31989
1.31977
1.31966
1.31955
1.31944
1.31933
1.31923
1.31913
1.31904
1.31896
1.31888
1.31882
1.31876
1.31872
1.3187
1.31868
1.31869
1.31871
1.31875
1.31881
1.3189
1.319
1.31913
1.31929
1.31947
1.31968
1.31992
1.32018
1.32047
1.32079
1.32115
1.32152
1.32194
1.32238
1.32285
1.32335
1.32388
1.32444
1.32503
1.32565
1.3263
1.32698
1.32768
1.32842
1.32918
1.32997
1.33079
1.33164
1.33251
1.33341
1.33433
1.33527
1.33624
1.33722
1.33822
1.33923
1.34025
1.34128
1.34231
1.34334
1.34438
1.3454
1.34642
1.34742
1.34841
1.34937
1.35032
1.35123
1.35212
1.35298
1.3538
1.35459
1.35534
1.35605
1.35673
1.35736
1.35796
1.35852
1.35904
1.35953
1.35998
1.3604
1.36078
1.36114
1.36147
1.36177
1.36204
1.36229
1.36253
1.36274
1.36293
1.36311
1.36327
1.36342
1.36356
1.36369
1.36382
1.36394
1.36405
1.36416
1.36427
1.36437
1.36448
1.36458
1.36469
1.36479
1.36489
1.365
1.3651
1.36519
1.36529
1.36538
1.36546
1.36554
1.36562
1.36568
1.36574
1.36579
1.36583
1.36586
1.36588
1.36589
1.36589
1.36588
1.36586
1.36583
1.3658
1.36576
1.36571
1.36565
1.36559
1.36552
1.36545
1.36538
1.3653
1.36522
1.36514
1.36506
1.36498
1.36491
1.36483
1.36476
1.36469
1.36462
1.36456
1.3645
1.36445
1.3644
1.36436
1.36432
1.36429
1.36426
1.36424
1.36423
1.36422
1.36421
1.36422
1.36423
1.36424
1.36426
1.36428
1.36431
1.36435
1.36439
1.36444
1.36449
1.36455
1.36461
1.36467
1.36474
1.36482
1.3649
1.36498
1.36506
1.36515
1.36524
1.36532
1.36541
1.3655
1.3656
1.36568
1.36577
1.36586
1.36594
1.36601
1.36609
1.36615
1.36622
1.36627
1.36632
1.36635
1.36638
1.3664
1.36642
1.36642
1.36641
1.36639
1.36637
1.36633
1.36629
1.36624
1.36619
1.36612
1.36605
1.36598
1.3659
1.36582
1.36573
1.36564
1.36555
1.36546
1.36537
1.36527
1.36517
1.36507
1.36497
1.36487
1.36477
1.36466
1.36455
1.36444
1.36432
1.3642
1.36407
1.36393
1.36379
1.36363
1.36347
1.36329
1.3631
1.36289
1.36267
1.36244
1.36218
1.3619
1.36161
1.36129
1.36095
1.36059
1.36021
1.3598
1.35936
1.3589
1.35841
1.35789
1.35734
1.35677
1.35616
1.35552
1.35486
1.35417
1.35345
1.3527
1.35192
1.35113
1.3503
1.34946
1.3486
1.34772
1.34683
1.34592
1.345
1.34408
1.34315
1.34222
1.34128
1.34035
1.33942
1.3385
1.33759
1.33668
1.33578
1.3349
1.33403
1.33317
1.33233
1.33151
1.3307
1.32992
1.32915
1.3284
1.32767
1.32696
1.32627
1.3256
1.32495
1.32432
1.32371
1.32312
1.32255
1.32201
1.32148
1.32096
1.32047
1.32
1.31954
1.3191
1.31867
1.31827
1.31787
1.31749
1.31713
1.31678
1.31644
1.31611
1.31579
1.31548
1.31518
1.31489
1.3146
1.31432
1.31405
1.31378
1.31352
1.31325
1.31299
1.31273
1.31248
1.31222
1.31197
1.31172
1.31147
1.31122
1.31098
1.31073
1.3105
1.31026
1.31003
1.30981
1.3096
1.30939
1.30918
1.30899
1.3088
1.30863
1.30847
1.30831
1.30816
1.30803
1.30793
1.30781
1.3077
1.30768
1.30762
1.30748
1.30751
1.30767
1.30749
1.3073
1.30786
1.30807
1.30711
1.30756
1.30937
1.30797
1.30627
1.30953
1.31131
1.30829
1.30793
1.33641
1.33555
1.33479
1.33403
1.3334
1.33265
1.33186
1.33123
1.33056
1.32983
1.32919
1.32859
1.32796
1.32737
1.32682
1.32628
1.32577
1.32529
1.32484
1.32441
1.32401
1.32363
1.32328
1.32295
1.32264
1.32236
1.3221
1.32185
1.32163
1.32142
1.32123
1.32105
1.32089
1.32073
1.32059
1.32045
1.32032
1.32019
1.32007
1.31995
1.31983
1.31971
1.3196
1.31949
1.31939
1.31928
1.31918
1.31909
1.319
1.31892
1.31885
1.31879
1.31873
1.31869
1.31867
1.31865
1.31866
1.31868
1.31872
1.31878
1.31886
1.31896
1.31909
1.31923
1.31941
1.31961
1.31984
1.3201
1.32038
1.3207
1.32104
1.32141
1.32182
1.32225
1.32271
1.32321
1.32373
1.32429
1.32487
1.32549
1.32613
1.32681
1.32751
1.32824
1.329
1.32979
1.33061
1.33146
1.33234
1.33323
1.33416
1.33511
1.33607
1.33706
1.33807
1.33908
1.34012
1.34115
1.3422
1.34324
1.34429
1.34532
1.34635
1.34737
1.34837
1.34935
1.35031
1.35125
1.35215
1.35302
1.35387
1.35467
1.35544
1.35616
1.35685
1.3575
1.35812
1.35869
1.35923
1.35973
1.36019
1.36062
1.36102
1.36138
1.36172
1.36203
1.36232
1.36258
1.36283
1.36305
1.36325
1.36344
1.36362
1.36378
1.36393
1.36407
1.3642
1.36433
1.36445
1.36457
1.36469
1.3648
1.36492
1.36503
1.36514
1.36525
1.36537
1.36547
1.36558
1.36569
1.36579
1.36589
1.36598
1.36607
1.36615
1.36623
1.36629
1.36635
1.3664
1.36643
1.36646
1.36648
1.36649
1.36649
1.36648
1.36646
1.36643
1.3664
1.36636
1.36631
1.36625
1.3662
1.36613
1.36607
1.366
1.36592
1.36585
1.36578
1.3657
1.36563
1.36556
1.3655
1.36543
1.36537
1.36531
1.36526
1.36521
1.36517
1.36513
1.36509
1.36506
1.36504
1.36502
1.36501
1.365
1.365
1.365
1.36501
1.36502
1.36504
1.36507
1.3651
1.36513
1.36517
1.36522
1.36527
1.36533
1.36539
1.36545
1.36552
1.36559
1.36567
1.36575
1.36583
1.36591
1.36599
1.36608
1.36616
1.36625
1.36633
1.36641
1.3665
1.36657
1.36665
1.36672
1.36678
1.36684
1.3669
1.36694
1.36698
1.36701
1.36703
1.36704
1.36705
1.36704
1.36702
1.367
1.36697
1.36692
1.36688
1.36682
1.36676
1.36669
1.36661
1.36653
1.36645
1.36636
1.36627
1.36617
1.36608
1.36598
1.36588
1.36577
1.36567
1.36556
1.36545
1.36534
1.36523
1.36511
1.36499
1.36486
1.36474
1.3646
1.36446
1.36431
1.36415
1.36397
1.36379
1.3636
1.36339
1.36317
1.36293
1.36268
1.3624
1.36211
1.3618
1.36147
1.36111
1.36074
1.36033
1.35991
1.35945
1.35897
1.35847
1.35793
1.35737
1.35677
1.35615
1.3555
1.35481
1.3541
1.35336
1.3526
1.35181
1.35099
1.35016
1.3493
1.34842
1.34753
1.34663
1.34571
1.34479
1.34386
1.34292
1.34199
1.34105
1.34012
1.33919
1.33826
1.33735
1.33645
1.33555
1.33467
1.3338
1.33295
1.33212
1.3313
1.3305
1.32973
1.32897
1.32823
1.32751
1.32681
1.32613
1.32548
1.32484
1.32422
1.32362
1.32305
1.32249
1.32195
1.32144
1.32094
1.32045
1.31999
1.31954
1.31911
1.3187
1.3183
1.31791
1.31754
1.31718
1.31684
1.3165
1.31618
1.31587
1.31556
1.31526
1.31498
1.31469
1.31442
1.31414
1.31388
1.31361
1.31335
1.31309
1.31283
1.31258
1.31232
1.31207
1.31182
1.31157
1.31132
1.31107
1.31083
1.31059
1.31036
1.31013
1.30991
1.3097
1.30949
1.30929
1.3091
1.30892
1.30875
1.30859
1.30845
1.30831
1.30818
1.30808
1.30801
1.3079
1.30783
1.30786
1.30784
1.30772
1.30785
1.3081
1.30789
1.30784
1.30866
1.30874
1.3079
1.30911
1.31058
1.30917
1.30937
1.31187
1.31211
1.31273
1.33733
1.33604
1.33521
1.33439
1.33351
1.33268
1.33196
1.33123
1.33046
1.32977
1.32913
1.32846
1.32783
1.32726
1.32669
1.32614
1.32564
1.32516
1.3247
1.32428
1.32388
1.3235
1.32315
1.32283
1.32252
1.32224
1.32198
1.32174
1.32152
1.32131
1.32112
1.32095
1.32078
1.32063
1.32049
1.32035
1.32022
1.3201
1.31998
1.31986
1.31975
1.31964
1.31953
1.31942
1.31932
1.31922
1.31912
1.31903
1.31895
1.31887
1.3188
1.31874
1.31869
1.31865
1.31863
1.31861
1.31862
1.31864
1.31867
1.31873
1.31881
1.3189
1.31903
1.31917
1.31934
1.31954
1.31976
1.32001
1.32028
1.32059
1.32092
1.32129
1.32168
1.3221
1.32256
1.32305
1.32356
1.32411
1.32469
1.3253
1.32594
1.32661
1.32731
1.32804
1.3288
1.32958
1.33041
1.33125
1.33213
1.33303
1.33396
1.33491
1.33588
1.33688
1.33789
1.33892
1.33996
1.341
1.34206
1.34312
1.34418
1.34523
1.34628
1.34731
1.34833
1.34933
1.35031
1.35126
1.35219
1.35308
1.35394
1.35476
1.35555
1.3563
1.35701
1.35768
1.3583
1.35889
1.35944
1.35996
1.36044
1.36088
1.36129
1.36167
1.36202
1.36235
1.36265
1.36292
1.36318
1.36341
1.36363
1.36383
1.36402
1.36419
1.36435
1.3645
1.36465
1.36479
1.36492
1.36505
1.36518
1.3653
1.36542
1.36555
1.36567
1.36579
1.36591
1.36602
1.36614
1.36626
1.36637
1.36647
1.36658
1.36667
1.36676
1.36685
1.36692
1.36699
1.36704
1.36709
1.36713
1.36715
1.36717
1.36718
1.36718
1.36717
1.36715
1.36712
1.36709
1.36705
1.367
1.36695
1.36689
1.36683
1.36677
1.36671
1.36664
1.36658
1.36651
1.36644
1.36638
1.36632
1.36626
1.3662
1.36615
1.3661
1.36606
1.36602
1.36598
1.36595
1.36592
1.3659
1.36588
1.36587
1.36586
1.36586
1.36587
1.36588
1.36589
1.36591
1.36594
1.36597
1.366
1.36604
1.36609
1.36614
1.36619
1.36625
1.36632
1.36638
1.36645
1.36653
1.3666
1.36668
1.36676
1.36684
1.36691
1.367
1.36707
1.36715
1.36723
1.3673
1.36737
1.36744
1.3675
1.36756
1.36761
1.36765
1.36769
1.36772
1.36774
1.36775
1.36775
1.36775
1.36773
1.36771
1.36768
1.36764
1.36759
1.36753
1.36747
1.3674
1.36732
1.36724
1.36716
1.36707
1.36697
1.36688
1.36677
1.36667
1.36657
1.36646
1.36635
1.36623
1.36612
1.366
1.36588
1.36575
1.36563
1.36549
1.36536
1.36521
1.36506
1.36491
1.36474
1.36456
1.36438
1.36418
1.36397
1.36374
1.3635
1.36324
1.36297
1.36268
1.36237
1.36204
1.36168
1.36131
1.36091
1.36049
1.36005
1.35957
1.35907
1.35854
1.35799
1.3574
1.35679
1.35614
1.35547
1.35476
1.35403
1.35327
1.35249
1.35167
1.35084
1.34998
1.34911
1.34821
1.34731
1.34639
1.34546
1.34453
1.34359
1.34264
1.3417
1.34076
1.33982
1.33889
1.33797
1.33706
1.33616
1.33526
1.33439
1.33353
1.33268
1.33185
1.33104
1.33025
1.32948
1.32873
1.32801
1.3273
1.32661
1.32595
1.3253
1.32468
1.32408
1.32349
1.32293
1.32239
1.32187
1.32136
1.32088
1.32041
1.31996
1.31953
1.31911
1.31871
1.31832
1.31795
1.31759
1.31724
1.3169
1.31658
1.31626
1.31595
1.31566
1.31536
1.31508
1.3148
1.31453
1.31426
1.314
1.31373
1.31348
1.31322
1.31296
1.31271
1.31245
1.3122
1.31195
1.3117
1.31145
1.31121
1.31097
1.31073
1.3105
1.31028
1.31006
1.30985
1.30964
1.30945
1.30926
1.30909
1.30893
1.30877
1.30863
1.30852
1.30841
1.3083
1.30824
1.30822
1.30814
1.3081
1.30823
1.30827
1.30815
1.30841
1.30886
1.30861
1.30861
1.30986
1.31009
1.3092
1.31064
1.31272
1.31213
1.31212
1.31489
1.31689
1.33802
1.33653
1.33555
1.33457
1.33359
1.33275
1.33195
1.33112
1.33036
1.32967
1.32897
1.32829
1.32768
1.32708
1.3265
1.32597
1.32546
1.32498
1.32453
1.32411
1.32371
1.32334
1.32299
1.32267
1.32237
1.32209
1.32183
1.3216
1.32138
1.32117
1.32099
1.32082
1.32066
1.32051
1.32037
1.32023
1.32011
1.31999
1.31987
1.31976
1.31965
1.31954
1.31944
1.31933
1.31924
1.31914
1.31905
1.31897
1.31889
1.31881
1.31875
1.31869
1.31864
1.3186
1.31858
1.31857
1.31857
1.31859
1.31862
1.31868
1.31875
1.31884
1.31896
1.3191
1.31926
1.31945
1.31966
1.3199
1.32017
1.32046
1.32079
1.32115
1.32153
1.32195
1.32239
1.32287
1.32338
1.32392
1.32448
1.32509
1.32572
1.32638
1.32708
1.3278
1.32856
1.32935
1.33017
1.33101
1.33189
1.3328
1.33373
1.33468
1.33566
1.33666
1.33768
1.33872
1.33977
1.34083
1.3419
1.34297
1.34404
1.34511
1.34618
1.34723
1.34827
1.34929
1.3503
1.35127
1.35222
1.35314
1.35402
1.35487
1.35568
1.35645
1.35718
1.35787
1.35852
1.35912
1.35969
1.36022
1.36072
1.36118
1.3616
1.362
1.36237
1.3627
1.36302
1.36331
1.36357
1.36382
1.36405
1.36427
1.36446
1.36465
1.36483
1.36499
1.36515
1.3653
1.36545
1.36558
1.36572
1.36586
1.36599
1.36612
1.36625
1.36638
1.36651
1.36663
1.36676
1.36688
1.367
1.36712
1.36723
1.36733
1.36743
1.36752
1.36761
1.36768
1.36775
1.3678
1.36785
1.36788
1.36791
1.36792
1.36793
1.36793
1.36792
1.3679
1.36788
1.36784
1.36781
1.36776
1.36771
1.36766
1.36761
1.36755
1.36749
1.36743
1.36737
1.36731
1.36726
1.3672
1.36715
1.3671
1.36705
1.367
1.36696
1.36693
1.36689
1.36686
1.36684
1.36682
1.3668
1.36679
1.36679
1.36679
1.36679
1.3668
1.36682
1.36684
1.36686
1.36689
1.36693
1.36697
1.36701
1.36706
1.36711
1.36717
1.36723
1.3673
1.36737
1.36744
1.36751
1.36758
1.36765
1.36773
1.3678
1.36788
1.36795
1.36802
1.36809
1.36816
1.36822
1.36828
1.36833
1.36838
1.36842
1.36846
1.36849
1.36851
1.36852
1.36852
1.36852
1.3685
1.36848
1.36845
1.36841
1.36836
1.3683
1.36824
1.36817
1.36809
1.36801
1.36792
1.36783
1.36773
1.36763
1.36753
1.36742
1.36731
1.3672
1.36709
1.36697
1.36685
1.36672
1.3666
1.36647
1.36633
1.36619
1.36605
1.3659
1.36574
1.36558
1.3654
1.36522
1.36503
1.36482
1.36461
1.36437
1.36413
1.36387
1.36359
1.3633
1.36299
1.36266
1.36231
1.36194
1.36154
1.36112
1.36068
1.36021
1.35972
1.35919
1.35864
1.35806
1.35745
1.35681
1.35614
1.35545
1.35471
1.35396
1.35317
1.35236
1.35152
1.35066
1.34978
1.34889
1.34797
1.34705
1.34612
1.34517
1.34423
1.34328
1.34233
1.34138
1.34044
1.33949
1.33856
1.33764
1.33672
1.33582
1.33493
1.33406
1.3332
1.33237
1.33154
1.33074
1.32996
1.3292
1.32846
1.32775
1.32705
1.32638
1.32573
1.3251
1.32449
1.32391
1.32334
1.32279
1.32227
1.32176
1.32127
1.32081
1.32036
1.31992
1.3195
1.3191
1.31872
1.31834
1.31798
1.31764
1.3173
1.31697
1.31666
1.31635
1.31605
1.31576
1.31548
1.3152
1.31493
1.31467
1.3144
1.31414
1.31388
1.31363
1.31337
1.31312
1.31287
1.31262
1.31237
1.31212
1.31187
1.31163
1.31138
1.31115
1.31091
1.31068
1.31046
1.31025
1.31004
1.30984
1.30965
1.30948
1.30931
1.30915
1.30902
1.30888
1.30877
1.30869
1.30862
1.30854
1.30853
1.30857
1.30853
1.30856
1.3088
1.30889
1.30883
1.30929
1.30984
1.30964
1.31
1.31137
1.31164
1.31154
1.31308
1.3146
1.3154
1.31668
1.31823
1.33846
1.33685
1.33573
1.33462
1.33363
1.33272
1.33181
1.33098
1.33023
1.32947
1.32875
1.32809
1.32746
1.32685
1.32628
1.32575
1.32524
1.32476
1.32431
1.32389
1.3235
1.32313
1.32279
1.32247
1.32218
1.32191
1.32165
1.32142
1.32121
1.32101
1.32083
1.32066
1.3205
1.32035
1.32022
1.32009
1.31997
1.31985
1.31974
1.31963
1.31953
1.31943
1.31933
1.31923
1.31914
1.31905
1.31897
1.31889
1.31881
1.31874
1.31868
1.31863
1.31858
1.31855
1.31852
1.31851
1.31851
1.31853
1.31856
1.31861
1.31868
1.31877
1.31888
1.31902
1.31917
1.31935
1.31956
1.31979
1.32004
1.32033
1.32065
1.32099
1.32137
1.32177
1.3222
1.32267
1.32317
1.3237
1.32426
1.32486
1.32548
1.32614
1.32683
1.32755
1.3283
1.32909
1.3299
1.33075
1.33163
1.33253
1.33347
1.33443
1.33541
1.33642
1.33745
1.33849
1.33955
1.34062
1.3417
1.34279
1.34388
1.34497
1.34605
1.34713
1.34819
1.34924
1.35027
1.35127
1.35225
1.35319
1.3541
1.35498
1.35581
1.35661
1.35736
1.35808
1.35875
1.35938
1.35997
1.36051
1.36103
1.36151
1.36195
1.36236
1.36274
1.3631
1.36342
1.36373
1.36401
1.36427
1.36452
1.36475
1.36496
1.36516
1.36535
1.36553
1.36569
1.36586
1.36601
1.36616
1.36631
1.36646
1.3666
1.36674
1.36688
1.36701
1.36715
1.36729
1.36742
1.36755
1.36768
1.3678
1.36792
1.36803
1.36814
1.36824
1.36833
1.36841
1.36849
1.36855
1.3686
1.36865
1.36868
1.3687
1.36872
1.36873
1.36872
1.36871
1.36869
1.36867
1.36864
1.3686
1.36856
1.36852
1.36847
1.36842
1.36837