# vtk DataFile Version 2.0
LBE two cylinders
ASCII
DATASET STRUCTURED_POINTS
DIMENSIONS 400 100 1
ASPECT_RATIO 1 1 1
ORIGIN 0 0 0
POINT_DATA 40000
SCALARS rho double 1
LOOKUP_TABLE default
1.33859
1.33587
1.33614
1.33615
1.33522
1.33469
1.33435
1.33366
1.33303
1.33248
1.33187
1.33123
1.33065
1.33006
1.32947
1.3289
1.32835
1.32781
1.32728
1.32678
1.3263
1.32583
1.32538
1.32496
1.32455
1.32416
1.32379
1.32344
1.32311
1.3228
1.32251
1.32224
1.32198
1.32174
1.32152
1.32132
1.32113
1.32096
1.32081
1.32067
1.32055
1.32044
1.32036
1.32028
1.32022
1.32018
1.32016
1.32015
1.32015
1.32018
1.32021
1.32027
1.32034
1.32043
1.32054
1.32066
1.3208
1.32097
1.32115
1.32135
1.32157
1.32181
1.32207
1.32235
1.32266
1.32299
1.32335
1.32372
1.32413
1.32456
1.32501
1.32549
1.326
1.32653
1.3271
1.32769
1.32831
1.32895
1.32963
1.33033
1.33106
1.33181
1.33259
1.3334
1.33423
1.33508
1.33595
1.33685
1.33776
1.33869
1.33963
1.34058
1.34155
1.34252
1.3435
1.34448
1.34546
1.34643
1.34741
1.34837
1.34932
1.35026
1.35118
1.35209
1.35297
1.35383
1.35467
1.35548
1.35625
1.357
1.35772
1.3584
1.35905
1.35967
1.36025
1.36079
1.3613
1.36178
1.36223
1.36264
1.36302
1.36337
1.36369
1.36398
1.36425
1.36449
1.36471
1.3649
1.36508
1.36524
1.36538
1.3655
1.36562
1.36571
1.3658
1.36587
1.36594
1.36599
1.36604
1.36608
1.36611
1.36614
1.36617
1.36618
1.3662
1.36621
1.36622
1.36623
1.36623
1.36624
1.36624
1.36624
1.36624
1.36624
1.36624
1.36624
1.36623
1.36623
1.36623
1.36622
1.36622
1.36622
1.36621
1.36621
1.36621
1.36621
1.3662
1.3662
1.3662
1.3662
1.3662
1.36619
1.36619
1.36619
1.36619
1.36619
1.36619
1.36619
1.36619
1.36619
1.3662
1.3662
1.3662
1.3662
1.36621
1.36621
1.36621
1.36622
1.36622
1.36623
1.36624
1.36624
1.36625
1.36626
1.36627
1.36627
1.36628
1.3663
1.36631
1.36632
1.36633
1.36634
1.36636
1.36637
1.36639
1.36641
1.36643
1.36644
1.36646
1.36648
1.3665
1.36653
1.36655
1.36657
1.3666
1.36662
1.36665
1.36667
1.3667
1.36673
1.36675
1.36678
1.3668
1.36683
1.36686
1.36688
1.3669
1.36693
1.36695
1.36697
1.36698
1.367
1.36701
1.36702
1.36703
1.36703
1.36703
1.36703
1.36702
1.367
1.36699
1.36696
1.36694
1.3669
1.36686
1.36682
1.36677
1.36671
1.36665
1.36658
1.36651
1.36643
1.36634
1.36625
1.36616
1.36606
1.36595
1.36584
1.36573
1.36561
1.36549
1.36536
1.36523
1.3651
1.36496
1.36482
1.36467
1.36452
1.36436
1.3642
1.36404
1.36386
1.36368
1.36349
1.36329
1.36308
1.36285
1.36261
1.36236
1.36209
1.36179
1.36148
1.36115
1.36079
1.3604
1.35999
1.35954
1.35907
1.35857
1.35803
1.35746
1.35686
1.35623
1.35557
1.35487
1.35415
1.3534
1.35262
1.35182
1.35099
1.35015
1.34929
1.34841
1.34752
1.34662
1.34571
1.34479
1.34387
1.34295
1.34203
1.34111
1.34019
1.33928
1.33838
1.33749
1.33661
1.33573
1.33487
1.33403
1.33319
1.33238
1.33157
1.33079
1.33001
1.32926
1.32852
1.3278
1.32709
1.3264
1.32573
1.32508
1.32444
1.32382
1.32321
1.32262
1.32205
1.3215
1.32095
1.32043
1.31992
1.31942
1.31894
1.31847
1.31801
1.31757
1.31715
1.31673
1.31633
1.31594
1.31557
1.3152
1.31485
1.31451
1.31418
1.31386
1.31356
1.31326
1.31298
1.3127
1.31244
1.31218
1.31194
1.31171
1.31148
1.31127
1.31106
1.31087
1.31068
1.31051
1.31034
1.31018
1.31003
1.30989
1.30976
1.30964
1.30953
1.30942
1.30933
1.30925
1.30917
1.30911
1.30907
1.309
1.30897
1.30901
1.30897
1.30887
1.30902
1.30919
1.30886
1.30874
1.30967
1.30957
1.30752
1.30848
1.31237
1.30776
1.29904
1.30958
1.31863
1.33672
1.33685
1.33636
1.33569
1.33538
1.33488
1.33428
1.33369
1.33314
1.33252
1.3319
1.3313
1.3307
1.3301
1.32952
1.32895
1.32839
1.32785
1.32733
1.32683
1.32634
1.32587
1.32543
1.325
1.32459
1.3242
1.32383
1.32348
1.32315
1.32284
1.32254
1.32227
1.32201
1.32177
1.32155
1.32135
1.32116
1.32099
1.32084
1.3207
1.32058
1.32047
1.32038
1.32031
1.32025
1.32021
1.32018
1.32017
1.32018
1.3202
1.32024
1.32029
1.32036
1.32045
1.32056
1.32068
1.32082
1.32098
1.32116
1.32136
1.32158
1.32182
1.32208
1.32237
1.32267
1.323
1.32335
1.32373
1.32413
1.32456
1.32501
1.32549
1.326
1.32653
1.32709
1.32768
1.3283
1.32894
1.32961
1.33031
1.33103
1.33179
1.33256
1.33337
1.33419
1.33504
1.33591
1.3368
1.33771
1.33864
1.33958
1.34053
1.34149
1.34246
1.34344
1.34442
1.34539
1.34637
1.34734
1.3483
1.34926
1.35019
1.35112
1.35202
1.35291
1.35377
1.3546
1.35541
1.35619
1.35694
1.35766
1.35835
1.359
1.35962
1.3602
1.36075
1.36126
1.36174
1.36219
1.3626
1.36298
1.36334
1.36366
1.36395
1.36422
1.36447
1.36469
1.36489
1.36506
1.36522
1.36537
1.36549
1.3656
1.3657
1.36579
1.36586
1.36593
1.36598
1.36603
1.36607
1.36611
1.36614
1.36616
1.36618
1.3662
1.36621
1.36622
1.36623
1.36623
1.36623
1.36624
1.36624
1.36624
1.36624
1.36623
1.36623
1.36623
1.36623
1.36622
1.36622
1.36622
1.36621
1.36621
1.36621
1.3662
1.3662
1.3662
1.3662
1.36619
1.36619
1.36619
1.36619
1.36619
1.36619
1.36619
1.36619
1.36619
1.36619
1.36619
1.36619
1.36619
1.36619
1.36619
1.3662
1.3662
1.3662
1.36621
1.36621
1.36622
1.36622
1.36623
1.36623
1.36624
1.36625
1.36626
1.36627
1.36628
1.36629
1.3663
1.36631
1.36632
1.36633
1.36635
1.36636
1.36638
1.3664
1.36641
1.36643
1.36645
1.36647
1.36649
1.36651
1.36653
1.36656
1.36658
1.3666
1.36663
1.36665
1.36668
1.36671
1.36673
1.36676
1.36678
1.36681
1.36683
1.36686
1.36688
1.3669
1.36692
1.36694
1.36696
1.36697
1.36699
1.36699
1.367
1.367
1.367
1.367
1.36699
1.36698
1.36696
1.36693
1.36691
1.36687
1.36683
1.36679
1.36674
1.36668
1.36662
1.36655
1.36648
1.3664
1.36631
1.36622
1.36612
1.36602
1.36592
1.36581
1.36569
1.36557
1.36545
1.36532
1.36519
1.36505
1.36491
1.36477
1.36462
1.36447
1.36431
1.36415
1.36398
1.3638
1.36362
1.36343
1.36322
1.36301
1.36278
1.36254
1.36228
1.36201
1.36172
1.3614
1.36106
1.3607
1.36032
1.3599
1.35946
1.35899
1.35849
1.35795
1.35739
1.35679
1.35616
1.3555
1.35481
1.35409
1.35334
1.35257
1.35177
1.35095
1.35011
1.34926
1.34838
1.3475
1.3466
1.3457
1.34478
1.34387
1.34295
1.34203
1.34112
1.34021
1.3393
1.33841
1.33752
1.33664
1.33577
1.33491
1.33407
1.33323
1.33242
1.33162
1.33083
1.33006
1.32931
1.32857
1.32785
1.32714
1.32645
1.32578
1.32513
1.32449
1.32387
1.32326
1.32267
1.3221
1.32154
1.321
1.32047
1.31996
1.31946
1.31898
1.31851
1.31805
1.31761
1.31718
1.31677
1.31636
1.31597
1.31559
1.31523
1.31488
1.31453
1.3142
1.31388
1.31358
1.31328
1.31299
1.31272
1.31245
1.31219
1.31195
1.31171
1.31149
1.31127
1.31106
1.31087
1.31068
1.3105
1.31033
1.31017
1.31002
1.30987
1.30974
1.30961
1.3095
1.30939
1.30929
1.3092
1.30912
1.30904
1.30898
1.30895
1.30889
1.30883
1.30886
1.30886
1.30874
1.30874
1.30899
1.30882
1.30833
1.30875
1.30943
1.30772
1.30624
1.30889
1.30834
1.29847
1.293
1.33604
1.33703
1.33631
1.3356
1.33557
1.33499
1.33428
1.33378
1.33322
1.33255
1.33195
1.33136
1.33074
1.33013
1.32956
1.32898
1.32842
1.32788
1.32736
1.32685
1.32636
1.32589
1.32544
1.32502
1.32461
1.32422
1.32385
1.3235
1.32316
1.32285
1.32256
1.32228
1.32202
1.32179
1.32156
1.32136
1.32117
1.321
1.32085
1.32071
1.32059
1.32048
1.32039
1.32032
1.32026
1.32022
1.32019
1.32018
1.32018
1.32021
1.32024
1.3203
1.32037
1.32045
1.32056
1.32068
1.32082
1.32098
1.32116
1.32136
1.32158
1.32182
1.32208
1.32236
1.32266
1.32299
1.32334
1.32371
1.32411
1.32454
1.32499
1.32546
1.32597
1.3265
1.32706
1.32764
1.32825
1.3289
1.32956
1.33026
1.33098
1.33173
1.33251
1.33331
1.33413
1.33498
1.33585
1.33674
1.33765
1.33857
1.33951
1.34046
1.34142
1.34239
1.34337
1.34435
1.34533
1.3463
1.34727
1.34824
1.34919
1.35013
1.35106
1.35197
1.35285
1.35372
1.35456
1.35537
1.35615
1.35691
1.35763
1.35832
1.35897
1.35959
1.36018
1.36073
1.36124
1.36173
1.36218
1.36259
1.36298
1.36333
1.36365
1.36395
1.36422
1.36447
1.36469
1.36489
1.36506
1.36522
1.36537
1.36549
1.3656
1.3657
1.36579
1.36586
1.36593
1.36598
1.36603
1.36607
1.36611
1.36614
1.36616
1.36618
1.36619
1.36621
1.36622
1.36622
1.36623
1.36623
1.36623
1.36623
1.36623
1.36623
1.36623
1.36623
1.36623
1.36622
1.36622
1.36622
1.36621
1.36621
1.36621
1.3662
1.3662
1.3662
1.36619
1.36619
1.36619
1.36619
1.36619
1.36618
1.36618
1.36618
1.36618
1.36618
1.36618
1.36618
1.36618
1.36618
1.36618
1.36619
1.36619
1.36619
1.36619
1.3662
1.3662
1.3662
1.36621
1.36621
1.36622
1.36623
1.36623
1.36624
1.36625
1.36626
1.36627
1.36628
1.36629
1.3663
1.36631
1.36632
1.36634
1.36635
1.36637
1.36638
1.3664
1.36642
1.36644
1.36645
1.36647
1.3665
1.36652
1.36654
1.36656
1.36659
1.36661
1.36664
1.36666
1.36669
1.36671
1.36674
1.36676
1.36679
1.36681
1.36683
1.36686
1.36688
1.3669
1.36692
1.36693
1.36695
1.36696
1.36697
1.36698
1.36698
1.36698
1.36697
1.36696
1.36695
1.36693
1.36691
1.36688
1.36685
1.36681
1.36676
1.36671
1.36666
1.36659
1.36652
1.36645
1.36637
1.36628
1.36619
1.3661
1.366
1.36589
1.36578
1.36566
1.36554
1.36542
1.36529
1.36515
1.36502
1.36488
1.36473
1.36458
1.36443
1.36427
1.3641
1.36393
1.36375
1.36357
1.36337
1.36317
1.36295
1.36272
1.36248
1.36222
1.36195
1.36165
1.36134
1.361
1.36064
1.36025
1.35984
1.3594
1.35893
1.35842
1.35789
1.35733
1.35673
1.3561
1.35545
1.35476
1.35404
1.3533
1.35253
1.35173
1.35091
1.35008
1.34922
1.34835
1.34747
1.34657
1.34567
1.34476
1.34385
1.34294
1.34202
1.34111
1.3402
1.3393
1.33841
1.33752
1.33664
1.33578
1.33492
1.33408
1.33325
1.33244
1.33164
1.33085
1.33008
1.32933
1.32859
1.32787
1.32717
1.32648
1.32581
1.32516
1.32452
1.3239
1.32329
1.3227
1.32213
1.32157
1.32103
1.3205
1.31999
1.31949
1.319
1.31853
1.31808
1.31763
1.3172
1.31679
1.31638
1.31599
1.31561
1.31525
1.31489
1.31455
1.31422
1.3139
1.31359
1.31329
1.313
1.31272
1.31246
1.3122
1.31195
1.31171
1.31149
1.31127
1.31106
1.31086
1.31067
1.31049
1.31032
1.31015
1.31
1.30985
1.30971
1.30958
1.30946
1.30935
1.30924
1.30915
1.30907
1.30899
1.3089
1.30887
1.30883
1.30873
1.30868
1.30879
1.30871
1.30842
1.30866
1.30905
1.30819
1.3076
1.30945
1.30912
1.30433
1.30632
1.31315
1.30079
1.28866
1.33647
1.33654
1.33641
1.33615
1.33562
1.33495
1.33447
1.33389
1.33322
1.33261
1.33201
1.33137
1.33075
1.33016
1.32956
1.32898
1.32842
1.32788
1.32735
1.32684
1.32636
1.32589
1.32544
1.32501
1.3246
1.32421
1.32384
1.32348
1.32315
1.32284
1.32255
1.32227
1.32201
1.32178
1.32155
1.32135
1.32116
1.32099
1.32084
1.3207
1.32058
1.32047
1.32038
1.32031
1.32025
1.32021
1.32018
1.32017
1.32017
1.32019
1.32023
1.32028
1.32035
1.32044
1.32054
1.32066
1.3208
1.32096
1.32114
1.32133
1.32155
1.32179
1.32205
1.32232
1.32263
1.32295
1.3233
1.32367
1.32407
1.32449
1.32493
1.32541
1.32591
1.32643
1.32699
1.32757
1.32818
1.32882
1.32949
1.33018
1.3309
1.33165
1.33242
1.33322
1.33404
1.33489
1.33576
1.33665
1.33755
1.33848
1.33942
1.34037
1.34133
1.34231
1.34328
1.34426
1.34525
1.34623
1.3472
1.34817
1.34913
1.35007
1.351
1.35192
1.35281
1.35368
1.35452
1.35534
1.35613
1.35689
1.35761
1.35831
1.35897
1.35959
1.36018
1.36073
1.36125
1.36174
1.36219
1.36261
1.36299
1.36335
1.36367
1.36397
1.36424
1.36448
1.3647
1.3649
1.36508
1.36524
1.36538
1.3655
1.36562
1.36571
1.3658
1.36587
1.36594
1.36599
1.36604
1.36608
1.36611
1.36614
1.36616
1.36618
1.3662
1.36621
1.36622
1.36622
1.36623
1.36623
1.36623
1.36623
1.36623
1.36623
1.36623
1.36623
1.36622
1.36622
1.36622
1.36621
1.36621
1.36621
1.3662
1.3662
1.3662
1.36619
1.36619
1.36619
1.36618
1.36618
1.36618
1.36618
1.36618
1.36618
1.36618
1.36617
1.36617
1.36617
1.36618
1.36618
1.36618
1.36618
1.36618
1.36618
1.36619
1.36619
1.36619
1.3662
1.3662
1.36621
1.36621
1.36622
1.36622
1.36623
1.36624
1.36625
1.36625
1.36626
1.36627
1.36629
1.3663
1.36631
1.36632
1.36634
1.36635
1.36637
1.36638
1.3664
1.36642
1.36644
1.36646
1.36648
1.3665
1.36652
1.36654
1.36657
1.36659
1.36662
1.36664
1.36667
1.36669
1.36672
1.36674
1.36677
1.36679
1.36681
1.36684
1.36686
1.36688
1.36689
1.36691
1.36693
1.36694
1.36695
1.36695
1.36696
1.36696
1.36695
1.36694
1.36693
1.36691
1.36689
1.36686
1.36683
1.36679
1.36674
1.36669
1.36663
1.36657
1.3665
1.36643
1.36635
1.36626
1.36617
1.36607
1.36597
1.36586
1.36575
1.36563
1.36551
1.36539
1.36526
1.36512
1.36498
1.36484
1.36469
1.36454
1.36439
1.36423
1.36406
1.36389
1.36371
1.36352
1.36333
1.36312
1.3629
1.36267
1.36243
1.36217
1.36189
1.3616
1.36128
1.36095
1.36058
1.3602
1.35978
1.35934
1.35887
1.35836
1.35783
1.35727
1.35667
1.35604
1.35538
1.35469
1.35398
1.35323
1.35246
1.35166
1.35085
1.35001
1.34916
1.34829
1.34741
1.34651
1.34561
1.34471
1.3438
1.34288
1.34197
1.34106
1.34016
1.33926
1.33836
1.33748
1.33661
1.33574
1.33489
1.33405
1.33323
1.33241
1.33162
1.33084
1.33007
1.32932
1.32859
1.32787
1.32717
1.32648
1.32581
1.32516
1.32453
1.32391
1.3233
1.32271
1.32214
1.32158
1.32104
1.32051
1.32
1.3195
1.31902
1.31855
1.31809
1.31765
1.31722
1.3168
1.3164
1.31601
1.31563
1.31526
1.31491
1.31456
1.31423
1.31391
1.3136
1.3133
1.31301
1.31273
1.31246
1.3122
1.31196
1.31172
1.31149
1.31127
1.31106
1.31086
1.31067
1.31048
1.31031
1.31014
1.30999
1.30984
1.3097
1.30957
1.30944
1.30933
1.30923
1.30912
1.30903
1.30897
1.30889
1.3088
1.30876
1.30878
1.30866
1.30854
1.30871
1.30878
1.30829
1.3083
1.30919
1.30857
1.30688
1.30852
1.31017
1.30544
1.30339
1.30875
1.30939
1.33725
1.33695
1.33679
1.33641
1.33568
1.33512
1.33464
1.33392
1.33326
1.33267
1.33202
1.33136
1.33076
1.33015
1.32954
1.32896
1.3284
1.32785
1.32732
1.32681
1.32632
1.32584
1.32539
1.32496
1.32455
1.32416
1.32379
1.32344
1.32311
1.3228
1.32251
1.32223
1.32198
1.32174
1.32152
1.32132
1.32113
1.32096
1.32081
1.32067
1.32055
1.32044
1.32035
1.32028
1.32022
1.32018
1.32015
1.32014
1.32014
1.32016
1.3202
1.32025
1.32032
1.3204
1.32051
1.32063
1.32076
1.32092
1.32109
1.32129
1.3215
1.32174
1.32199
1.32227
1.32256
1.32289
1.32323
1.3236
1.32399
1.32441
1.32485
1.32532
1.32582
1.32634
1.32689
1.32747
1.32808
1.32871
1.32937
1.33006
1.33078
1.33153
1.3323
1.3331
1.33392
1.33477
1.33563
1.33652
1.33743
1.33836
1.3393
1.34025
1.34122
1.3422
1.34318
1.34416
1.34515
1.34613
1.34712
1.34809
1.34905
1.35001
1.35095
1.35186
1.35276
1.35364
1.35449
1.35532
1.35611
1.35688
1.35761
1.35831
1.35898
1.35961
1.3602
1.36076
1.36128
1.36177
1.36222
1.36264
1.36303
1.36338
1.3637
1.364
1.36427
1.36451
1.36473
1.36493
1.36511
1.36526
1.3654
1.36553
1.36563
1.36573
1.36581
1.36589
1.36595
1.366
1.36605
1.36608
1.36612
1.36614
1.36617
1.36618
1.3662
1.36621
1.36622
1.36622
1.36623
1.36623
1.36623
1.36623
1.36623
1.36623
1.36623
1.36622
1.36622
1.36622
1.36621
1.36621
1.3662
1.3662
1.3662
1.36619
1.36619
1.36619
1.36618
1.36618
1.36618
1.36618
1.36617
1.36617
1.36617
1.36617
1.36617
1.36617
1.36617
1.36617
1.36617
1.36617
1.36617
1.36617
1.36617
1.36618
1.36618
1.36618
1.36618
1.36619
1.36619
1.3662
1.3662
1.36621
1.36621
1.36622
1.36623
1.36623
1.36624
1.36625
1.36626
1.36627
1.36628
1.3663
1.36631
1.36632
1.36634
1.36635
1.36637
1.36639
1.3664
1.36642
1.36644
1.36646
1.36648
1.3665
1.36653
1.36655
1.36657
1.3666
1.36662
1.36665
1.36667
1.36669
1.36672
1.36674
1.36677
1.36679
1.36681
1.36683
1.36685
1.36687
1.36689
1.3669
1.36692
1.36692
1.36693
1.36693
1.36693
1.36693
1.36692
1.36691
1.36689
1.36687
1.36684
1.3668
1.36677
1.36672
1.36667
1.36661
1.36655
1.36648
1.36641
1.36633
1.36624
1.36615
1.36605
1.36595
1.36584
1.36573
1.36561
1.36549
1.36536
1.36523
1.36509
1.36496
1.36481
1.36467
1.36451
1.36436
1.3642
1.36403
1.36386
1.36368
1.36349
1.36329
1.36308
1.36287
1.36264
1.36239
1.36213
1.36185
1.36155
1.36124
1.3609
1.36053
1.36014
1.35972
1.35928
1.3588
1.3583
1.35776
1.35719
1.35659
1.35596
1.35529
1.3546
1.35388
1.35313
1.35235
1.35156
1.35074
1.3499
1.34904
1.34817
1.34729
1.3464
1.3455
1.34459
1.34368
1.34277
1.34186
1.34095
1.34005
1.33915
1.33826
1.33738
1.33651
1.33565
1.33481
1.33397
1.33315
1.33234
1.33155
1.33077
1.33001
1.32927
1.32854
1.32782
1.32713
1.32645
1.32578
1.32514
1.3245
1.32389
1.32329
1.3227
1.32213
1.32158
1.32104
1.32051
1.32
1.31951
1.31903
1.31856
1.3181
1.31766
1.31723
1.31682
1.31641
1.31602
1.31564
1.31528
1.31492
1.31458
1.31425
1.31393
1.31362
1.31332
1.31303
1.31275
1.31248
1.31222
1.31197
1.31173
1.31151
1.31129
1.31108
1.31087
1.31068
1.3105
1.31033
1.31016
1.31
1.30985
1.30971
1.30958
1.30946
1.30934
1.30924
1.30915
1.30905
1.30897
1.30893
1.30886
1.30876
1.30877
1.30882
1.30866
1.30857
1.3089
1.30888
1.30825
1.30873
1.30973
1.3082
1.30726
1.31064
1.30995
1.30502
1.30835
1.31088
1.33816
1.33773
1.33718
1.33653
1.33598
1.33539
1.33466
1.33397
1.33336
1.33267
1.33199
1.33136
1.33073
1.33009
1.32949
1.3289
1.32833
1.32777
1.32724
1.32673
1.32624
1.32577
1.32532
1.32489
1.32448
1.32409
1.32372
1.32337
1.32304
1.32273
1.32244
1.32217
1.32192
1.32168
1.32146
1.32126
1.32107
1.32091
1.32075
1.32062
1.3205
1.32039
1.3203
1.32023
1.32017
1.32013
1.3201
1.32009
1.32009
1.32011
1.32015
1.3202
1.32027
1.32035
1.32045
1.32057
1.3207
1.32086
1.32103
1.32122
1.32143
1.32166
1.32191
1.32219
1.32248
1.3228
1.32314
1.3235
1.32389
1.3243
1.32474
1.3252
1.3257
1.32622
1.32676
1.32734
1.32794
1.32857
1.32923
1.32992
1.33063
1.33138
1.33215
1.33294
1.33376
1.33461
1.33548
1.33637
1.33728
1.33821
1.33915
1.34011
1.34108
1.34206
1.34305
1.34404
1.34503
1.34602
1.34701
1.34799
1.34897
1.34993
1.35088
1.35181
1.35271
1.3536
1.35446
1.3553
1.3561
1.35688
1.35762
1.35832
1.359
1.35963
1.36023
1.36079
1.36132
1.36181
1.36227
1.36269
1.36307
1.36343
1.36375
1.36405
1.36432
1.36456
1.36477
1.36497
1.36514
1.3653
1.36543
1.36556
1.36566
1.36575
1.36584
1.36591
1.36596
1.36602
1.36606
1.3661
1.36613
1.36615
1.36617
1.36619
1.3662
1.36621
1.36622
1.36623
1.36623
1.36623
1.36623
1.36623
1.36623
1.36623
1.36622
1.36622
1.36622
1.36621
1.36621
1.3662
1.3662
1.3662
1.36619
1.36619
1.36619
1.36618
1.36618
1.36618
1.36617
1.36617
1.36617
1.36617
1.36617
1.36616
1.36616
1.36616
1.36616
1.36616
1.36616
1.36616
1.36616
1.36616
1.36617
1.36617
1.36617
1.36617
1.36617
1.36618
1.36618
1.36619
1.36619
1.3662
1.3662
1.36621
1.36622
1.36622
1.36623
1.36624
1.36625
1.36626
1.36627
1.36628
1.3663
1.36631
1.36632
1.36634
1.36635
1.36637
1.36639
1.36641
1.36642
1.36644
1.36646
1.36649
1.36651
1.36653
1.36655
1.36658
1.3666
1.36662
1.36665
1.36667
1.3667
1.36672
1.36675
1.36677
1.36679
1.36681
1.36683
1.36685
1.36687
1.36688
1.36689
1.3669
1.36691
1.36691
1.36691
1.36691
1.3669
1.36689
1.36687
1.36685
1.36682
1.36678
1.36674
1.3667
1.36665
1.36659
1.36653
1.36646
1.36639
1.3663
1.36622
1.36613
1.36603
1.36593
1.36582
1.3657
1.36559
1.36546
1.36534
1.36521
1.36507
1.36493
1.36479
1.36464
1.36449
1.36433
1.36417
1.36401
1.36383
1.36365
1.36346
1.36327
1.36306
1.36284
1.36261
1.36236
1.3621
1.36182
1.36151
1.36119
1.36085
1.36048
1.36008
1.35966
1.35921
1.35873
1.35821
1.35767
1.35709
1.35648
1.35584
1.35517
1.35447
1.35374
1.35299
1.35221
1.3514
1.35058
1.34974
1.34888
1.348
1.34712
1.34622
1.34532
1.34442
1.34351
1.3426
1.34169
1.34078
1.33988
1.33899
1.3381
1.33722
1.33635
1.3355
1.33466
1.33383
1.33301
1.33221
1.33142
1.33065
1.3299
1.32916
1.32844
1.32773
1.32705
1.32637
1.32571
1.32507
1.32445
1.32384
1.32324
1.32267
1.3221
1.32155
1.32102
1.3205
1.31999
1.3195
1.31902
1.31856
1.31811
1.31767
1.31725
1.31683
1.31643
1.31604
1.31567
1.3153
1.31495
1.31461
1.31428
1.31396
1.31365
1.31335
1.31306
1.31278
1.31252
1.31226
1.31201
1.31178
1.31155
1.31133
1.31112
1.31092
1.31073
1.31055
1.31037
1.31021
1.31005
1.30991
1.30977
1.30964
1.30953
1.30942
1.30931
1.30922
1.30916
1.30907
1.30899
1.309
1.30896
1.30885
1.30889
1.30907
1.3089
1.30872
1.30929
1.30951
1.30856
1.30903
1.31086
1.30947
1.30778
1.31107
1.31289
1.30989
1.30956
1.33921
1.3384
1.33765
1.3369
1.33627
1.33551
1.33472
1.33407
1.33337
1.33263
1.33196
1.33131
1.33064
1.33
1.3294
1.32879
1.32821
1.32766
1.32713
1.32661
1.32612
1.32565
1.3252
1.32478
1.32437
1.32398
1.32362
1.32327
1.32295
1.32264
1.32235
1.32208
1.32183
1.3216
1.32138
1.32118
1.321
1.32083
1.32068
1.32055
1.32043
1.32032
1.32024
1.32016
1.32011
1.32006
1.32004
1.32003
1.32003
1.32005
1.32008
1.32013
1.3202
1.32028
1.32038
1.32049
1.32063
1.32078
1.32095
1.32113
1.32134
1.32157
1.32181
1.32208
1.32237
1.32268
1.32302
1.32338
1.32376
1.32417
1.3246
1.32506
1.32555
1.32606
1.3266
1.32718
1.32777
1.3284
1.32905
1.32974
1.33045
1.33119
1.33196
1.33275
1.33357
1.33442
1.33529
1.33618
1.33709
1.33802
1.33897
1.33993
1.34091
1.3419
1.34289
1.34389
1.34489
1.34589
1.34689
1.34788
1.34886
1.34983
1.35079
1.35173
1.35265
1.35355
1.35443
1.35527
1.35609
1.35687
1.35762
1.35834
1.35902
1.35966
1.36027
1.36084
1.36137
1.36186
1.36232
1.36274
1.36313
1.36349
1.36381
1.3641
1.36437
1.36461
1.36482
1.36502
1.36519
1.36534
1.36547
1.36559
1.3657
1.36578
1.36586
1.36593
1.36599
1.36603
1.36608
1.36611
1.36614
1.36616
1.36618
1.3662
1.36621
1.36622
1.36622
1.36623
1.36623
1.36623
1.36623
1.36623
1.36623
1.36622
1.36622
1.36622
1.36621
1.36621
1.3662
1.3662
1.3662
1.36619
1.36619
1.36618
1.36618
1.36618
1.36617
1.36617
1.36617
1.36617
1.36616
1.36616
1.36616
1.36616
1.36616
1.36616
1.36615
1.36615
1.36615
1.36615
1.36616
1.36616
1.36616
1.36616
1.36616
1.36616
1.36617
1.36617
1.36617
1.36618
1.36618
1.36619
1.36619
1.3662
1.36621
1.36621
1.36622
1.36623
1.36624
1.36625
1.36626
1.36627
1.36628
1.36629
1.36631
1.36632
1.36634
1.36635
1.36637
1.36639
1.36641
1.36643
1.36645
1.36647
1.36649
1.36651
1.36653
1.36656
1.36658
1.3666
1.36663
1.36665
1.36668
1.3667
1.36672
1.36675
1.36677
1.36679
1.36681
1.36683
1.36684
1.36686
1.36687
1.36688
1.36689
1.36689
1.36689
1.36689
1.36688
1.36686
1.36685
1.36682
1.36679
1.36676
1.36672
1.36668
1.36663
1.36657
1.36651
1.36644
1.36636
1.36628
1.3662
1.3661
1.36601
1.3659
1.3658
1.36568
1.36557
1.36544
1.36532
1.36519
1.36505
1.36491
1.36477
1.36463
1.36447
1.36432
1.36416
1.36399
1.36381
1.36364
1.36345
1.36325
1.36304
1.36282
1.36258
1.36233
1.36207
1.36178
1.36148
1.36115
1.3608
1.36043
1.36003
1.35959
1.35913
1.35864
1.35812
1.35756
1.35697
1.35635
1.3557
1.35502
1.35431
1.35357
1.35281
1.35202
1.3512
1.35037
1.34952
1.34866
1.34778
1.34689
1.34599
1.34509
1.34418
1.34327
1.34236
1.34145
1.34055
1.33964
1.33875
1.33787
1.33699
1.33613
1.33528
1.33444
1.33362
1.33281
1.33202
1.33124
1.33048
1.32973
1.329
1.32829
1.32759
1.32691
1.32625
1.3256
1.32497
1.32436
1.32376
1.32317
1.3226
1.32205
1.32151
1.32098
1.32047
1.31997
1.31949
1.31902
1.31856
1.31811
1.31768
1.31726
1.31685
1.31646
1.31607
1.3157
1.31534
1.31499
1.31465
1.31432
1.31401
1.3137
1.31341
1.31312
1.31285
1.31258
1.31233
1.31208
1.31185
1.31162
1.3114
1.3112
1.311
1.31081
1.31063
1.31046
1.3103
1.31015
1.31001
1.30988
1.30975
1.30964
1.30954
1.30945
1.30936
1.3093
1.30926
1.3092
1.30915
1.30921
1.30921
1.30911
1.30925
1.30952
1.30932
1.30929
1.31013
1.31021
1.30939
1.31062
1.31211
1.31072
1.31093
1.31347
1.31374
1.31439
1.34025
1.33899
1.33816
1.33732
1.33644
1.3356
1.33486
1.3341
1.3333
1.33258
1.3319
1.33119
1.33051
1.32988
1.32925
1.32864
1.32807
1.32751
1.32697
1.32646
1.32597
1.3255
1.32505
1.32463
1.32423
1.32384
1.32348
1.32314
1.32282
1.32251
1.32223
1.32197
1.32172
1.32149
1.32127
1.32108
1.3209
1.32074
1.32059
1.32046
1.32034
1.32024
1.32015
1.32008
1.32002
1.31998
1.31996
1.31994
1.31995
1.31996
1.32
1.32005
1.32011
1.32019
1.32029
1.3204
1.32053
1.32068
1.32084
1.32103
1.32123
1.32145
1.32169
1.32196
1.32224
1.32255
1.32288
1.32323
1.32361
1.32401
1.32444
1.32489
1.32537
1.32588
1.32642
1.32698
1.32757
1.3282
1.32885
1.32952
1.33023
1.33097
1.33173
1.33253
1.33335
1.33419
1.33506
1.33596
1.33687
1.3378
1.33876
1.33972
1.34071
1.3417
1.3427
1.34371
1.34472
1.34573
1.34673
1.34774
1.34873
1.34972
1.35069
1.35164
1.35258
1.35349
1.35438
1.35524
1.35607
1.35687
1.35763
1.35836
1.35905
1.3597
1.36031
1.36089
1.36143
1.36193
1.36239
1.36281
1.3632
1.36355
1.36388
1.36417
1.36443
1.36467
1.36488
1.36507
1.36524
1.36539
1.36552
1.36563
1.36573
1.36582
1.36589
1.36595
1.36601
1.36606
1.36609
1.36613
1.36615
1.36617
1.36619
1.36621
1.36622
1.36622
1.36623
1.36623
1.36623
1.36623
1.36623
1.36623
1.36623
1.36622
1.36622
1.36621
1.36621
1.36621
1.3662
1.3662
1.36619
1.36619
1.36618
1.36618
1.36618
1.36617
1.36617
1.36617
1.36616
1.36616
1.36616
1.36616
1.36615
1.36615
1.36615
1.36615
1.36615
1.36615
1.36615
1.36615
1.36615
1.36615
1.36615
1.36615
1.36615
1.36616
1.36616
1.36616
1.36616
1.36617
1.36617
1.36618
1.36618
1.36619
1.36619
1.3662
1.36621
1.36622
1.36623
1.36624
1.36625
1.36626
1.36627
1.36628
1.36629
1.36631
1.36632
1.36634
1.36636
1.36637
1.36639
1.36641
1.36643
1.36645
1.36647
1.36649
1.36651
1.36654
1.36656
1.36658
1.36661
1.36663
1.36666
1.36668
1.3667
1.36673
1.36675
1.36677
1.36679
1.36681
1.36682
1.36684
1.36685
1.36686
1.36686
1.36687
1.36687
1.36686
1.36685
1.36684
1.36682
1.3668
1.36677
1.36674
1.3667
1.36665
1.3666
1.36655
1.36648
1.36641
1.36634
1.36626
1.36617
1.36608
1.36598
1.36588
1.36577
1.36566
1.36554
1.36542
1.3653
1.36517
1.36503
1.3649
1.36476
1.36461
1.36446
1.36431
1.36414
1.36398
1.36381
1.36363
1.36343
1.36324
1.36303
1.3628
1.36257
1.36232
1.36205
1.36176
1.36145
1.36112
1.36076
1.36038
1.35997
1.35952
1.35905
1.35855
1.35801
1.35744
1.35684
1.3562
1.35554
1.35484
1.35412
1.35337
1.35259
1.35178
1.35096
1.35012
1.34926
1.34839
1.34751
1.34661
1.34571
1.3448
1.34389
1.34298
1.34206
1.34115
1.34025
1.33935
1.33846
1.33758
1.33671
1.33585
1.335
1.33417
1.33335
1.33255
1.33177
1.331
1.33025
1.32951
1.32879
1.32809
1.32741
1.32674
1.32609
1.32545
1.32483
1.32423
1.32364
1.32307
1.32251
1.32197
1.32144
1.32092
1.32042
1.31994
1.31946
1.319
1.31855
1.31811
1.31769
1.31728
1.31688
1.31649
1.31611
1.31575
1.31539
1.31505
1.31472
1.31439
1.31408
1.31378
1.31349
1.31321
1.31294
1.31268
1.31242
1.31218
1.31195
1.31173
1.31152
1.31131
1.31112
1.31094
1.31076
1.3106
1.31044
1.3103
1.31016
1.31004
1.30993
1.30982
1.30973
1.30966
1.30959
1.30952
1.3095
1.30951
1.30946
1.30945
1.30961
1.30967
1.30956
1.30984
1.31031
1.31007
1.31009
1.31135
1.3116
1.31072
1.31218
1.31429
1.31372
1.31373
1.31653
1.31857
1.34108
1.33959
1.33859
1.33758
1.33659
1.33573
1.33489
1.33403
1.33323
1.3325
1.33175
1.33102
1.33036
1.3297
1.32906
1.32845
1.32787
1.32731
1.32677
1.32627
1.32578
1.32531
1.32487
1.32445
1.32405
1.32367
1.32332
1.32298
1.32266
1.32237
1.32209
1.32183
1.32158
1.32136
1.32115
1.32096
1.32078
1.32062
1.32048
1.32035
1.32024
1.32014
1.32005
1.31998
1.31993
1.31989
1.31986
1.31985
1.31985
1.31987
1.3199
1.31995
1.32001
1.32009
1.32018
1.32029
1.32042
1.32056
1.32072
1.3209
1.3211
1.32132
1.32156
1.32181
1.32209
1.32239
1.32272
1.32307
1.32343
1.32383
1.32425
1.3247
1.32517
1.32567
1.3262
1.32676
1.32735
1.32796
1.3286
1.32928
1.32999
1.33072
1.33148
1.33227
1.33309
1.33393
1.3348
1.3357
1.33661
1.33755
1.33851
1.33948
1.34047
1.34146
1.34247
1.34349
1.34451
1.34553
1.34655
1.34757
1.34858
1.34958
1.35056
1.35153
1.35248
1.35341
1.35431
1.35519
1.35603
1.35685
1.35763
1.35837
1.35907
1.35974
1.36036
1.36094
1.36149
1.36199
1.36245
1.36288
1.36327
1.36363
1.36395
1.36424
1.3645
1.36473
1.36494
1.36513
1.36529
1.36544
1.36556
1.36567
1.36577
1.36585
1.36592
1.36598
1.36603
1.36608
1.36611
1.36614
1.36617
1.36619
1.3662
1.36621
1.36622
1.36623
1.36623
1.36623
1.36623
1.36623
1.36623
1.36623
1.36622
1.36622
1.36622
1.36621
1.36621
1.3662
1.3662
1.36619
1.36619
1.36618
1.36618
1.36617
1.36617
1.36617
1.36616
1.36616
1.36616
1.36615
1.36615
1.36615
1.36615
1.36615
1.36614
1.36614
1.36614
1.36614
1.36614
1.36614
1.36614
1.36614
1.36614
1.36614
1.36615
1.36615
1.36615
1.36615
1.36616
1.36616
1.36616
1.36617
1.36617
1.36618
1.36618
1.36619
1.3662
1.36621
1.36621
1.36622
1.36623
1.36624
1.36626
1.36627
1.36628
1.36629
1.36631
1.36632
1.36634
1.36636
1.36637
1.36639
1.36641
1.36643
1.36645
1.36647
1.3665
1.36652
1.36654
1.36656
1.36659
1.36661
1.36663
1.36666
1.36668
1.3667
1.36672
1.36674
1.36676
1.36678
1.3668
1.36681
1.36682
1.36683
1.36684
1.36684
1.36684
1.36684
1.36683
1.36681
1.3668
1.36677
1.36675
1.36671
1.36667
1.36663
1.36658
1.36652
1.36646
1.36639
1.36631
1.36623
1.36615
1.36606
1.36596
1.36586
1.36575
1.36564
1.36552
1.3654
1.36528
1.36515
1.36502
1.36488
1.36474
1.3646
1.36445
1.3643
1.36414
1.36397
1.3638
1.36362
1.36343
1.36323
1.36302
1.3628
1.36256
1.36231
1.36203
1.36174
1.36142
1.36108
1.36072
1.36033
1.3599
1.35945
1.35896
1.35844
1.35789
1.3573
1.35668
1.35603
1.35535
1.35463
1.35389
1.35313
1.35233
1.35152
1.35068
1.34983
1.34896
1.34808
1.34719
1.34629
1.34538
1.34447
1.34355
1.34263
1.34172
1.34081
1.33991
1.33901
1.33812
1.33724
1.33637
1.33552
1.33468
1.33385
1.33304
1.33224
1.33147
1.33071
1.32997
1.32924
1.32854
1.32784
1.32718
1.32652
1.32588
1.32526
1.32466
1.32406
1.32349
1.32294
1.32239
1.32186
1.32135
1.32085
1.32036
1.31988
1.31942
1.31897
1.31854
1.31811
1.3177
1.3173
1.31691
1.31653
1.31616
1.3158
1.31546
1.31512
1.3148
1.31448
1.31418
1.31388
1.3136
1.31332
1.31306
1.3128
1.31256
1.31232
1.31209
1.31188
1.31167
1.31147
1.31128
1.31111
1.31094
1.31078
1.31063
1.3105
1.31037
1.31025
1.31015
1.31007
1.30998
1.30992
1.30988
1.30985
1.30981
1.30984
1.30991
1.30989
1.30995
1.31021
1.31032
1.31028
1.31076
1.31133
1.31114
1.31151
1.31291
1.31319
1.3131
1.31467
1.31622
1.31704
1.31836
1.31994
1.34167
1.34003
1.33888
1.33773
1.33671
1.33576
1.3348
1.33393
1.33313
1.33232
1.33154
1.33083
1.33014
1.32946
1.32882
1.32822
1.32763
1.32707
1.32654
1.32603
1.32555
1.32509
1.32465
1.32424
1.32385
1.32348
1.32313
1.3228
1.32249
1.3222
1.32192
1.32167
1.32143
1.32121
1.32101
1.32082
1.32065
1.32049
1.32035
1.32023
1.32012
1.32002
1.31994
1.31987
1.31982
1.31978
1.31975
1.31974
1.31974
1.31976
1.31979
1.31984
1.3199
1.31997
1.32006
1.32017
1.32029
1.32043
1.32059
1.32077
1.32096
1.32117
1.3214
1.32166
1.32193
1.32222
1.32254
1.32288
1.32324
1.32363
1.32404
1.32448
1.32495
1.32544
1.32596
1.32651
1.32709
1.3277
1.32834
1.32901
1.3297
1.33043
1.33119
1.33198
1.33279
1.33364
1.3345
1.3354
1.33632
1.33726
1.33822
1.3392
1.34019
1.3412
1.34222
1.34324
1.34427
1.3453
1.34634
1.34736
1.34839
1.3494
1.3504
1.35139
1.35236
1.3533
1.35423
1.35512
1.35598
1.35682
1.35761
1.35837
1.35909
1.35977
1.3604
1.36099
1.36155
1.36206
1.36253
1.36295
1.36335
1.3637
1.36402
1.36431
1.36457
1.36481
1.36501
1.36519
1.36535
1.36549
1.36561
1.36572
1.36581
1.36589
1.36596
1.36602
1.36606
1.3661
1.36614
1.36616
1.36618
1.3662
1.36621
1.36622
1.36623
1.36623
1.36624
1.36624
1.36624
1.36623
1.36623
1.36623
1.36622
1.36622
1.36621
1.36621
1.3662
1.3662
1.36619
1.36619
1.36618
1.36618
1.36617
1.36617
1.36617
1.36616
1.36616
1.36616
1.36615
1.36615
1.36615
1.36614
1.36614
1.36614
1.36614
1.36614
1.36614
1.36614
1.36614