# vtk DataFile Version 2.0
LBE two cylinders
ASCII
DATASET STRUCTURED_POINTS
DIMENSIONS 400 100 1
ASPECT_RATIO 1 1 1
ORIGIN 0 0 0
POINT_DATA 40000
SCALARS rho double 1
LOOKUP_TABLE default
1.32108
1.31624
1.31643
1.31639
1.31501
1.31441
1.3141
1.31338
1.31273
1.31225
1.31168
1.31108
1.31055
1.31002
1.30949
1.30898
1.30848
1.30799
1.30751
1.30704
1.30658
1.30612
1.30567
1.30522
1.30479
1.30438
1.30399
1.30363
1.3033
1.303
1.30274
1.30251
1.3023
1.30212
1.30194
1.30177
1.3016
1.30142
1.30125
1.30107
1.3009
1.30074
1.30059
1.30047
1.30037
1.30031
1.30027
1.30025
1.30026
1.30028
1.3003
1.30033
1.30037
1.3004
1.30045
1.3005
1.30058
1.30069
1.30085
1.30104
1.3013
1.30162
1.30201
1.30246
1.303
1.30361
1.3043
1.30507
1.30593
1.30688
1.30792
1.30906
1.31029
1.31161
1.31303
1.31453
1.3161
1.31775
1.31945
1.32119
1.32296
1.32474
1.32653
1.32832
1.33008
1.33183
1.33356
1.33524
1.33689
1.33849
1.34004
1.34151
1.34292
1.34426
1.34552
1.3467
1.34781
1.34886
1.34985
1.35079
1.3517
1.35257
1.35341
1.35423
1.35503
1.3558
1.35656
1.35728
1.35798
1.35865
1.3593
1.35991
1.36049
1.36105
1.36158
1.36208
1.36258
1.36305
1.36352
1.36399
1.36445
1.36491
1.36537
1.36583
1.36628
1.36673
1.36717
1.36759
1.36798
1.36834
1.36866
1.36894
1.36917
1.36936
1.36951
1.36962
1.36971
1.36977
1.36983
1.36988
1.36995
1.37005
1.37017
1.37032
1.37052
1.37075
1.37103
1.37133
1.37167
1.37204
1.37242
1.37281
1.37321
1.37361
1.37401
1.37438
1.37474
1.37507
1.37537
1.37564
1.37588
1.37608
1.37625
1.37639
1.37651
1.3766
1.37667
1.37672
1.37675
1.37677
1.37676
1.37673
1.37668
1.3766
1.3765
1.37638
1.37622
1.37604
1.37583
1.3756
1.37533
1.37505
1.37474
1.37441
1.37407
1.37372
1.37337
1.37302
1.37267
1.37235
1.37204
1.37177
1.37152
1.37132
1.37116
1.37106
1.371
1.37099
1.37104
1.37114
1.37129
1.37149
1.37174
1.37202
1.37234
1.3727
1.37307
1.37347
1.37388
1.3743
1.37471
1.37512
1.37552
1.3759
1.37626
1.37658
1.37688
1.37714
1.37736
1.37754
1.37768
1.37777
1.37782
1.37783
1.3778
1.37772
1.3776
1.37744
1.37723
1.37699
1.3767
1.37639
1.37604
1.37567
1.37528
1.37488
1.37448
1.37408
1.3737
1.37334
1.37302
1.37274
1.3725
1.37231
1.37217
1.37208
1.37202
1.37199
1.37198
1.37197
1.37195
1.37192
1.37185
1.37173
1.37156
1.37133
1.37104
1.37068
1.37027
1.36981
1.36931
1.36878
1.36824
1.36769
1.36716
1.36663
1.36613
1.36566
1.36521
1.3648
1.36442
1.36407
1.36375
1.36346
1.3632
1.36296
1.36275
1.36256
1.36238
1.36221
1.36204
1.36187
1.36169
1.36149
1.36128
1.36104
1.36078
1.36048
1.36015
1.35979
1.35938
1.35895
1.35848
1.35797
1.35743
1.35686
1.35625
1.35562
1.35495
1.35425
1.35351
1.35274
1.35191
1.35104
1.35012
1.34913
1.34807
1.34694
1.34573
1.34442
1.34302
1.34152
1.33993
1.33824
1.33646
1.33461
1.3327
1.33075
1.32877
1.3268
1.32485
1.32294
1.32109
1.31931
1.31762
1.31603
1.31453
1.31313
1.31181
1.31059
1.30943
1.30834
1.30731
1.30633
1.30538
1.30447
1.30359
1.30274
1.30192
1.30113
1.30037
1.29964
1.29894
1.29829
1.29766
1.29708
1.29652
1.296
1.29552
1.29507
1.29464
1.29424
1.29387
1.29353
1.2932
1.2929
1.29261
1.29233
1.29208
1.29183
1.2916
1.29139
1.29119
1.29101
1.29085
1.29071
1.29059
1.29049
1.29043
1.29039
1.29038
1.29039
1.29044
1.29051
1.29062
1.29075
1.29091
1.29109
1.29129
1.29151
1.29176
1.29202
1.29225
1.2925
1.29281
1.29302
1.29314
1.29346
1.29378
1.29356
1.29348
1.29438
1.29426
1.29216
1.29286
1.2964
1.29175
1.28312
1.2931
1.30169
1.31826
1.31774
1.31672
1.31568
1.31517
1.31464
1.31393
1.31335
1.31282
1.31223
1.31165
1.31111
1.31057
1.31003
1.30951
1.30901
1.30851
1.30803
1.30756
1.30709
1.30663
1.30618
1.30573
1.30529
1.30487
1.30446
1.30407
1.30371
1.30338
1.30308
1.30282
1.30258
1.30237
1.30218
1.30201
1.30184
1.30167
1.3015
1.30133
1.30116
1.301
1.30085
1.30071
1.30059
1.3005
1.30044
1.30041
1.30039
1.3004
1.30042
1.30045
1.30048
1.30052
1.30057
1.30062
1.30068
1.30076
1.30088
1.30103
1.30123
1.30149
1.3018
1.30219
1.30265
1.30318
1.30379
1.30448
1.30525
1.30611
1.30706
1.3081
1.30923
1.31045
1.31176
1.31317
1.31465
1.31621
1.31784
1.31951
1.32123
1.32297
1.32472
1.32648
1.32824
1.32998
1.3317
1.3334
1.33506
1.33669
1.33827
1.33981
1.34128
1.34269
1.34403
1.34529
1.34649
1.34762
1.34868
1.34969
1.35065
1.35158
1.35246
1.35332
1.35416
1.35497
1.35576
1.35652
1.35726
1.35797
1.35865
1.3593
1.35992
1.36051
1.36108
1.36162
1.36214
1.36264
1.36313
1.3636
1.36407
1.36454
1.36501
1.36548
1.36594
1.3664
1.36685
1.36729
1.36771
1.3681
1.36845
1.36877
1.36904
1.36927
1.36946
1.3696
1.36971
1.36978
1.36984
1.36989
1.36993
1.37
1.37008
1.37019
1.37033
1.37052
1.37074
1.371
1.3713
1.37163
1.37198
1.37236
1.37274
1.37313
1.37353
1.37391
1.37429
1.37464
1.37497
1.37527
1.37554
1.37579
1.376
1.37617
1.37632
1.37645
1.37654
1.37662
1.37667
1.3767
1.37672
1.37671
1.37668
1.37662
1.37655
1.37645
1.37632
1.37617
1.37599
1.37579
1.37555
1.3753
1.37502
1.37472
1.37441
1.37408
1.37374
1.3734
1.37306
1.37273
1.37241
1.37211
1.37185
1.37161
1.37142
1.37127
1.37116
1.3711
1.3711
1.37114
1.37124
1.37138
1.37157
1.3718
1.37208
1.37239
1.37273
1.37309
1.37347
1.37387
1.37427
1.37468
1.37508
1.37546
1.37583
1.37618
1.3765
1.37679
1.37705
1.37727
1.37745
1.37759
1.37769
1.37775
1.37776
1.37773
1.37766
1.37754
1.37738
1.37718
1.37695
1.37667
1.37636
1.37603
1.37566
1.37528
1.37489
1.37449
1.37409
1.37372
1.37336
1.37304
1.37275
1.37251
1.37231
1.37216
1.37205
1.37198
1.37194
1.37192
1.3719
1.37188
1.37183
1.37176
1.37164
1.37147
1.37125
1.37097
1.37063
1.37023
1.36979
1.3693
1.36879
1.36827
1.36773
1.3672
1.36669
1.36619
1.36572
1.36527
1.36486
1.36448
1.36413
1.36381
1.36351
1.36325
1.36301
1.36279
1.36259
1.36241
1.36223
1.36206
1.36189
1.3617
1.36151
1.36129
1.36105
1.36079
1.36049
1.36016
1.35979
1.35939
1.35895
1.35847
1.35797
1.35742
1.35684
1.35623
1.35559
1.35491
1.35419
1.35344
1.35264
1.3518
1.3509
1.34995
1.34894
1.34787
1.34672
1.34549
1.34418
1.34278
1.34129
1.33971
1.33804
1.3363
1.33448
1.33261
1.33071
1.32878
1.32685
1.32494
1.32307
1.32125
1.3195
1.31783
1.31625
1.31476
1.31336
1.31205
1.31081
1.30965
1.30856
1.30752
1.30653
1.30558
1.30466
1.30378
1.30292
1.3021
1.30131
1.30055
1.29982
1.29912
1.29846
1.29784
1.29725
1.29669
1.29617
1.29568
1.29523
1.2948
1.2944
1.29403
1.29368
1.29335
1.29304
1.29274
1.29247
1.2922
1.29195
1.29172
1.2915
1.2913
1.29111
1.29095
1.2908
1.29068
1.29058
1.29051
1.29047
1.29045
1.29046
1.2905
1.29056
1.29066
1.29078
1.29093
1.2911
1.29129
1.29151
1.29172
1.29196
1.29221
1.29243
1.29264
1.29291
1.29312
1.29318
1.29332
1.29367
1.29356
1.29308
1.29343
1.29402
1.29218
1.2905
1.29287
1.2923
1.28242
1.27706
1.31701
1.31781
1.31641
1.31529
1.31529
1.31463
1.31378
1.31334
1.31283
1.31217
1.31163
1.31112
1.31057
1.31003
1.30954
1.30904
1.30855
1.30808
1.30761
1.30715
1.3067
1.30626
1.30582
1.30539
1.30497
1.30456
1.30418
1.30382
1.30349
1.30319
1.30293
1.30269
1.30249
1.3023
1.30213
1.30196
1.3018
1.30164
1.30149
1.30133
1.30118
1.30103
1.30091
1.3008
1.30072
1.30066
1.30063
1.30062
1.30063
1.30066
1.3007
1.30074
1.30078
1.30083
1.30089
1.30095
1.30104
1.30116
1.30131
1.30151
1.30176
1.30208
1.30246
1.30292
1.30344
1.30405
1.30474
1.30551
1.30637
1.30731
1.30834
1.30946
1.31068
1.31198
1.31336
1.31483
1.31636
1.31795
1.31959
1.32127
1.32296
1.32467
1.32639
1.32809
1.32979
1.33147
1.33313
1.33476
1.33636
1.33793
1.33945
1.34092
1.34233
1.34368
1.34497
1.34619
1.34734
1.34844
1.34948
1.35048
1.35143
1.35235
1.35324
1.35411
1.35495
1.35576
1.35654
1.3573
1.35803
1.35873
1.35941
1.36004
1.36065
1.36123
1.36179
1.36232
1.36283
1.36333
1.36382
1.3643
1.36477
1.36525
1.36572
1.36619
1.36665
1.36711
1.36755
1.36796
1.36835
1.36871
1.36902
1.36929
1.36951
1.36968
1.36981
1.3699
1.36996
1.36999
1.37002
1.37005
1.37008
1.37014
1.37023
1.37035
1.37051
1.37071
1.37095
1.37123
1.37154
1.37188
1.37224
1.37261
1.37299
1.37338
1.37375
1.37412
1.37447
1.3748
1.3751
1.37538
1.37563
1.37585
1.37604
1.3762
1.37633
1.37644
1.37652
1.37657
1.37661
1.37662
1.37661
1.37658
1.37653
1.37645
1.37635
1.37623
1.37608
1.37591
1.37571
1.37549
1.37525
1.37499
1.3747
1.3744
1.37409
1.37377
1.37345
1.37313
1.37282
1.37252
1.37224
1.37199
1.37177
1.37158
1.37144
1.37134
1.37128
1.37127
1.37131
1.37139
1.37153
1.3717
1.37192
1.37218
1.37247
1.37278
1.37313
1.37349
1.37386
1.37425
1.37463
1.37501
1.37538
1.37574
1.37607
1.37639
1.37667
1.37692
1.37714
1.37732
1.37747
1.37757
1.37763
1.37765
1.37763
1.37757
1.37746
1.37731
1.37712
1.37689
1.37663
1.37633
1.376
1.37565
1.37527
1.37488
1.37449
1.3741
1.37372
1.37336
1.37304
1.37274
1.37249
1.37229
1.37213
1.37201
1.37193
1.37188
1.37185
1.37183
1.3718
1.37175
1.37168
1.37157
1.37141
1.3712
1.37093
1.37061
1.37024
1.36982
1.36936
1.36887
1.36836
1.36785
1.36733
1.36683
1.36634
1.36587
1.36544
1.36503
1.36465
1.3643
1.36397
1.36368
1.36342
1.36318
1.36296
1.36275
1.36257
1.36239
1.36221
1.36203
1.36185
1.36165
1.36143
1.36119
1.36092
1.36062
1.36028
1.35991
1.3595
1.35905
1.35856
1.35804
1.35748
1.35688
1.35625
1.35558
1.35487
1.35412
1.35333
1.35249
1.35161
1.35067
1.34968
1.34863
1.34752
1.34634
1.34509
1.34377
1.34236
1.34088
1.33932
1.33769
1.33598
1.33422
1.33241
1.33057
1.32871
1.32684
1.325
1.32318
1.32142
1.31971
1.31808
1.31652
1.31505
1.31367
1.31236
1.31113
1.30998
1.30888
1.30784
1.30684
1.30589
1.30497
1.30408
1.30322
1.30239
1.3016
1.30083
1.3001
1.2994
1.29874
1.29811
1.29752
1.29697
1.29644
1.29595
1.29549
1.29506
1.29466
1.29429
1.29393
1.2936
1.29328
1.29298
1.2927
1.29243
1.29217
1.29193
1.2917
1.2915
1.29131
1.29113
1.29098
1.29086
1.29075
1.29068
1.29063
1.2906
1.2906
1.29063
1.29069
1.29077
1.29088
1.29102
1.29117
1.29135
1.29156
1.29176
1.29196
1.2922
1.29244
1.29259
1.29277
1.29308
1.29319
1.29303
1.29335
1.2938
1.29297
1.29233
1.29404
1.2936
1.28878
1.29047
1.29693
1.28493
1.27353
1.317
1.31645
1.31605
1.31573
1.31506
1.3143
1.31386
1.31332
1.31268
1.31214
1.31164
1.31108
1.31055
1.31005
1.30955
1.30906
1.30859
1.30813
1.30767
1.30723
1.30679
1.30635
1.30592
1.3055
1.30508
1.30469
1.30431
1.30395
1.30363
1.30333
1.30307
1.30284
1.30263
1.30245
1.30229
1.30213
1.30198
1.30184
1.30169
1.30155
1.30142
1.30129
1.30118
1.30108
1.30101
1.30096
1.30094
1.30094
1.30096
1.30099
1.30103
1.30108
1.30113
1.30118
1.30124
1.30131
1.3014
1.30152
1.30167
1.30187
1.30212
1.30243
1.30281
1.30326
1.30379
1.3044
1.30508
1.30585
1.3067
1.30763
1.30866
1.30977
1.31097
1.31225
1.31361
1.31504
1.31654
1.31809
1.31968
1.32129
1.32293
1.32458
1.32623
1.32788
1.32951
1.33114
1.33275
1.33434
1.3359
1.33744
1.33895
1.34041
1.34183
1.3432
1.34451
1.34576
1.34695
1.34809
1.34918
1.35023
1.35123
1.3522
1.35314
1.35405
1.35493
1.35578
1.3566
1.3574
1.35816
1.35889
1.35959
1.36025
1.36089
1.36149
1.36206
1.36261
1.36314
1.36365
1.36415
1.36464
1.36513
1.36561
1.36609
1.36656
1.36703
1.36748
1.36793
1.36834
1.36873
1.36908
1.36939
1.36965
1.36986
1.37002
1.37013
1.37019
1.37023
1.37024
1.37023
1.37023
1.37023
1.37025
1.3703
1.37039
1.37052
1.37069
1.3709
1.37115
1.37144
1.37175
1.37209
1.37244
1.37281
1.37317
1.37354
1.37389
1.37424
1.37457
1.37487
1.37516
1.37541
1.37565
1.37585
1.37602
1.37616
1.37628
1.37637
1.37643
1.37646
1.37648
1.37647
1.37644
1.37639
1.37631
1.37622
1.3761
1.37596
1.3758
1.37561
1.37541
1.37518
1.37494
1.37468
1.3744
1.37412
1.37383
1.37353
1.37324
1.37295
1.37268
1.37242
1.37219
1.37199
1.37182
1.37168
1.37158
1.37153
1.37151
1.37155
1.37162
1.37174
1.37189
1.37209
1.37232
1.37259
1.37288
1.37319
1.37352
1.37387
1.37422
1.37458
1.37493
1.37528
1.37562
1.37594
1.37624
1.37651
1.37676
1.37697
1.37716
1.3773
1.37741
1.37748
1.37751
1.3775
1.37744
1.37735
1.37721
1.37703
1.37682
1.37656
1.37628
1.37596
1.37561
1.37524
1.37486
1.37447
1.37408
1.37371
1.37335
1.37302
1.37272
1.37247
1.37226
1.37209
1.37196
1.37187
1.37182
1.37178
1.37175
1.37172
1.37168
1.37161
1.37151
1.37136
1.37117
1.37092
1.37063
1.37028
1.36989
1.36946
1.369
1.36852
1.36803
1.36753
1.36705
1.36657
1.36612
1.36569
1.36529
1.36491
1.36457
1.36425
1.36396
1.36369
1.36345
1.36323
1.36303
1.36284
1.36265
1.36248
1.36229
1.3621
1.3619
1.36167
1.36142
1.36114
1.36083
1.36048
1.36009
1.35966
1.3592
1.35869
1.35814
1.35755
1.35691
1.35624
1.35553
1.35477
1.35397
1.35313
1.35224
1.3513
1.35031
1.34926
1.34816
1.34701
1.34579
1.34452
1.34318
1.34177
1.3403
1.33877
1.33718
1.33553
1.33383
1.3321
1.33034
1.32856
1.32678
1.32501
1.32328
1.32158
1.31994
1.31835
1.31684
1.31541
1.31405
1.31276
1.31155
1.3104
1.30931
1.30827
1.30727
1.30631
1.30539
1.3045
1.30363
1.3028
1.302
1.30123
1.30049
1.29979
1.29912
1.29849
1.2979
1.29734
1.29681
1.29632
1.29586
1.29543
1.29502
1.29464
1.29428
1.29394
1.29362
1.29332
1.29303
1.29275
1.29249
1.29224
1.29201
1.29179
1.29159
1.29142
1.29126
1.29113
1.29102
1.29094
1.29088
1.29085
1.29084
1.29086
1.2909
1.29098
1.29107
1.29119
1.29134
1.29149
1.29167
1.29188
1.29208
1.29225
1.29246
1.29272
1.29283
1.2929
1.29323
1.29343
1.29304
1.29309
1.29394
1.29332
1.2916
1.29303
1.29447
1.28977
1.28762
1.29269
1.29356
1.31694
1.31617
1.31596
1.31561
1.31471
1.31421
1.31385
1.31317
1.31257
1.31212
1.31158
1.31102
1.31054
1.31005
1.30955
1.30909
1.30864
1.30819
1.30775
1.30732
1.30689
1.30647
1.30605
1.30564
1.30524
1.30485
1.30447
1.30413
1.30381
1.30352
1.30326
1.30303
1.30284
1.30266
1.30251
1.30237
1.30223
1.3021
1.30198
1.30185
1.30173
1.30162
1.30153
1.30145
1.30138
1.30134
1.30133
1.30133
1.30136
1.30139
1.30144
1.3015
1.30155
1.30161
1.30168
1.30175
1.30184
1.30196
1.30211
1.30231
1.30255
1.30286
1.30323
1.30368
1.3042
1.3048
1.30548
1.30625
1.30709
1.30802
1.30903
1.31013
1.3113
1.31256
1.31389
1.31528
1.31673
1.31823
1.31976
1.32131
1.32288
1.32445
1.32602
1.32759
1.32916
1.33071
1.33226
1.3338
1.33532
1.33683
1.33831
1.33976
1.34119
1.34256
1.3439
1.34519
1.34643
1.34762
1.34876
1.34987
1.35093
1.35196
1.35296
1.35393
1.35486
1.35577
1.35664
1.35749
1.35829
1.35907
1.3598
1.36051
1.36117
1.3618
1.36241
1.36298
1.36353
1.36406
1.36457
1.36508
1.36558
1.36607
1.36655
1.36703
1.36751
1.36797
1.36841
1.36883
1.36921
1.36956
1.36986
1.37011
1.3703
1.37044
1.37053
1.37057
1.37058
1.37055
1.37051
1.37047
1.37043
1.37041
1.37042
1.37047
1.37056
1.37069
1.37086
1.37107
1.37133
1.37161
1.37192
1.37225
1.37259
1.37293
1.37328
1.37362
1.37396
1.37428
1.37459
1.37488
1.37515
1.37539
1.37561
1.37579
1.37595
1.37608
1.37617
1.37624
1.37628
1.3763
1.37629
1.37626
1.37621
1.37614
1.37605
1.37593
1.3758
1.37565
1.37549
1.3753
1.3751
1.37488
1.37465
1.37441
1.37415
1.3739
1.37364
1.37338
1.37312
1.37288
1.37266
1.37245
1.37226
1.37211
1.37198
1.37189
1.37184
1.37182
1.37185
1.37191
1.37201
1.37214
1.37231
1.37251
1.37274
1.373
1.37328
1.37357
1.37388
1.3742
1.37452
1.37485
1.37517
1.37548
1.37578
1.37606
1.37632
1.37656
1.37677
1.37695
1.3771
1.37722
1.37729
1.37733
1.37733
1.37729
1.37721
1.37708
1.37692
1.37672
1.37648
1.3762
1.37589
1.37556
1.3752
1.37482
1.37444
1.37405
1.37368
1.37332
1.37299
1.37269
1.37243
1.37221
1.37204
1.37191
1.37181
1.37175
1.37171
1.37168
1.37166
1.37162
1.37156
1.37148
1.37135
1.37118
1.37096
1.3707
1.37038
1.37003
1.36963
1.3692
1.36876
1.3683
1.36783
1.36736
1.36691
1.36647
1.36605
1.36566
1.36529
1.36495
1.36464
1.36435
1.36409
1.36384
1.36362
1.36342
1.36322
1.36303
1.36285
1.36266
1.36246
1.36224
1.362
1.36173
1.36144
1.3611
1.36073
1.36031
1.35985
1.35935
1.35881
1.35821
1.35758
1.3569
1.35617
1.3554
1.35458
1.35372
1.35281
1.35185
1.35084
1.34979
1.34868
1.34753
1.34633
1.34508
1.34378
1.34243
1.34104
1.33959
1.33809
1.33655
1.33497
1.33334
1.33169
1.33002
1.32834
1.32666
1.32499
1.32334
1.32173
1.32016
1.31865
1.31719
1.3158
1.31448
1.31322
1.31203
1.3109
1.30982
1.30879
1.30779
1.30683
1.30591
1.30501
1.30414
1.30331
1.3025
1.30172
1.30098
1.30027
1.2996
1.29896
1.29836
1.2978
1.29727
1.29677
1.29631
1.29587
1.29546
1.29508
1.29472
1.29438
1.29405
1.29375
1.29345
1.29317
1.2929
1.29265
1.29241
1.29219
1.29199
1.29181
1.29165
1.29151
1.2914
1.29131
1.29124
1.2912
1.29119
1.29119
1.29122
1.29128
1.29136
1.29146
1.29159
1.29174
1.2919
1.29207
1.29228
1.29246
1.2926
1.29283
1.29308
1.2931
1.29316
1.29359
1.29364
1.29306
1.29351
1.29443
1.29285
1.29178
1.29489
1.29405
1.28915
1.29229
1.29474
1.31668
1.31627
1.31573
1.31511
1.31465
1.31424
1.31358
1.31301
1.31257
1.31203
1.31147
1.311
1.31051
1.31002
1.30956
1.30912
1.30867
1.30824
1.30782
1.30741
1.307
1.30659
1.30619
1.30579
1.3054
1.30502
1.30466
1.30433
1.30402
1.30374
1.30349
1.30327
1.30309
1.30292
1.30278
1.30265
1.30254
1.30243
1.30232
1.30222
1.30212
1.30202
1.30194
1.30187
1.30182
1.30179
1.30178
1.30179
1.30182
1.30187
1.30192
1.30198
1.30204
1.3021
1.30217
1.30225
1.30234
1.30246
1.30261
1.3028
1.30304
1.30334
1.30371
1.30415
1.30467
1.30526
1.30594
1.30669
1.30753
1.30845
1.30945
1.31052
1.31168
1.3129
1.31419
1.31554
1.31694
1.31837
1.31983
1.32131
1.32279
1.32428
1.32577
1.32725
1.32873
1.33021
1.33169
1.33316
1.33463
1.33609
1.33754
1.33898
1.34039
1.34178
1.34314
1.34446
1.34574
1.34698
1.34819
1.34936
1.35049
1.35159
1.35266
1.35369
1.3547
1.35567
1.35661
1.35751
1.35838
1.35921
1.36
1.36075
1.36146
1.36213
1.36277
1.36338
1.36396
1.36451
1.36505
1.36557
1.36608
1.36659
1.36708
1.36757
1.36805
1.36852
1.36896
1.36938
1.36977
1.37011
1.3704
1.37064
1.37082
1.37094
1.37101
1.37102
1.37099
1.37093
1.37085
1.37077
1.37069
1.37062
1.37059
1.37059
1.37063
1.37071
1.37084
1.37101
1.37122
1.37147
1.37174
1.37204
1.37235
1.37267
1.373
1.37333
1.37365
1.37397
1.37428
1.37457
1.37485
1.3751
1.37533
1.37553
1.3757
1.37584
1.37595
1.37602
1.37607
1.37609
1.37608
1.37605
1.376
1.37593
1.37584
1.37574
1.37562
1.37549
1.37534
1.37518
1.375
1.37482
1.37462
1.37441
1.3742
1.37398
1.37376
1.37354
1.37333
1.37312
1.37293
1.37275
1.37259
1.37245
1.37234
1.37226
1.37221
1.37219
1.3722
1.37224
1.37232
1.37243
1.37257
1.37274
1.37293
1.37315
1.37339
1.37364
1.37391
1.37419
1.37447
1.37476
1.37504
1.37533
1.3756
1.37586
1.37611
1.37634
1.37654
1.37672
1.37687
1.37699
1.37708
1.37713
1.37714
1.37711
1.37705
1.37694
1.37679
1.3766
1.37638
1.37611
1.37582
1.37549
1.37514
1.37477
1.37439
1.37401
1.37363
1.37327
1.37294
1.37264
1.37237
1.37215
1.37197
1.37184
1.37175
1.37168
1.37164
1.37162
1.3716
1.37158
1.37154
1.37147
1.37137
1.37123
1.37104
1.37081
1.37053
1.37021
1.36986
1.36947
1.36906
1.36863
1.36819
1.36775
1.36731
1.36689
1.36649
1.36611
1.36575
1.36541
1.36511
1.36482
1.36456
1.36432
1.36409
1.36388
1.36368
1.36348
1.36328
1.36308
1.36286
1.36262
1.36236
1.36207
1.36174
1.36137
1.36096
1.3605
1.36
1.35945
1.35885
1.3582
1.3575
1.35675
1.35596
1.35511
1.35422
1.35329
1.3523
1.35127
1.35019
1.34907
1.34791
1.34671
1.34547
1.3442
1.34289
1.34154
1.34016
1.33874
1.3373
1.33581
1.3343
1.33276
1.3312
1.32963
1.32805
1.32647
1.32491
1.32336
1.32185
1.32037
1.31893
1.31755
1.31622
1.31495
1.31373
1.31257
1.31146
1.3104
1.30938
1.30839
1.30744
1.30651
1.30562
1.30475
1.3039
1.30309
1.3023
1.30155
1.30084
1.30016
1.29951
1.29891
1.29834
1.2978
1.2973
1.29683
1.2964
1.29599
1.2956
1.29524
1.2949
1.29458
1.29427
1.29398
1.2937
1.29343
1.29318
1.29294
1.29272
1.29251
1.29233
1.29216
1.29202
1.2919
1.29181
1.29174
1.29168
1.29166
1.29165
1.29167
1.29171
1.29177
1.29186
1.29196
1.29209
1.29225
1.2924
1.29255
1.29278
1.29296
1.29304
1.29326
1.29358
1.29354
1.29345
1.29405
1.29427
1.29333
1.29369
1.29531
1.29384
1.29202
1.29488
1.29641
1.29344
1.29289
1.31653
1.31609
1.31551
1.31495
1.31458
1.31401
1.31338
1.31295
1.31247
1.31189
1.31142
1.31096
1.31047
1.31001
1.30958
1.30915
1.30872
1.30832
1.30792
1.30752
1.30713
1.30675
1.30636
1.30598
1.30561
1.30525
1.3049
1.30458
1.30428
1.30402
1.30378
1.30358
1.3034
1.30325
1.30313
1.30302
1.30292
1.30283
1.30274
1.30266
1.30258
1.3025
1.30243
1.30238
1.30234
1.30231
1.30231
1.30232
1.30235
1.3024
1.30245
1.30251
1.30258
1.30264
1.30272
1.3028
1.30289
1.303
1.30315
1.30334
1.30357
1.30387
1.30423
1.30467
1.30517
1.30576
1.30643
1.30717
1.308
1.30891
1.30988
1.31094
1.31207
1.31326
1.3145
1.3158
1.31714
1.3185
1.31989
1.32128
1.32268
1.32408
1.32548
1.32687
1.32826
1.32965
1.33105
1.33245
1.33385
1.33526
1.33667
1.33808
1.33947
1.34086
1.34222
1.34357
1.34489
1.34618
1.34744
1.34867
1.34987
1.35104
1.35218
1.3533
1.35438
1.35542
1.35644
1.35741
1.35835
1.35924
1.3601
1.36091
1.36168
1.3624
1.36309
1.36374
1.36436
1.36495
1.36552
1.36607
1.3666
1.36712
1.36764
1.36814
1.36863
1.3691
1.36956
1.36998
1.37036
1.3707
1.37099
1.37122
1.37138
1.37148
1.37153
1.37152
1.37146
1.37136
1.37124
1.37111
1.37099
1.37088
1.37079
1.37074
1.37073
1.37077
1.37085
1.37098
1.37114
1.37134
1.37158
1.37184
1.37211
1.37241
1.37271
1.37302
1.37333
1.37364
1.37395
1.37424
1.37453
1.37479
1.37503
1.37525
1.37543
1.37558
1.3757
1.37578
1.37583
1.37585
1.37585
1.37582
1.37577
1.3757
1.37562
1.37553
1.37542
1.37531
1.37518
1.37504
1.3749
1.37475
1.37459
1.37442
1.37425
1.37408
1.3739
1.37373
1.37356
1.37339
1.37323
1.37309
1.37295
1.37284
1.37274
1.37267
1.37262
1.37259
1.3726
1.37262
1.37268
1.37276
1.37287
1.373
1.37315
1.37333
1.37352
1.37373
1.37395
1.37418
1.37442
1.37467
1.37492
1.37517
1.37542
1.37566
1.37588
1.3761
1.3763
1.37647
1.37663
1.37675
1.37684
1.3769
1.37693
1.37692
1.37687
1.37678
1.37665
1.37648
1.37626
1.37602
1.37573
1.37541
1.37507
1.37471
1.37433
1.37395
1.37357
1.37321
1.37287
1.37257
1.37231
1.37208
1.37191
1.37177
1.37168
1.37163
1.3716
1.37158
1.37158
1.37157
1.37155
1.37151
1.37144
1.37133
1.37118
1.37098
1.37075
1.37047
1.37015
1.3698
1.36943
1.36903
1.36862
1.3682
1.36779
1.36739
1.367
1.36663
1.36628
1.36596
1.36565
1.36537
1.36511
1.36486
1.36463
1.36441
1.36419
1.36398
1.36376
1.36353
1.36328
1.36302
1.36272
1.36239
1.36202
1.3616
1.36114
1.36063
1.36007
1.35945
1.35878
1.35806
1.35728
1.35646
1.35558
1.35466
1.35369
1.35267
1.35161
1.3505
1.34936
1.34818
1.34697
1.34573
1.34447
1.34318
1.34187
1.34054
1.33919
1.33781
1.33642
1.33501
1.33357
1.33212
1.33066
1.32919
1.32772
1.32625
1.32479
1.32335
1.32194
1.32055
1.3192
1.3179
1.31664
1.31542
1.31426
1.31314
1.31206
1.31103
1.31002
1.30905
1.30811
1.30719
1.30629
1.30542
1.30457
1.30375
1.30296
1.3022
1.30148
1.30079
1.30014
1.29952
1.29894
1.2984
1.2979
1.29742
1.29698
1.29658
1.29619
1.29583
1.2955
1.29518
1.29488
1.29459
1.29432
1.29405
1.29381
1.29357
1.29335
1.29315
1.29297
1.29281
1.29266
1.29254
1.29244
1.29236
1.2923
1.29226
1.29224
1.29224
1.29226
1.29231
1.29238
1.29247
1.29257
1.29271
1.29287
1.293
1.29315
1.29339
1.29356
1.2936
1.29386
1.29421
1.29407
1.29405
1.29483
1.29484
1.29394
1.29494
1.29615
1.29457
1.29447
1.29658
1.29652
1.29669
1.31645
1.31578
1.31533
1.31489
1.31432
1.31376
1.31333
1.31285
1.31228
1.31181
1.31138
1.31089
1.31043
1.31001
1.30959
1.30917
1.30878
1.3084
1.30802
1.30764
1.30727
1.3069
1.30654
1.30618
1.30583
1.30549
1.30516
1.30486
1.30458
1.30433
1.30411
1.30393
1.30377
1.30364
1.30353
1.30343
1.30335
1.30328
1.30322
1.30315
1.30309
1.30303
1.30298
1.30294
1.3029
1.30288
1.30288
1.30289
1.30293
1.30297
1.30302
1.30309
1.30315
1.30322
1.30329
1.30337
1.30347
1.30358
1.30373
1.30391
1.30414
1.30443
1.30478
1.30521
1.30571
1.30629
1.30694
1.30767
1.30849
1.30937
1.31033
1.31137
1.31246
1.31361
1.31481
1.31605
1.31732
1.31861
1.31992
1.32123
1.32254
1.32384
1.32515
1.32645
1.32775
1.32905
1.33036
1.33168
1.33301
1.33436
1.33571
1.33708
1.33844
1.33981
1.34117
1.34253
1.34387
1.34519
1.3465
1.34778
1.34905
1.35029
1.3515
1.35269
1.35385
1.35497
1.35606
1.35712
1.35814
1.35911
1.36004
1.36092
1.36175
1.36254
1.36329
1.364
1.36467
1.3653
1.36591
1.3665
1.36707
1.36761
1.36815
1.36868
1.36918
1.36967
1.37014
1.37057
1.37095
1.3713
1.37158
1.3718
1.37196
1.37205
1.37207
1.37203
1.37195
1.37182
1.37166
1.37149
1.37133
1.37117
1.37104
1.37094
1.37088
1.37087
1.3709
1.37097
1.37109
1.37124
1.37143
1.37165
1.37189
1.37215
1.37243
1.37272
1.37301
1.37331
1.37362
1.37391
1.3742
1.37447
1.37472
1.37495
1.37515
1.37531
1.37543
1.37552
1.37558
1.3756
1.3756
1.37557
1.37553
1.37547
1.37539
1.37531
1.37522
1.37512
1.37502
1.37491
1.3748
1.37468
1.37456
1.37444
1.37432
1.37419
1.37407
1.37394
1.37381
1.37368
1.37356
1.37345
1.37335
1.37325
1.37317
1.37311
1.37306
1.37303
1.37302
1.37303
1.37307
1.37312
1.37319
1.37329
1.3734
1.37353
1.37367
1.37383
1.37401
1.37419
1.37439
1.37459
1.3748
1.37501
1.37523
1.37544
1.37565
1.37585
1.37604
1.37621
1.37636
1.37649
1.3766
1.37667
1.37671
1.37671
1.37668
1.37661
1.3765
1.37634
1.37615
1.37591
1.37564
1.37533
1.37499
1.37463
1.37426
1.37388
1.3735
1.37314
1.3728
1.37249
1.37223
1.37201
1.37183
1.37171
1.37162
1.37157
1.37156
1.37156
1.37158
1.3716
1.3716
1.37159
1.37155
1.37148
1.37136
1.37121
1.37101
1.37077
1.37049
1.37018
1.36984
1.36947
1.36909
1.3687
1.3683
1.36792
1.36754
1.36718
1.36684
1.36652
1.36622
1.36594
1.36567
1.36541
1.36517
1.36493
1.3647
1.36446
1.36421
1.36394
1.36366
1.36335
1.363
1.36262
1.36219
1.36172
1.36119
1.36061
1.35997
1.35927
1.35852
1.35771
1.35686
1.35595
1.35498
1.35398
1.35292
1.35183
1.35069
1.34953
1.34833
1.3471
1.34585
1.34459
1.34331
1.34203
1.34073
1.33943
1.33812
1.3368
1.33547
1.33413
1.33278
1.33142
1.33006
1.32869
1.32732
1.32597
1.32462
1.32329
1.32198
1.3207
1.31944
1.31822
1.31704
1.31589
1.31478
1.31371
1.31267
1.31166
1.31069
1.30974
1.30881
1.3079
1.30701
1.30614
1.3053
1.30447
1.30368
1.30291
1.30218
1.30148
1.30082
1.3002
1.29961
1.29906
1.29855
1.29808
1.29763
1.29722
1.29684
1.29649
1.29616
1.29585
1.29556
1.29528
1.29502
1.29477
1.29453
1.29431
1.2941
1.29391
1.29373
1.29357
1.29343
1.29331
1.29321
1.29312
1.29306
1.29301
1.29297
1.29296
1.29297
1.29299
1.29303
1.29311
1.2932
1.29329
1.29344
1.29361
1.29372
1.29386
1.29414
1.29431
1.29428
1.2946
1.29506
1.29482
1.29476
1.29584
1.29593
1.29489
1.29596
1.29764
1.29675
1.29627
1.29852
1.29996
1.31626
1.31562
1.31516
1.31468
1.31412
1.31366
1.31321
1.31267
1.31219
1.31177
1.3113
1.31084
1.31044
1.31003
1.30962
1.30924
1.30887
1.30851
1.30815
1.3078
1.30746
1.30711
1.30677
1.30643
1.3061
1.30578
1.30548
1.3052
1.30495
1.30472
1.30452
1.30435
1.30421
1.30409
1.304
1.30393
1.30387
1.30382
1.30377
1.30372
1.30368
1.30363
1.30359
1.30355
1.30352
1.3035
1.3035
1.30351
1.30354
1.30358
1.30363
1.30369
1.30376
1.30383
1.3039
1.30398
1.30407
1.30418
1.30432
1.3045
1.30473
1.30501
1.30535
1.30577
1.30626
1.30682
1.30746
1.30818
1.30898
1.30984
1.31078
1.31178
1.31283
1.31394
1.31509
1.31627
1.31748
1.31869
1.31991
1.32114
1.32236
1.32358
1.32479
1.32599
1.3272
1.32841
1.32964
1.33087
1.33213
1.33341
1.3347
1.33601
1.33733
1.33867
1.34001
1.34136
1.3427
1.34404
1.34538
1.3467
1.34801
1.34931
1.35058
1.35184
1.35307
1.35427
1.35544
1.35658
1.35768
1.35873
1.35974
1.3607
1.36162
1.36248
1.3633
1.36407
1.3648
1.3655
1.36616
1.36679
1.3674
1.36799
1.36856
1.36911
1.36965
1.37016
1.37064
1.37109
1.3715
1.37185
1.37214
1.37237
1.37252
1.3726
1.37261
1.37255
1.37244
1.37228
1.3721
1.37189
1.37168
1.37149
1.37131
1.37117
1.37106
1.371
1.37098
1.371
1.37107
1.37117
1.37131
1.37149
1.37169
1.37192
1.37217
1.37243
1.37271
1.373
1.37329
1.37359
1.37388
1.37416
1.37442
1.37465
1.37486
1.37503
1.37517
1.37526
1.37532
1.37535
1.37535
1.37533
1.37528
1.37523
1.37516
1.37509
1.37501
1.37493
1.37486
1.37478
1.3747
1.37463
1.37455
1.37448
1.3744
1.37432
1.37424
1.37416
1.37408
1.374
1.37391
1.37383
1.37376
1.37369
1.37362
1.37357
1.37352
1.37349
1.37347
1.37347
1.37348
1.3735
1.37354
1.37359
1.37366
1.37375
1.37384
1.37395
1.37408
1.37421
1.37436
1.37452
1.37469
1.37486
1.37505
1.37523
1.37542
1.3756
1.37578
1.37595
1.3761
1.37623
1.37634
1.37643
1.37648
1.37651
1.37649
1.37644
1.37635
1.37621
1.37603
1.37581
1.37555
1.37525
1.37492
1.37456
1.37419
1.37381
1.37343
1.37306
1.37272
1.37242
1.37215
1.37193
1.37177
1.37165
1.37157
1.37154
1.37155
1.37158
1.37162
1.37166
1.3717
1.37172
1.37172
1.37168
1.3716
1.37148
1.37133
1.37112
1.37088
1.3706
1.37029
1.36995
1.36959
1.36922
1.36884
1.36847
1.3681
1.36774
1.36741
1.36708
1.36678
1.36649
1.3662
1.36593
1.36567
1.3654
1.36513
1.36486
1.36457
1.36426
1.36392
1.36355
1.36315
1.3627
1.3622
1.36164
1.36104
1.36037
1.35965
1.35887
1.35803
1.35713
1.35618
1.35519
1.35414
1.35306
1.35193
1.35077
1.34958
1.34836
1.34712
1.34587
1.3446
1.34334
1.34207
1.3408
1.33954
1.33828
1.33702
1.33576
1.3345
1.33324
1.33198
1.33071
1.32944
1.32817
1.32691
1.32566
1.32442
1.3232
1.32199
1.32081
1.31965
1.31851
1.31741
1.31633
1.31528
1.31426
1.31327
1.3123
1.31136
1.31043
1.30953
1.30863
1.30776
1.3069
1.30606
1.30524
1.30445
1.30368
1.30294
1.30224
1.30157
1.30094
1.30034
1.29978
1.29926
1.29878
1.29833
1.29792
1.29754
1.29719
1.29687
1.29657
1.29629
1.29603
1.29578
1.29555
1.29533
1.29513
1.29494
1.29476
1.29459
1.29445
1.29432
1.2942
1.2941
1.29401
1.29394
1.29389
1.29384
1.29381
1.2938
1.29381
1.29383
1.29387
1.29396
1.29405
1.29414
1.29429
1.29448
1.29457
1.29471
1.29503
1.29518
1.29514
1.29557
1.29604
1.29576
1.29594
1.29704
1.29705
1.29663
1.2977
1.29872
1.29889
1.29959
1.30049
1.31602
1.31546
1.31496
1.31445
1.314
1.31354
1.31303
1.31256
1.31215
1.31169
1.31123
1.31084
1.31044
1.31004
1.30967
1.30932
1.30896
1.30862
1.3083
1.30797
1.30764
1.30733
1.30701
1.3067
1.3064
1.30611
1.30584
1.30558
1.30535
1.30514
1.30497
1.30482
1.3047
1.3046
1.30453
1.30447
1.30443
1.30439
1.30436
1.30433
1.3043
1.30426
1.30423
1.3042
1.30417
1.30415
1.30414
1.30415
1.30417
1.30421
1.30425
1.30431
1.30437
1.30444
1.30451
1.30459
1.30468
1.30479
1.30493
1.3051
1.30532
1.30559
1.30593
1.30633
1.3068
1.30736
1.30798
1.30868
1.30945
1.3103
1.3112
1.31217
1.31319
1.31425
1.31533
1.31646
1.31759
1.31873
1.31988
1.32102
1.32215
1.32328
1.3244
1.32551
1.32663
1.32776
1.32889
1.33005
1.33123
1.33243
1.33365
1.3349
1.33617
1.33746
1.33877
1.34009
1.34142
1.34276
1.3441
1.34544
1.34678
1.34811
1.34943
1.35074
1.35203
1.35329
1.35454
1.35575
1.35692
1.35806
1.35915
1.36019
1.36119
1.36214
1.36303
1.36388
1.36468
1.36545
1.36617
1.36686
1.36752
1.36817
1.36878
1.36938
1.36995
1.3705
1.37101
1.37149
1.37193
1.3723
1.3726
1.37284
1.373
1.37308
1.37309
1.37303
1.3729
1.37272
1.37252
1.37228
1.37204
1.37181
1.37159
1.37141
1.37126
1.37115
1.37108
1.37105
1.37107
1.37113
1.37122
1.37135
1.37152
1.37171
1.37193
1.37217
1.37243
1.37271
1.37299
1.37328
1.37358
1.37386
1.37412
1.37437
1.37458
1.37476
1.37491
1.37501
1.37508
1.37511
1.37511
1.37509
1.37505
1.375
1.37494
1.37488
1.37482