# vtk DataFile Version 2.0
LBE two cylinders
ASCII
DATASET STRUCTURED_POINTS
DIMENSIONS 400 100 1
ASPECT_RATIO 1 1 1
ORIGIN 0 0 0
POINT_DATA 40000
SCALARS rho double 1
LOOKUP_TABLE default
1.33946
1.33685
1.33715
1.33719
1.33629
1.33578
1.33546
1.33479
1.33417
1.33363
1.33302
1.33238
1.33179
1.3312
1.3306
1.33002
1.32946
1.3289
1.32837
1.32785
1.32735
1.32686
1.3264
1.32595
1.32552
1.32511
1.32471
1.32434
1.32398
1.32364
1.32331
1.323
1.32271
1.32243
1.32217
1.32193
1.32171
1.3215
1.32131
1.32114
1.32099
1.32086
1.32074
1.32065
1.32058
1.32052
1.32049
1.32048
1.32049
1.32052
1.32057
1.32065
1.32074
1.32087
1.32101
1.32118
1.32137
1.32159
1.32183
1.32209
1.32238
1.3227
1.32304
1.3234
1.32379
1.3242
1.32464
1.32511
1.3256
1.32612
1.32667
1.32724
1.32784
1.32846
1.32911
1.32979
1.33049
1.33122
1.33197
1.33274
1.33354
1.33436
1.33521
1.33608
1.33696
1.33787
1.3388
1.33975
1.34071
1.34169
1.34268
1.34369
1.34471
1.34573
1.34676
1.34779
1.34883
1.34986
1.35089
1.35192
1.35293
1.35393
1.35492
1.35588
1.35683
1.35775
1.35865
1.35952
1.36036
1.36117
1.36195
1.36269
1.36339
1.36406
1.3647
1.3653
1.36586
1.36638
1.36687
1.36732
1.36774
1.36813
1.36849
1.36882
1.36911
1.36939
1.36963
1.36986
1.37006
1.37025
1.37042
1.37057
1.37071
1.37083
1.37095
1.37105
1.37115
1.37125
1.37133
1.37142
1.3715
1.37158
1.37166
1.37174
1.37182
1.3719
1.37198
1.37206
1.37215
1.37223
1.37232
1.37241
1.37249
1.37258
1.37266
1.37274
1.37282
1.3729
1.37296
1.37303
1.37309
1.37314
1.37319
1.37323
1.37326
1.37329
1.37331
1.37332
1.37333
1.37333
1.37333
1.37332
1.37332
1.37331
1.37329
1.37328
1.37326
1.37325
1.37323
1.37322
1.37321
1.37319
1.37318
1.37317
1.37316
1.37315
1.37314
1.37314
1.37313
1.37312
1.37312
1.37311
1.3731
1.3731
1.37309
1.37308
1.37307
1.37307
1.37305
1.37304
1.37303
1.37302
1.373
1.37298
1.37296
1.37294
1.37292
1.3729
1.37288
1.37286
1.37283
1.37281
1.37279
1.37277
1.37275
1.37273
1.37272
1.3727
1.37269
1.37268
1.37268
1.37267
1.37267
1.37267
1.37268
1.37268
1.37269
1.37269
1.3727
1.37271
1.37271
1.37271
1.37271
1.37271
1.3727
1.37269
1.37267
1.37265
1.37263
1.3726
1.37257
1.37253
1.3725
1.37245
1.37241
1.37236
1.37232
1.37226
1.37221
1.37216
1.3721
1.37204
1.37199
1.37192
1.37186
1.37179
1.37172
1.37165
1.37157
1.37149
1.3714
1.37131
1.37121
1.3711
1.37098
1.37086
1.37073
1.37059
1.37044
1.37027
1.3701
1.36992
1.36972
1.36951
1.36929
1.36905
1.3688
1.36852
1.36823
1.36792
1.36759
1.36723
1.36685
1.36644
1.36601
1.36555
1.36505
1.36453
1.36397
1.36338
1.36276
1.3621
1.36141
1.36069
1.35994
1.35915
1.35834
1.35749
1.35663
1.35573
1.35482
1.35388
1.35293
1.35196
1.35098
1.34998
1.34898
1.34797
1.34696
1.34595
1.34493
1.34392
1.34291
1.3419
1.3409
1.33991
1.33892
1.33794
1.33697
1.33602
1.33507
1.33414
1.33323
1.33233
1.33144
1.33058
1.32973
1.3289
1.32809
1.3273
1.32653
1.32579
1.32507
1.32437
1.32369
1.32304
1.32241
1.32181
1.32123
1.32067
1.32013
1.31961
1.31912
1.31864
1.31819
1.31775
1.31733
1.31693
1.31655
1.31619
1.31584
1.31551
1.31519
1.31489
1.31461
1.31433
1.31408
1.31384
1.31361
1.31339
1.31319
1.313
1.31282
1.31265
1.3125
1.31235
1.31221
1.31208
1.31196
1.31185
1.31174
1.31164
1.31155
1.31146
1.31138
1.31131
1.31124
1.31118
1.31113
1.31108
1.31105
1.31103
1.31098
1.31098
1.31103
1.31101
1.31094
1.31111
1.3113
1.31099
1.31089
1.31186
1.31177
1.30973
1.31073
1.31465
1.31003
1.30125
1.3118
1.32084
1.33764
1.33781
1.33737
1.33673
1.33645
1.33598
1.33539
1.33482
1.33428
1.33366
1.33305
1.33245
1.33185
1.33124
1.33065
1.33007
1.3295
1.32895
1.32842
1.32789
1.32739
1.32691
1.32644
1.32599
1.32556
1.32515
1.32475
1.32438
1.32402
1.32367
1.32335
1.32304
1.32274
1.32247
1.32221
1.32196
1.32174
1.32153
1.32134
1.32117
1.32102
1.32088
1.32077
1.32068
1.3206
1.32055
1.32052
1.3205
1.32051
1.32054
1.3206
1.32067
1.32077
1.32089
1.32103
1.3212
1.32139
1.32161
1.32185
1.32211
1.3224
1.32271
1.32305
1.32341
1.3238
1.32421
1.32465
1.32511
1.3256
1.32612
1.32666
1.32723
1.32782
1.32845
1.32909
1.32976
1.33046
1.33119
1.33193
1.3327
1.3335
1.33432
1.33516
1.33603
1.33691
1.33782
1.33874
1.33969
1.34065
1.34162
1.34262
1.34362
1.34463
1.34566
1.34668
1.34772
1.34875
1.34979
1.35081
1.35184
1.35285
1.35385
1.35484
1.35581
1.35676
1.35768
1.35858
1.35945
1.3603
1.36111
1.36189
1.36263
1.36334
1.36402
1.36465
1.36525
1.36582
1.36634
1.36684
1.36729
1.36772
1.36811
1.36847
1.3688
1.3691
1.36938
1.36963
1.36986
1.37006
1.37025
1.37042
1.37058
1.37072
1.37085
1.37096
1.37107
1.37117
1.37127
1.37136
1.37144
1.37153
1.37161
1.37169
1.37177
1.37185
1.37193
1.37201
1.37209
1.37218
1.37226
1.37235
1.37243
1.37252
1.3726
1.37268
1.37276
1.37284
1.37292
1.37298
1.37305
1.37311
1.37316
1.37321
1.37325
1.37328
1.37331
1.37333
1.37334
1.37335
1.37335
1.37335
1.37335
1.37334
1.37333
1.37332
1.3733
1.37329
1.37327
1.37326
1.37324
1.37323
1.37322
1.3732
1.37319
1.37318
1.37317
1.37316
1.37315
1.37315
1.37314
1.37313
1.37312
1.37312
1.37311
1.3731
1.37309
1.37308
1.37308
1.37306
1.37305
1.37304
1.37302
1.37301
1.37299
1.37297
1.37295
1.37293
1.37291
1.37289
1.37287
1.37284
1.37282
1.3728
1.37278
1.37276
1.37274
1.37273
1.37271
1.3727
1.37269
1.37269
1.37268
1.37268
1.37268
1.37269
1.37269
1.37269
1.3727
1.3727
1.37271
1.37271
1.37271
1.37271
1.37271
1.3727
1.37268
1.37267
1.37265
1.37262
1.3726
1.37256
1.37253
1.37249
1.37245
1.3724
1.37236
1.37231
1.37226
1.3722
1.37215
1.37209
1.37203
1.37197
1.37191
1.37184
1.37178
1.3717
1.37163
1.37155
1.37146
1.37137
1.37128
1.37117
1.37106
1.37094
1.37082
1.37069
1.37054
1.37039
1.37022
1.37005
1.36986
1.36966
1.36945
1.36922
1.36898
1.36873
1.36845
1.36816
1.36784
1.36751
1.36715
1.36677
1.36636
1.36592
1.36546
1.36497
1.36444
1.36389
1.3633
1.36268
1.36202
1.36133
1.36061
1.35986
1.35908
1.35827
1.35743
1.35656
1.35567
1.35476
1.35383
1.35288
1.35192
1.35094
1.34995
1.34895
1.34795
1.34694
1.34593
1.34492
1.34391
1.3429
1.3419
1.3409
1.33991
1.33893
1.33796
1.33699
1.33604
1.3351
1.33417
1.33326
1.33236
1.33148
1.33062
1.32977
1.32895
1.32814
1.32735
1.32659
1.32584
1.32512
1.32443
1.32375
1.3231
1.32247
1.32186
1.32128
1.32072
1.32018
1.31966
1.31916
1.31868
1.31823
1.31779
1.31737
1.31697
1.31658
1.31622
1.31587
1.31553
1.31522
1.31491
1.31463
1.31435
1.3141
1.31385
1.31362
1.3134
1.3132
1.31301
1.31283
1.31266
1.3125
1.31235
1.31221
1.31208
1.31195
1.31184
1.31173
1.31162
1.31153
1.31144
1.31135
1.31128
1.3112
1.31114
1.31108
1.31103
1.31098
1.31094
1.31093
1.31089
1.31085
1.3109
1.31093
1.31082
1.31085
1.31112
1.31097
1.3105
1.31095
1.31164
1.30995
1.30848
1.31113
1.31056
1.30065
1.29511
1.337
1.338
1.33733
1.33665
1.33665
1.33609
1.33539
1.33491
1.33436
1.33369
1.3331
1.33251
1.33188
1.33128
1.33069
1.33011
1.32953
1.32898
1.32844
1.32792
1.32742
1.32693
1.32646
1.32601
1.32558
1.32517
1.32477
1.32439
1.32403
1.32369
1.32336
1.32305
1.32276
1.32248
1.32222
1.32198
1.32175
1.32155
1.32136
1.32118
1.32103
1.3209
1.32078
1.32069
1.32062
1.32056
1.32053
1.32052
1.32052
1.32055
1.32061
1.32068
1.32078
1.3209
1.32104
1.3212
1.32139
1.32161
1.32185
1.32211
1.32239
1.3227
1.32304
1.3234
1.32378
1.32419
1.32463
1.32509
1.32557
1.32608
1.32662
1.32718
1.32777
1.32839
1.32903
1.3297
1.33039
1.33111
1.33185
1.33262
1.33341
1.33423
1.33507
1.33593
1.33681
1.33771
1.33864
1.33958
1.34054
1.34152
1.34251
1.34351
1.34453
1.34555
1.34658
1.34761
1.34865
1.34969
1.35072
1.35175
1.35276
1.35377
1.35476
1.35573
1.35669
1.35762
1.35852
1.3594
1.36025
1.36107
1.36185
1.3626
1.36331
1.36399
1.36464
1.36524
1.36581
1.36634
1.36684
1.3673
1.36773
1.36813
1.36849
1.36882
1.36913
1.36941
1.36966
1.36989
1.3701
1.37029
1.37046
1.37062
1.37076
1.37089
1.37101
1.37112
1.37123
1.37132
1.37141
1.3715
1.37159
1.37167
1.37175
1.37183
1.37191
1.37199
1.37207
1.37216
1.37224
1.37232
1.37241
1.37249
1.37257
1.37266
1.37274
1.37282
1.37289
1.37297
1.37303
1.3731
1.37316
1.37321
1.37325
1.37329
1.37333
1.37335
1.37337
1.37339
1.3734
1.3734
1.3734
1.3734
1.37339
1.37338
1.37337
1.37336
1.37334
1.37333
1.37331
1.3733
1.37328
1.37327
1.37325
1.37324
1.37323
1.37322
1.37321
1.3732
1.37319
1.37318
1.37317
1.37316
1.37315
1.37314
1.37313
1.37313
1.37312
1.37311
1.37309
1.37308
1.37307
1.37305
1.37303
1.37302
1.373
1.37298
1.37296
1.37294
1.37291
1.37289
1.37287
1.37285
1.37283
1.37281
1.37279
1.37277
1.37276
1.37275
1.37274
1.37273
1.37272
1.37272
1.37272
1.37272
1.37272
1.37272
1.37273
1.37273
1.37274
1.37274
1.37274
1.37274
1.37274
1.37273
1.37272
1.37271
1.37269
1.37267
1.37265
1.37262
1.37259
1.37255
1.37251
1.37247
1.37242
1.37238
1.37233
1.37228
1.37222
1.37217
1.37211
1.37205
1.37199
1.37192
1.37186
1.37179
1.37171
1.37163
1.37155
1.37146
1.37137
1.37127
1.37116
1.37105
1.37093
1.3708
1.37066
1.37051
1.37036
1.37019
1.37001
1.36982
1.36962
1.36941
1.36918
1.36893
1.36867
1.36839
1.3681
1.36778
1.36744
1.36708
1.3667
1.36629
1.36585
1.36539
1.36489
1.36437
1.36381
1.36322
1.3626
1.36195
1.36126
1.36054
1.35979
1.35901
1.35819
1.35736
1.35649
1.3556
1.35469
1.35376
1.35281
1.35185
1.35087
1.34988
1.34889
1.34789
1.34688
1.34587
1.34486
1.34386
1.34285
1.34185
1.34086
1.33987
1.33889
1.33792
1.33696
1.33602
1.33508
1.33416
1.33325
1.33236
1.33148
1.33063
1.32978
1.32896
1.32816
1.32738
1.32661
1.32587
1.32516
1.32446
1.32379
1.32313
1.3225
1.3219
1.32131
1.32075
1.32021
1.31969
1.31919
1.31871
1.31825
1.31781
1.31739
1.31699
1.3166
1.31624
1.31588
1.31555
1.31523
1.31493
1.31464
1.31436
1.31411
1.31386
1.31363
1.31341
1.3132
1.31301
1.31283
1.31266
1.3125
1.31234
1.3122
1.31207
1.31194
1.31182
1.31171
1.31161
1.31151
1.31141
1.31133
1.31125
1.31117
1.3111
1.31103
1.31098
1.31092
1.31086
1.31085
1.31084
1.31075
1.31072
1.31085
1.31079
1.31051
1.31078
1.31119
1.31034
1.30978
1.31165
1.31132
1.30653
1.30852
1.31537
1.30292
1.29064
1.33744
1.33754
1.33744
1.33721
1.3367
1.33606
1.3356
1.33502
1.33437
1.33376
1.33316
1.33252
1.33191
1.33131
1.33071
1.33011
1.32955
1.32899
1.32845
1.32792
1.32742
1.32693
1.32646
1.32601
1.32558
1.32516
1.32477
1.32439
1.32403
1.32369
1.32336
1.32305
1.32276
1.32248
1.32222
1.32198
1.32175
1.32154
1.32135
1.32118
1.32103
1.3209
1.32078
1.32069
1.32061
1.32056
1.32052
1.32051
1.32052
1.32055
1.3206
1.32067
1.32077
1.32089
1.32103
1.32119
1.32138
1.32159
1.32182
1.32208
1.32237
1.32267
1.323
1.32336
1.32374
1.32414
1.32457
1.32503
1.32551
1.32601
1.32654
1.3271
1.32768
1.32829
1.32893
1.32959
1.33028
1.33099
1.33173
1.33249
1.33327
1.33409
1.33492
1.33578
1.33666
1.33756
1.33848
1.33943
1.34038
1.34136
1.34235
1.34336
1.34438
1.34541
1.34644
1.34748
1.34852
1.34956
1.3506
1.35163
1.35266
1.35367
1.35467
1.35565
1.35661
1.35755
1.35846
1.35935
1.36021
1.36103
1.36182
1.36258
1.3633
1.36399
1.36464
1.36525
1.36583
1.36637
1.36687
1.36733
1.36777
1.36817
1.36853
1.36887
1.36918
1.36946
1.36972
1.36995
1.37016
1.37036
1.37053
1.37069
1.37084
1.37097
1.37109
1.3712
1.37131
1.37141
1.3715
1.37159
1.37167
1.37176
1.37184
1.37192
1.372
1.37208
1.37216
1.37225
1.37233
1.37241
1.37249
1.37258
1.37266
1.37274
1.37282
1.3729
1.37297
1.37304
1.37311
1.37317
1.37323
1.37328
1.37332
1.37336
1.3734
1.37342
1.37345
1.37346
1.37347
1.37348
1.37348
1.37347
1.37347
1.37346
1.37345
1.37343
1.37342
1.3734
1.37339
1.37337
1.37335
1.37334
1.37332
1.37331
1.3733
1.37328
1.37327
1.37326
1.37325
1.37324
1.37323
1.37322
1.37321
1.3732
1.37319
1.37318
1.37316
1.37315
1.37314
1.37312
1.37311
1.37309
1.37308
1.37306
1.37304
1.37302
1.373
1.37298
1.37296
1.37294
1.37292
1.3729
1.37288
1.37286
1.37284
1.37282
1.37281
1.3728
1.37279
1.37278
1.37278
1.37277
1.37277
1.37277
1.37278
1.37278
1.37278
1.37279
1.37279
1.37279
1.37279
1.37279
1.37279
1.37278
1.37277
1.37276
1.37274
1.37272
1.37269
1.37267
1.37263
1.3726
1.37256
1.37252
1.37247
1.37242
1.37237
1.37232
1.37227
1.37221
1.37215
1.37209
1.37203
1.37196
1.37189
1.37182
1.37174
1.37166
1.37158
1.37149
1.37139
1.37129
1.37118
1.37106
1.37093
1.3708
1.37066
1.37051
1.37035
1.37018
1.36999
1.3698
1.36959
1.36938
1.36914
1.3689
1.36863
1.36835
1.36805
1.36773
1.36739
1.36703
1.36664
1.36623
1.36579
1.36532
1.36482
1.36429
1.36373
1.36314
1.36252
1.36186
1.36117
1.36044
1.35969
1.3589
1.35809
1.35724
1.35638
1.35548
1.35457
1.35364
1.35269
1.35172
1.35074
1.34976
1.34876
1.34776
1.34675
1.34575
1.34474
1.34373
1.34273
1.34174
1.34075
1.33976
1.33879
1.33783
1.33687
1.33593
1.335
1.33409
1.33319
1.3323
1.33144
1.33059
1.32975
1.32894
1.32814
1.32737
1.32661
1.32587
1.32516
1.32447
1.3238
1.32315
1.32252
1.32192
1.32133
1.32077
1.32023
1.31971
1.31921
1.31873
1.31827
1.31783
1.31741
1.31701
1.31662
1.31625
1.3159
1.31556
1.31524
1.31494
1.31465
1.31438
1.31412
1.31387
1.31364
1.31342
1.31321
1.31301
1.31283
1.31266
1.3125
1.31234
1.3122
1.31207
1.31194
1.31182
1.3117
1.3116
1.3115
1.3114
1.31131
1.31123
1.31115
1.31108
1.311
1.31094
1.3109
1.31085
1.31077
1.31076
1.31079
1.31069
1.31058
1.31078
1.31087
1.31039
1.31042
1.31133
1.31073
1.30905
1.31071
1.31237
1.30761
1.30554
1.31088
1.31143
1.33823
1.33796
1.33783
1.33748
1.33677
1.33623
1.33577
1.33506
1.33441
1.33383
1.33318
1.33252
1.33192
1.3313
1.33069
1.3301
1.32953
1.32896
1.32842
1.32789
1.32739
1.3269
1.32643
1.32598
1.32555
1.32513
1.32474
1.32436
1.324
1.32366
1.32333
1.32302
1.32273
1.32245
1.32219
1.32195
1.32173
1.32152
1.32133
1.32116
1.32101
1.32088
1.32076
1.32067
1.32059
1.32054
1.32051
1.32049
1.3205
1.32053
1.32058
1.32065
1.32074
1.32086
1.321
1.32116
1.32134
1.32155
1.32178
1.32204
1.32232
1.32262
1.32294
1.32329
1.32367
1.32407
1.32449
1.32494
1.32541
1.32591
1.32643
1.32698
1.32755
1.32816
1.32878
1.32943
1.33011
1.33082
1.33155
1.33231
1.33309
1.33389
1.33472
1.33558
1.33646
1.33736
1.33828
1.33922
1.34018
1.34116
1.34215
1.34316
1.34419
1.34522
1.34626
1.3473
1.34835
1.3494
1.35045
1.35149
1.35252
1.35355
1.35455
1.35555
1.35652
1.35747
1.35839
1.35929
1.36016
1.361
1.3618
1.36257
1.3633
1.364
1.36465
1.36528
1.36586
1.3664
1.36691
1.36738
1.36782
1.36822
1.3686
1.36894
1.36925
1.36953
1.36979
1.37003
1.37024
1.37044
1.37062
1.37078
1.37093
1.37106
1.37119
1.3713
1.37141
1.37151
1.37161
1.3717
1.37178
1.37187
1.37195
1.37203
1.37212
1.3722
1.37228
1.37236
1.37244
1.37252
1.3726
1.37268
1.37276
1.37284
1.37292
1.37299
1.37307
1.37314
1.3732
1.37326
1.37332
1.37337
1.37341
1.37345
1.37348
1.37351
1.37353
1.37355
1.37356
1.37357
1.37357
1.37357
1.37356
1.37356
1.37354
1.37353
1.37352
1.3735
1.37348
1.37347
1.37345
1.37343
1.37342
1.3734
1.37338
1.37337
1.37336
1.37334
1.37333
1.37332
1.3733
1.37329
1.37328
1.37327
1.37325
1.37324
1.37323
1.37322
1.3732
1.37319
1.37317
1.37315
1.37314
1.37312
1.3731
1.37308
1.37306
1.37304
1.37302
1.373
1.37298
1.37296
1.37294
1.37293
1.37291
1.3729
1.37288
1.37287
1.37287
1.37286
1.37286
1.37285
1.37285
1.37286
1.37286
1.37286
1.37286
1.37287
1.37287
1.37287
1.37287
1.37287
1.37287
1.37286
1.37285
1.37283
1.37281
1.37279
1.37277
1.37274
1.3727
1.37267
1.37263
1.37259
1.37254
1.3725
1.37245
1.37239
1.37234
1.37228
1.37222
1.37216
1.37209
1.37203
1.37195
1.37188
1.3718
1.37172
1.37163
1.37153
1.37143
1.37132
1.37121
1.37109
1.37096
1.37082
1.37067
1.37052
1.37035
1.37018
1.36999
1.36979
1.36958
1.36936
1.36912
1.36887
1.3686
1.36832
1.36801
1.36769
1.36735
1.36698
1.36658
1.36617
1.36572
1.36525
1.36474
1.36421
1.36364
1.36304
1.36241
1.36174
1.36104
1.36031
1.35955
1.35875
1.35793
1.35708
1.35621
1.35531
1.35439
1.35345
1.3525
1.35152
1.35054
1.34955
1.34856
1.34755
1.34655
1.34554
1.34453
1.34353
1.34253
1.34154
1.34055
1.33958
1.33861
1.33765
1.33671
1.33577
1.33486
1.33395
1.33306
1.33219
1.33133
1.33049
1.32967
1.32886
1.32808
1.32731
1.32657
1.32584
1.32513
1.32445
1.32378
1.32314
1.32252
1.32192
1.32134
1.32078
1.32024
1.31973
1.31923
1.31875
1.31829
1.31785
1.31743
1.31703
1.31664
1.31627
1.31592
1.31559
1.31527
1.31496
1.31467
1.3144
1.31414
1.31389
1.31366
1.31344
1.31323
1.31304
1.31285
1.31268
1.31252
1.31236
1.31222
1.31208
1.31196
1.31184
1.31172
1.31162
1.31151
1.31142
1.31133
1.31124
1.31116
1.31109
1.31103
1.31096
1.3109
1.31088
1.31083
1.31075
1.31078
1.31084
1.3107
1.31063
1.31098
1.31096
1.31035
1.31085
1.31187
1.31034
1.30941
1.31281
1.3121
1.30713
1.31043
1.31289
1.33915
1.33875
1.33824
1.33761
1.33708
1.33651
1.3358
1.33512
1.33452
1.33384
1.33316
1.33253
1.33189
1.33125
1.33064
1.33005
1.32946
1.3289
1.32835
1.32783
1.32732
1.32683
1.32636
1.32591
1.32548
1.32507
1.32468
1.3243
1.32394
1.3236
1.32328
1.32297
1.32268
1.3224
1.32215
1.32191
1.32168
1.32148
1.32129
1.32112
1.32097
1.32084
1.32072
1.32063
1.32056
1.3205
1.32047
1.32046
1.32046
1.32049
1.32054
1.32061
1.3207
1.32082
1.32095
1.32111
1.32129
1.3215
1.32172
1.32197
1.32225
1.32254
1.32286
1.3232
1.32357
1.32396
1.32438
1.32481
1.32528
1.32577
1.32628
1.32682
1.32739
1.32798
1.3286
1.32924
1.32991
1.33061
1.33133
1.33208
1.33285
1.33365
1.33448
1.33533
1.3362
1.3371
1.33802
1.33896
1.33993
1.34091
1.34191
1.34292
1.34395
1.34499
1.34603
1.34709
1.34814
1.3492
1.35026
1.35131
1.35236
1.35339
1.35441
1.35542
1.35641
1.35737
1.35831
1.35922
1.3601
1.36095
1.36177
1.36255
1.36329
1.364
1.36467
1.3653
1.36589
1.36644
1.36696
1.36744
1.36788
1.36829
1.36866
1.36901
1.36933
1.36961
1.36988
1.37012
1.37034
1.37053
1.37071
1.37088
1.37103
1.37117
1.37129
1.37141
1.37152
1.37162
1.37172
1.37181
1.3719
1.37199
1.37207
1.37216
1.37224
1.37232
1.3724
1.37248
1.37256
1.37264
1.37272
1.3728
1.37288
1.37295
1.37303
1.3731
1.37317
1.37324
1.3733
1.37336
1.37341
1.37346
1.37351
1.37355
1.37358
1.37361
1.37363
1.37365
1.37366
1.37367
1.37368
1.37368
1.37367
1.37366
1.37365
1.37364
1.37363
1.37361
1.37359
1.37358
1.37356
1.37354
1.37352
1.3735
1.37349
1.37347
1.37345
1.37344
1.37342
1.37341
1.37339
1.37338
1.37336
1.37335
1.37333
1.37332
1.3733
1.37329
1.37327
1.37326
1.37324
1.37322
1.3732
1.37319
1.37317
1.37315
1.37313
1.37311
1.37309
1.37307
1.37305
1.37304
1.37302
1.37301
1.37299
1.37298
1.37297
1.37296
1.37296
1.37295
1.37295
1.37295
1.37295
1.37295
1.37295
1.37296
1.37296
1.37296
1.37296
1.37297
1.37296
1.37296
1.37295
1.37295
1.37293
1.37292
1.3729
1.37288
1.37285
1.37282
1.37279
1.37275
1.37272
1.37267
1.37263
1.37258
1.37253
1.37248
1.37242
1.37237
1.37231
1.37224
1.37217
1.3721
1.37203
1.37195
1.37187
1.37178
1.37169
1.37159
1.37148
1.37137
1.37125
1.37112
1.37099
1.37085
1.3707
1.37053
1.37036
1.37019
1.36999
1.36979
1.36958
1.36935
1.36911
1.36885
1.36858
1.36829
1.36798
1.36765
1.3673
1.36692
1.36652
1.3661
1.36564
1.36516
1.36464
1.3641
1.36352
1.36291
1.36226
1.36159
1.36087
1.36013
1.35936
1.35855
1.35772
1.35686
1.35597
1.35506
1.35414
1.35319
1.35223
1.35125
1.35026
1.34927
1.34827
1.34726
1.34625
1.34525
1.34424
1.34324
1.34224
1.34125
1.34027
1.3393
1.33834
1.3374
1.33646
1.33554
1.33463
1.33374
1.33286
1.332
1.33116
1.33033
1.32953
1.32874
1.32796
1.32721
1.32648
1.32576
1.32507
1.3244
1.32374
1.32311
1.32249
1.3219
1.32133
1.32078
1.32025
1.31973
1.31924
1.31877
1.31831
1.31787
1.31746
1.31706
1.31667
1.31631
1.31596
1.31562
1.3153
1.315
1.31471
1.31444
1.31418
1.31393
1.3137
1.31348
1.31327
1.31308
1.31289
1.31272
1.31256
1.31241
1.31226
1.31213
1.312
1.31188
1.31177
1.31167
1.31157
1.31147
1.31138
1.31131
1.31123
1.31116
1.3111
1.31106
1.31099
1.31094
1.31096
1.31095
1.31084
1.3109
1.3111
1.31094
1.31078
1.31137
1.31161
1.31067
1.31115
1.313
1.31162
1.30992
1.31323
1.31502
1.31196
1.31159
1.34021
1.33943
1.33872
1.33799
1.33738
1.33664
1.33587
1.33522
1.33454
1.3338
1.33313
1.33248
1.33181
1.33117
1.33056
1.32995
1.32936
1.3288
1.32825
1.32772
1.32721
1.32673
1.32626
1.32581
1.32538
1.32497
1.32458
1.32421
1.32385
1.32351
1.32319
1.32289
1.3226
1.32233
1.32208
1.32184
1.32162
1.32141
1.32123
1.32106
1.32091
1.32078
1.32067
1.32058
1.3205
1.32045
1.32042
1.3204
1.32041
1.32044
1.32048
1.32055
1.32064
1.32075
1.32089
1.32104
1.32122
1.32142
1.32164
1.32189
1.32215
1.32244
1.32275
1.32309
1.32345
1.32383
1.32424
1.32466
1.32512
1.3256
1.3261
1.32663
1.32719
1.32776
1.32837
1.32901
1.32966
1.33035
1.33106
1.3318
1.33257
1.33336
1.33418
1.33503
1.3359
1.3368
1.33772
1.33866
1.33962
1.34061
1.34161
1.34263
1.34366
1.34471
1.34576
1.34682
1.34789
1.34896
1.35003
1.3511
1.35216
1.3532
1.35424
1.35526
1.35626
1.35724
1.3582
1.35912
1.36002
1.36089
1.36172
1.36252
1.36327
1.36399
1.36467
1.36531
1.36592
1.36648
1.367
1.36749
1.36794
1.36835
1.36873
1.36908
1.3694
1.36969
1.36996
1.3702
1.37042
1.37062
1.3708
1.37097
1.37113
1.37127
1.3714
1.37152
1.37163
1.37173
1.37183
1.37193
1.37202
1.37211
1.37219
1.37228
1.37236
1.37244
1.37252
1.3726
1.37268
1.37276
1.37284
1.37292
1.37299
1.37307
1.37314
1.37321
1.37328
1.37334
1.3734
1.37346
1.37351
1.37356
1.3736
1.37364
1.37368
1.37371
1.37373
1.37375
1.37377
1.37378
1.37378
1.37379
1.37378
1.37378
1.37377
1.37376
1.37374
1.37373
1.37371
1.37369
1.37367
1.37366
1.37364
1.37362
1.3736
1.37358
1.37356
1.37354
1.37352
1.37351
1.37349
1.37347
1.37346
1.37344
1.37342
1.37341
1.37339
1.37337
1.37336
1.37334
1.37332
1.3733
1.37328
1.37327
1.37325
1.37323
1.37321
1.37319
1.37318
1.37316
1.37314
1.37313
1.37311
1.3731
1.37309
1.37308
1.37307
1.37306
1.37306
1.37306
1.37306
1.37306
1.37306
1.37306
1.37306
1.37307
1.37307
1.37307
1.37307
1.37307
1.37307
1.37306
1.37306
1.37305
1.37303
1.37302
1.373
1.37297
1.37295
1.37292
1.37289
1.37285
1.37281
1.37277
1.37272
1.37268
1.37263
1.37257
1.37252
1.37246
1.3724
1.37233
1.37226
1.37219
1.37211
1.37203
1.37194
1.37185
1.37175
1.37165
1.37154
1.37142
1.3713
1.37117
1.37103
1.37088
1.37072
1.37056
1.37038
1.37019
1.37
1.36979
1.36957
1.36933
1.36909
1.36883
1.36855
1.36825
1.36794
1.3676
1.36724
1.36685
1.36645
1.36601
1.36555
1.36505
1.36452
1.36396
1.36337
1.36275
1.36209
1.36139
1.36067
1.35991
1.35912
1.3583
1.35745
1.35657
1.35567
1.35475
1.35381
1.35285
1.35188
1.3509
1.34991
1.3489
1.3479
1.34689
1.34588
1.34487
1.34387
1.34286
1.34187
1.34089
1.33991
1.33895
1.338
1.33706
1.33614
1.33523
1.33433
1.33346
1.3326
1.33175
1.33093
1.33012
1.32933
1.32855
1.3278
1.32706
1.32635
1.32565
1.32497
1.32431
1.32367
1.32305
1.32245
1.32186
1.3213
1.32076
1.32024
1.31973
1.31925
1.31878
1.31833
1.3179
1.31749
1.31709
1.31671
1.31635
1.316
1.31567
1.31536
1.31506
1.31477
1.3145
1.31424
1.314
1.31377
1.31355
1.31335
1.31315
1.31297
1.3128
1.31264
1.31249
1.31235
1.31222
1.31209
1.31198
1.31187
1.31176
1.31167
1.31158
1.3115
1.31142
1.31136
1.3113
1.31124
1.3112
1.31119
1.31114
1.31111
1.31118
1.3112
1.31112
1.31128
1.31156
1.31137
1.31136
1.31221
1.31232
1.3115
1.31275
1.31426
1.31286
1.31308
1.31562
1.31586
1.31649
1.34125
1.34003
1.33923
1.33842
1.33756
1.33674
1.33601
1.33526
1.33448
1.33376
1.33308
1.33237
1.33169
1.33106
1.33042
1.3298
1.32922
1.32865
1.3281
1.32757
1.32707
1.32658
1.32612
1.32567
1.32525
1.32484
1.32445
1.32408
1.32373
1.3234
1.32308
1.32278
1.3225
1.32223
1.32198
1.32174
1.32153
1.32133
1.32114
1.32098
1.32083
1.3207
1.3206
1.3205
1.32043
1.32038
1.32035
1.32033
1.32034
1.32037
1.32041
1.32048
1.32057
1.32068
1.32081
1.32096
1.32113
1.32132
1.32154
1.32178
1.32204
1.32232
1.32263
1.32295
1.3233
1.32367
1.32407
1.32449
1.32493
1.3254
1.32589
1.32641
1.32695
1.32751
1.32811
1.32873
1.32938
1.33006
1.33076
1.33149
1.33225
1.33303
1.33384
1.33468
1.33555
1.33644
1.33736
1.3383
1.33927
1.34026
1.34126
1.34228
1.34332
1.34438
1.34544
1.34651
1.34759
1.34867
1.34975
1.35083
1.3519
1.35297
1.35402
1.35506
1.35608
1.35708
1.35805
1.35899
1.35991
1.36079
1.36164
1.36246
1.36323
1.36396
1.36466
1.36531
1.36592
1.36649
1.36703
1.36752
1.36798
1.3684
1.36878
1.36914
1.36946
1.36975
1.37003
1.37027
1.37049
1.3707
1.37088
1.37105
1.37121
1.37135
1.37148
1.37161
1.37172
1.37183
1.37193
1.37203
1.37212
1.37221
1.3723
1.37238
1.37247
1.37255
1.37263
1.37271
1.37279
1.37287
1.37294
1.37302
1.37309
1.37317
1.37324
1.3733
1.37337
1.37343
1.37349
1.37355
1.3736
1.37365
1.37369
1.37373
1.37377
1.3738
1.37382
1.37385
1.37386
1.37388
1.37388
1.37389
1.37389
1.37388
1.37388
1.37387
1.37386
1.37384
1.37382
1.37381
1.37379
1.37377
1.37375
1.37373
1.37371
1.37369
1.37367
1.37365
1.37363
1.37361
1.37359
1.37357
1.37355
1.37353
1.37351
1.37349
1.37347
1.37346
1.37344
1.37342
1.3734
1.37338
1.37336
1.37334
1.37333
1.37331
1.37329
1.37327
1.37326
1.37324
1.37323
1.37322
1.3732
1.37319
1.37318
1.37318
1.37317
1.37317
1.37316
1.37316
1.37316
1.37316
1.37317
1.37317
1.37317
1.37317
1.37318
1.37318
1.37318
1.37318
1.37317
1.37317
1.37316
1.37315
1.37313
1.37311
1.37309
1.37307
1.37304
1.37301
1.37298
1.37294
1.3729
1.37286
1.37282
1.37277
1.37272
1.37266
1.37261
1.37255
1.37248
1.37242
1.37235
1.37227
1.37219
1.3721
1.37201
1.37192
1.37181
1.37171
1.37159
1.37147
1.37134
1.3712
1.37106
1.3709
1.37074
1.37057
1.37039
1.37019
1.36999
1.36978
1.36955
1.36931
1.36906
1.36879
1.36851
1.3682
1.36788
1.36753
1.36717
1.36677
1.36635
1.3659
1.36543
1.36492
1.36438
1.3638
1.36319
1.36255
1.36187
1.36116
1.36041
1.35963
1.35882
1.35799
1.35712
1.35623
1.35531
1.35438
1.35342
1.35245
1.35147
1.35048
1.34948
1.34846
1.34745
1.34644
1.34543
1.34442
1.34341
1.34241
1.34142
1.34044
1.33948
1.33852
1.33758
1.33665
1.33574
1.33485
1.33397
1.3331
1.33226
1.33144
1.33063
1.32984
1.32907
1.32831
1.32758
1.32687
1.32617
1.32549
1.32483
1.32419
1.32356
1.32296
1.32237
1.3218
1.32126
1.32073
1.32022
1.31972
1.31925
1.31879
1.31835
1.31793
1.31753
1.31714
1.31677
1.31641
1.31607
1.31574
1.31543
1.31514
1.31486
1.31459
1.31434
1.31409
1.31387
1.31365
1.31345
1.31326
1.31308
1.31292
1.31276
1.31261
1.31247
1.31234
1.31222
1.31211
1.31201
1.31191
1.31182
1.31174
1.31167
1.3116
1.31154
1.3115
1.31146
1.31142
1.31142
1.31145
1.31142
1.31143
1.3116
1.31167
1.31158
1.31187
1.31236
1.31214
1.31217
1.31346
1.31373
1.31286
1.31435
1.31648
1.31591
1.31592
1.31873
1.32076
1.3421
1.34064
1.33968
1.3387
1.33773
1.33688
1.33605
1.3352
1.33441
1.33369
1.33294
1.33221
1.33154
1.33088
1.33023
1.32962
1.32903
1.32846
1.32791
1.32739
1.32688
1.3264
1.32594
1.3255
1.32508
1.32468
1.3243
1.32393
1.32358
1.32326
1.32294
1.32265
1.32237
1.32211
1.32186
1.32163
1.32142
1.32122
1.32104
1.32088
1.32074
1.32061
1.3205
1.32041
1.32034
1.32029
1.32026
1.32025
1.32025
1.32028
1.32032
1.32039
1.32048
1.32058
1.32071
1.32085
1.32102
1.32121
1.32142
1.32165
1.32191
1.32218
1.32248
1.3228
1.32314
1.32349
1.32388
1.32429
1.32472
1.32517
1.32565
1.32615
1.32668
1.32724
1.32782
1.32842
1.32906
1.32973
1.33041
1.33113
1.33188
1.33266
1.33346
1.3343
1.33516
1.33604
1.33696
1.3379
1.33887
1.33985
1.34086
1.34189
1.34294
1.34399
1.34506
1.34615
1.34723
1.34833
1.34942
1.35052
1.3516
1.35268
1.35376
1.35481
1.35585
1.35687
1.35786
1.35882
1.35976
1.36066
1.36153
1.36236
1.36315
1.3639
1.36461
1.36528
1.3659
1.36648
1.36703
1.36753
1.36799
1.36842
1.36881
1.36917
1.3695
1.36979
1.37006
1.37031
1.37054
1.37074
1.37093
1.37111
1.37126
1.37141
1.37154
1.37167
1.37178
1.3719
1.372
1.3721
1.37219
1.37228
1.37237
1.37246
1.37254
1.37263
1.37271
1.37279
1.37287
1.37294
1.37302
1.37309
1.37317
1.37324
1.37331
1.37337
1.37344
1.3735
1.37356
1.37361
1.37366
1.37371
1.37376
1.3738
1.37383
1.37387
1.3739
1.37392
1.37394
1.37396
1.37397
1.37397
1.37398
1.37398
1.37397
1.37396
1.37395
1.37394
1.37393
1.37391
1.37389
1.37387
1.37385
1.37383
1.37381
1.37379
1.37376
1.37374
1.37372
1.3737
1.37368
1.37366
1.37364
1.37362
1.37359
1.37357
1.37355
1.37353
1.37351
1.37349
1.37347
1.37346
1.37344
1.37342
1.3734
1.37338
1.37337
1.37335
1.37334
1.37332
1.37331
1.3733
1.37329
1.37328
1.37327
1.37327
1.37327
1.37326
1.37326
1.37326
1.37326
1.37327
1.37327
1.37327
1.37328
1.37328
1.37328
1.37328
1.37328
1.37327
1.37327
1.37326
1.37325
1.37323
1.37322
1.3732
1.37318
1.37315
1.37312
1.37309
1.37306
1.37302
1.37298
1.37294
1.37289
1.37285
1.3728
1.37274
1.37268
1.37262
1.37256
1.37249
1.37241
1.37233
1.37225
1.37216
1.37206
1.37196
1.37186
1.37174
1.37162
1.37149
1.37136
1.37122
1.37106
1.3709
1.37074
1.37056
1.37037
1.37018
1.36997
1.36975
1.36952
1.36927
1.36901
1.36874
1.36845
1.36813
1.3678
1.36745
1.36707
1.36666
1.36623
1.36577
1.36528
1.36475
1.3642
1.3636
1.36297
1.36231
1.36161
1.36088
1.36011
1.35931
1.35848
1.35762
1.35673
1.35582
1.35489
1.35394
1.35297
1.35199
1.35099
1.34999
1.34898
1.34796
1.34695
1.34593
1.34491
1.3439
1.3429
1.3419
1.34092
1.33994
1.33898
1.33803
1.3371
1.33618
1.33529
1.3344
1.33355
1.3327
1.33187
1.33107
1.33028
1.32951
1.32877
1.32803
1.32732
1.32663
1.32595
1.32529
1.32465
1.32403
1.32343
1.32284
1.32228
1.32172
1.32119
1.32068
1.32019
1.31971
1.31925
1.3188
1.31838
1.31796
1.31757
1.31719
1.31683
1.31648
1.31615
1.31583
1.31553
1.31524
1.31497
1.3147
1.31446
1.31422
1.314
1.31379
1.31359
1.31341
1.31323
1.31307
1.31292
1.31277
1.31264
1.31251
1.3124
1.31229
1.3122
1.31211
1.31203
1.31195
1.31189
1.31184
1.31179
1.31175
1.31175
1.31174
1.31172
1.31177
1.31186
1.31186
1.31194
1.31222
1.31235
1.31232
1.31282
1.31341
1.31323
1.31364
1.31506
1.31536
1.3153
1.3169
1.31846
1.31931
1.32064
1.32223
1.34271
1.3411
1.33998
1.33886
1.33785
1.33692
1.33597
1.33511
1.33431
1.33351
1.33274
1.33203
1.33133
1.33065
1.33001
1.32939
1.32879
1.32822
1.32768
1.32716
1.32666
1.32618
1.32573
1.32529
1.32488
1.32448
1.32411
1.32375
1.32341
1.32308
1.32278
1.32249
1.32222
1.32196
1.32172
1.32149
1.32128
1.32109
1.32092
1.32076
1.32062
1.3205
1.32039
1.32031
1.32024
1.32019
1.32016
1.32014
1.32015
1.32018
1.32022
1.32028
1.32037
1.32047
1.32059
1.32074
1.3209
1.32108
1.32129
1.32151
1.32176
1.32202
1.32231
1.32262
1.32295
1.3233
1.32367
1.32406
1.32448
1.32492
1.32539
1.32587
1.32639
1.32693
1.32749
1.32809
1.32871
1.32936
1.33004
1.33075
1.33148
1.33224
1.33304
1.33386
1.33472
1.3356
1.33651
1.33745
1.33842
1.3394
1.34041
1.34144
1.34249
1.34356
1.34464
1.34573
1.34683
1.34793
1.34904
1.35014
1.35125
1.35234
1.35343
1.35451
1.35557
1.3566
1.35762
1.35861
1.35956
1.36049
1.36138
1.36222
1.36303
1.3638
1.36453
1.36521
1.36584
1.36644
1.36699
1.3675
1.36797
1.3684
1.3688
1.36916
1.36949
1.36979
1.37006
1.37032
1.37055
1.37075
1.37094
1.37112
1.37128
1.37142
1.37156
1.37169
1.37181
1.37192
1.37203
1.37213
1.37222
1.37232
1.37241
1.37249
1.37258
1.37266
1.37275
1.37282
1.3729
1.37298
1.37306
1.37313
1.3732
1.37327
1.37334
1.3734
1.37347
1.37353
1.37359
1.37364
1.37369
1.37374
1.37379
1.37383
1.37387
1.3739
1.37393
1.37396
1.37398
1.374
1.37402
1.37403
1.37404
1.37404
1.37404