# vtk DataFile Version 2.0
LBE two cylinders
ASCII
DATASET STRUCTURED_POINTS
DIMENSIONS 400 100 1
ASPECT_RATIO 1 1 1
ORIGIN 0 0 0
POINT_DATA 40000
SCALARS rho double 1
LOOKUP_TABLE default
1.33853
1.3358
1.33608
1.33609
1.33516
1.33463
1.33429
1.33361
1.33298
1.33243
1.33183
1.33119
1.33061
1.33002
1.32943
1.32887
1.32832
1.32778
1.32726
1.32676
1.32628
1.32582
1.32537
1.32495
1.32454
1.32416
1.32379
1.32344
1.32311
1.3228
1.32251
1.32224
1.32198
1.32175
1.32153
1.32132
1.32114
1.32097
1.32081
1.32068
1.32056
1.32045
1.32036
1.32029
1.32023
1.32019
1.32016
1.32015
1.32016
1.32018
1.32022
1.32027
1.32034
1.32043
1.32054
1.32066
1.3208
1.32096
1.32114
1.32134
1.32156
1.3218
1.32206
1.32234
1.32265
1.32298
1.32333
1.32371
1.32411
1.32454
1.32499
1.32547
1.32597
1.32651
1.32707
1.32766
1.32827
1.32892
1.32959
1.33029
1.33102
1.33177
1.33255
1.33336
1.33418
1.33504
1.33591
1.3368
1.33771
1.33864
1.33959
1.34054
1.34151
1.34248
1.34346
1.34444
1.34542
1.3464
1.34737
1.34834
1.3493
1.35024
1.35117
1.35207
1.35296
1.35383
1.35467
1.35548
1.35626
1.35701
1.35773
1.35842
1.35908
1.3597
1.36028
1.36083
1.36135
1.36183
1.36228
1.3627
1.36309
1.36344
1.36377
1.36407
1.36434
1.36459
1.36481
1.36502
1.3652
1.36536
1.36551
1.36564
1.36576
1.36586
1.36595
1.36603
1.36611
1.36617
1.36622
1.36627
1.36631
1.36635
1.36638
1.3664
1.36643
1.36645
1.36646
1.36648
1.36649
1.3665
1.36651
1.36651
1.36652
1.36653
1.36653
1.36653
1.36654
1.36654
1.36654
1.36655
1.36655
1.36655
1.36655
1.36656
1.36656
1.36656
1.36656
1.36656
1.36657
1.36657
1.36657
1.36657
1.36658
1.36658
1.36658
1.36659
1.36659
1.36659
1.36659
1.3666
1.3666
1.36661
1.36661
1.36661
1.36662
1.36662
1.36663
1.36663
1.36664
1.36664
1.36665
1.36666
1.36666
1.36667
1.36668
1.36669
1.3667
1.36671
1.36672
1.36673
1.36674
1.36675
1.36676
1.36678
1.36679
1.36681
1.36682
1.36684
1.36685
1.36687
1.36689
1.36691
1.36693
1.36695
1.36697
1.36699
1.36701
1.36704
1.36706
1.36708
1.3671
1.36712
1.36715
1.36717
1.36719
1.36721
1.36723
1.36724
1.36726
1.36727
1.36729
1.3673
1.3673
1.36731
1.36731
1.36731
1.3673
1.36729
1.36727
1.36726
1.36723
1.3672
1.36717
1.36713
1.36709
1.36704
1.36698
1.36692
1.36685
1.36678
1.36671
1.36662
1.36653
1.36644
1.36634
1.36624
1.36613
1.36602
1.3659
1.36578
1.36566
1.36553
1.3654
1.36527
1.36513
1.36498
1.36483
1.36468
1.36452
1.36436
1.36419
1.36402
1.36383
1.36364
1.36343
1.36322
1.36299
1.36275
1.36249
1.36221
1.36192
1.3616
1.36126
1.3609
1.36051
1.36009
1.35964
1.35917
1.35866
1.35812
1.35755
1.35694
1.35631
1.35564
1.35494
1.35422
1.35346
1.35268
1.35187
1.35105
1.3502
1.34933
1.34845
1.34756
1.34665
1.34574
1.34482
1.3439
1.34298
1.34205
1.34113
1.34021
1.3393
1.3384
1.3375
1.33662
1.33575
1.33489
1.33404
1.33321
1.33239
1.33158
1.33079
1.33002
1.32927
1.32853
1.32781
1.3271
1.32641
1.32574
1.32509
1.32445
1.32383
1.32323
1.32264
1.32207
1.32151
1.32097
1.32044
1.31993
1.31944
1.31896
1.31849
1.31804
1.3176
1.31717
1.31676
1.31636
1.31597
1.31559
1.31523
1.31488
1.31454
1.31421
1.3139
1.31359
1.3133
1.31301
1.31274
1.31248
1.31222
1.31198
1.31175
1.31152
1.31131
1.3111
1.31091
1.31072
1.31055
1.31038
1.31022
1.31007
1.30993
1.3098
1.30968
1.30956
1.30946
1.30937
1.30928
1.3092
1.30914
1.3091
1.30903
1.309
1.30903
1.30899
1.30889
1.30904
1.30921
1.30887
1.30875
1.30969
1.30958
1.30753
1.3085
1.31239
1.30778
1.29906
1.3096
1.31865
1.33666
1.33679
1.3363
1.33563
1.33532
1.33483
1.33423
1.33364
1.33309
1.33247
1.33185
1.33126
1.33066
1.33007
1.32949
1.32892
1.32837
1.32783
1.32731
1.32681
1.32632
1.32586
1.32541
1.32499
1.32458
1.32419
1.32383
1.32348
1.32315
1.32284
1.32255
1.32227
1.32202
1.32178
1.32156
1.32135
1.32117
1.321
1.32084
1.3207
1.32058
1.32048
1.32039
1.32031
1.32025
1.32021
1.32019
1.32017
1.32018
1.3202
1.32024
1.32029
1.32036
1.32045
1.32056
1.32068
1.32082
1.32098
1.32116
1.32136
1.32158
1.32181
1.32207
1.32236
1.32266
1.32299
1.32334
1.32372
1.32411
1.32454
1.32499
1.32547
1.32597
1.3265
1.32706
1.32765
1.32826
1.32891
1.32957
1.33027
1.331
1.33175
1.33252
1.33333
1.33415
1.335
1.33587
1.33676
1.33767
1.3386
1.33954
1.34049
1.34145
1.34242
1.3434
1.34438
1.34536
1.34634
1.34731
1.34828
1.34923
1.35017
1.3511
1.35201
1.3529
1.35376
1.3546
1.35541
1.3562
1.35695
1.35768
1.35837
1.35902
1.35965
1.36023
1.36079
1.36131
1.36179
1.36224
1.36266
1.36305
1.36341
1.36374
1.36404
1.36431
1.36456
1.36479
1.365
1.36518
1.36535
1.3655
1.36563
1.36575
1.36585
1.36594
1.36603
1.3661
1.36616
1.36622
1.36626
1.3663
1.36634
1.36637
1.3664
1.36642
1.36644
1.36646
1.36647
1.36648
1.36649
1.3665
1.36651
1.36652
1.36652
1.36653
1.36653
1.36653
1.36654
1.36654
1.36654
1.36654
1.36655
1.36655
1.36655
1.36655
1.36656
1.36656
1.36656
1.36656
1.36656
1.36657
1.36657
1.36657
1.36657
1.36658
1.36658
1.36658
1.36659
1.36659
1.36659
1.3666
1.3666
1.3666
1.36661
1.36661
1.36662
1.36662
1.36663
1.36663
1.36664
1.36664
1.36665
1.36666
1.36666
1.36667
1.36668
1.36669
1.3667
1.36671
1.36672
1.36673
1.36674
1.36675
1.36676
1.36678
1.36679
1.36681
1.36682
1.36684
1.36686
1.36688
1.36689
1.36691
1.36693
1.36695
1.36697
1.367
1.36702
1.36704
1.36706
1.36708
1.3671
1.36713
1.36715
1.36717
1.36719
1.3672
1.36722
1.36724
1.36725
1.36726
1.36727
1.36728
1.36728
1.36728
1.36728
1.36727
1.36726
1.36725
1.36723
1.3672
1.36718
1.36714
1.3671
1.36706
1.36701
1.36695
1.36689
1.36683
1.36675
1.36668
1.36659
1.3665
1.36641
1.36631
1.36621
1.3661
1.36599
1.36587
1.36575
1.36562
1.36549
1.36536
1.36522
1.36508
1.36494
1.36479
1.36463
1.36447
1.36431
1.36414
1.36396
1.36377
1.36357
1.36337
1.36315
1.36292
1.36267
1.36241
1.36214
1.36184
1.36152
1.36118
1.36082
1.36043
1.36001
1.35956
1.35909
1.35858
1.35804
1.35747
1.35687
1.35624
1.35558
1.35488
1.35416
1.35341
1.35263
1.35183
1.35101
1.35016
1.3493
1.34843
1.34754
1.34664
1.34573
1.34482
1.3439
1.34298
1.34206
1.34114
1.34023
1.33932
1.33842
1.33753
1.33665
1.33578
1.33492
1.33408
1.33325
1.33243
1.33163
1.33084
1.33007
1.32932
1.32858
1.32786
1.32715
1.32646
1.32579
1.32514
1.3245
1.32388
1.32328
1.32269
1.32211
1.32156
1.32102
1.32049
1.31998
1.31948
1.319
1.31853
1.31807
1.31763
1.3172
1.31679
1.31639
1.316
1.31562
1.31526
1.31491
1.31456
1.31423
1.31392
1.31361
1.31331
1.31303
1.31275
1.31249
1.31223
1.31199
1.31175
1.31153
1.31131
1.3111
1.31091
1.31072
1.31054
1.31037
1.31021
1.31005
1.30991
1.30977
1.30965
1.30953
1.30942
1.30932
1.30923
1.30915
1.30907
1.30901
1.30897
1.30891
1.30885
1.30888
1.30888
1.30876
1.30876
1.30901
1.30884
1.30835
1.30877
1.30945
1.30774
1.30625
1.3089
1.30835
1.29849
1.29302
1.33598
1.33697
1.33625
1.33554
1.33551
1.33494
1.33422
1.33373
1.33317
1.3325
1.3319
1.33132
1.3307
1.3301
1.32952
1.32895
1.32839
1.32786
1.32733
1.32683
1.32634
1.32588
1.32543
1.32501
1.3246
1.32421
1.32384
1.32349
1.32316
1.32285
1.32256
1.32228
1.32203
1.32179
1.32157
1.32136
1.32118
1.32101
1.32085
1.32071
1.32059
1.32049
1.3204
1.32032
1.32026
1.32022
1.32019
1.32018
1.32019
1.32021
1.32024
1.3203
1.32037
1.32045
1.32056
1.32068
1.32082
1.32098
1.32116
1.32135
1.32157
1.32181
1.32207
1.32235
1.32265
1.32297
1.32332
1.3237
1.32409
1.32452
1.32497
1.32544
1.32594
1.32647
1.32703
1.32761
1.32822
1.32886
1.32953
1.33022
1.33094
1.33169
1.33247
1.33327
1.33409
1.33494
1.33581
1.3367
1.3376
1.33853
1.33947
1.34042
1.34138
1.34235
1.34333
1.34431
1.34529
1.34627
1.34724
1.34821
1.34917
1.35011
1.35104
1.35195
1.35284
1.35371
1.35455
1.35537
1.35616
1.35692
1.35764
1.35834
1.359
1.35962
1.36021
1.36077
1.36129
1.36178
1.36223
1.36265
1.36304
1.3634
1.36373
1.36404
1.36431
1.36456
1.36479
1.365
1.36518
1.36535
1.3655
1.36563
1.36575
1.36585
1.36594
1.36603
1.3661
1.36616
1.36621
1.36626
1.3663
1.36634
1.36637
1.3664
1.36642
1.36644
1.36645
1.36647
1.36648
1.36649
1.3665
1.36651
1.36651
1.36652
1.36652
1.36653
1.36653
1.36653
1.36654
1.36654
1.36654
1.36654
1.36654
1.36655
1.36655
1.36655
1.36655
1.36655
1.36656
1.36656
1.36656
1.36656
1.36657
1.36657
1.36657
1.36657
1.36658
1.36658
1.36658
1.36659
1.36659
1.36659
1.3666
1.3666
1.3666
1.36661
1.36661
1.36662
1.36662
1.36663
1.36663
1.36664
1.36665
1.36665
1.36666
1.36667
1.36668
1.36669
1.3667
1.36671
1.36672
1.36673
1.36674
1.36675
1.36677
1.36678
1.36679
1.36681
1.36683
1.36684
1.36686
1.36688
1.3669
1.36692
1.36694
1.36696
1.36698
1.367
1.36702
1.36704
1.36706
1.36708
1.36711
1.36713
1.36715
1.36716
1.36718
1.3672
1.36721
1.36723
1.36724
1.36725
1.36725
1.36726
1.36726
1.36725
1.36725
1.36724
1.36722
1.3672
1.36718
1.36715
1.36712
1.36708
1.36703
1.36698
1.36693
1.36687
1.3668
1.36673
1.36665
1.36657
1.36648
1.36638
1.36628
1.36618
1.36607
1.36596
1.36584
1.36572
1.36559
1.36546
1.36532
1.36518
1.36504
1.3649
1.36474
1.36459
1.36443
1.36426
1.36408
1.3639
1.36372
1.36352
1.36331
1.36309
1.36286
1.36261
1.36235
1.36207
1.36177
1.36146
1.36112
1.36075
1.36036
1.35994
1.3595
1.35902
1.35852
1.35798
1.35741
1.35681
1.35618
1.35552
1.35483
1.35411
1.35336
1.35258
1.35179
1.35097
1.35013
1.34927
1.34839
1.34751
1.34661
1.34571
1.34479
1.34388
1.34296
1.34205
1.34113
1.34022
1.33932
1.33842
1.33753
1.33666
1.33579
1.33493
1.33409
1.33326
1.33245
1.33165
1.33086
1.33009
1.32934
1.3286
1.32788
1.32718
1.32649
1.32582
1.32517
1.32453
1.32391
1.32331
1.32272
1.32214
1.32159
1.32104
1.32052
1.32
1.31951
1.31902
1.31855
1.3181
1.31766
1.31723
1.31681
1.31641
1.31602
1.31564
1.31528
1.31492
1.31458
1.31425
1.31393
1.31362
1.31332
1.31304
1.31276
1.31249
1.31224
1.31199
1.31175
1.31152
1.31131
1.3111
1.3109
1.31071
1.31053
1.31035
1.31019
1.31003
1.30989
1.30975
1.30962
1.3095
1.30939
1.30928
1.30918
1.3091
1.30902
1.30893
1.30889
1.30886
1.30875
1.30871
1.30881
1.30873
1.30844
1.30868
1.30906
1.3082
1.30762
1.30947
1.30913
1.30435
1.30633
1.31316
1.3008
1.28867
1.33641
1.33648
1.33635
1.33609
1.33556
1.3349
1.33442
1.33383
1.33317
1.33256
1.33196
1.33133
1.33071
1.33012
1.32953
1.32895
1.3284
1.32786
1.32733
1.32682
1.32634
1.32587
1.32542
1.325
1.32459
1.3242
1.32383
1.32348
1.32315
1.32284
1.32255
1.32227
1.32202
1.32178
1.32156
1.32135
1.32117
1.321
1.32084
1.3207
1.32058
1.32048
1.32039
1.32031
1.32025
1.32021
1.32018
1.32017
1.32017
1.32019
1.32023
1.32028
1.32035
1.32044
1.32054
1.32066
1.3208
1.32096
1.32113
1.32133
1.32154
1.32178
1.32203
1.32231
1.32261
1.32294
1.32328
1.32365
1.32405
1.32447
1.32491
1.32538
1.32588
1.32641
1.32696
1.32754
1.32815
1.32879
1.32945
1.33014
1.33086
1.33161
1.33238
1.33318
1.334
1.33485
1.33571
1.3366
1.33751
1.33843
1.33937
1.34033
1.34129
1.34227
1.34324
1.34423
1.34521
1.34619
1.34717
1.34814
1.3491
1.35005
1.35098
1.3519
1.3528
1.35367
1.35452
1.35534
1.35613
1.3569
1.35763
1.35833
1.35899
1.35962
1.36021
1.36077
1.3613
1.36179
1.36225
1.36267
1.36306
1.36342
1.36375
1.36405
1.36433
1.36458
1.36481
1.36501
1.36519
1.36536
1.36551
1.36564
1.36576
1.36586
1.36595
1.36603
1.3661
1.36616
1.36622
1.36627
1.36631
1.36634
1.36637
1.3664
1.36642
1.36644
1.36645
1.36647
1.36648
1.36649
1.3665
1.3665
1.36651
1.36651
1.36652
1.36652
1.36652
1.36653
1.36653
1.36653
1.36653
1.36654
1.36654
1.36654
1.36654
1.36654
1.36655
1.36655
1.36655
1.36655
1.36655
1.36656
1.36656
1.36656
1.36656
1.36657
1.36657
1.36657
1.36657
1.36658
1.36658
1.36658
1.36659
1.36659
1.3666
1.3666
1.3666
1.36661
1.36661
1.36662
1.36662
1.36663
1.36664
1.36664
1.36665
1.36666
1.36667
1.36667
1.36668
1.36669
1.3667
1.36671
1.36673
1.36674
1.36675
1.36677
1.36678
1.36679
1.36681
1.36683
1.36684
1.36686
1.36688
1.3669
1.36692
1.36694
1.36696
1.36698
1.367
1.36702
1.36704
1.36706
1.36708
1.3671
1.36712
1.36714
1.36716
1.36718
1.36719
1.3672
1.36722
1.36722
1.36723
1.36723
1.36723
1.36723
1.36723
1.36721
1.3672
1.36718
1.36716
1.36713
1.36709
1.36706
1.36701
1.36696
1.36691
1.36684
1.36678
1.3667
1.36663
1.36654
1.36645
1.36636
1.36626
1.36615
1.36604
1.36593
1.36581
1.36569
1.36556
1.36543
1.36529
1.36515
1.36501
1.36486
1.36471
1.36455
1.36439
1.36422
1.36404
1.36386
1.36367
1.36347
1.36326
1.36304
1.36281
1.36256
1.3623
1.36202
1.36172
1.3614
1.36106
1.36069
1.3603
1.35988
1.35944
1.35896
1.35846
1.35792
1.35735
1.35675
1.35612
1.35545
1.35476
1.35404
1.35329
1.35252
1.35172
1.3509
1.35006
1.3492
1.34833
1.34744
1.34655
1.34564
1.34474
1.34382
1.34291
1.34199
1.34108
1.34018
1.33927
1.33838
1.33749
1.33662
1.33575
1.3349
1.33406
1.33324
1.33242
1.33163
1.33085
1.33008
1.32933
1.3286
1.32788
1.32718
1.32649
1.32582
1.32517
1.32454
1.32392
1.32331
1.32273
1.32215
1.3216
1.32106
1.32053
1.32002
1.31952
1.31904
1.31857
1.31811
1.31767
1.31724
1.31683
1.31642
1.31603
1.31566
1.31529
1.31493
1.31459
1.31426
1.31394
1.31363
1.31333
1.31304
1.31277
1.3125
1.31224
1.31199
1.31176
1.31153
1.31131
1.3111
1.3109
1.31071
1.31052
1.31035
1.31018
1.31002
1.30988
1.30974
1.3096
1.30948
1.30936
1.30926
1.30916
1.30906
1.309
1.30892
1.30882
1.30878
1.3088
1.30868
1.30856
1.30873
1.3088
1.3083
1.30832
1.3092
1.30858
1.3069
1.30854
1.31019
1.30546
1.3034
1.30877
1.3094
1.33719
1.33688
1.33672
1.33635
1.33562
1.33506
1.33459
1.33387
1.33321
1.33263
1.33198
1.33132
1.33072
1.33011
1.32951
1.32893
1.32837
1.32782
1.32729
1.32679
1.3263
1.32583
1.32538
1.32495
1.32454
1.32416
1.32379
1.32344
1.32311
1.3228
1.32251
1.32224
1.32198
1.32174
1.32152
1.32132
1.32113
1.32096
1.32081
1.32067
1.32055
1.32045
1.32036
1.32028
1.32022
1.32018
1.32015
1.32014
1.32014
1.32016
1.3202
1.32025
1.32032
1.3204
1.3205
1.32062
1.32076
1.32091
1.32109
1.32128
1.32149
1.32173
1.32198
1.32225
1.32255
1.32287
1.32321
1.32358
1.32397
1.32439
1.32483
1.3253
1.32579
1.32631
1.32686
1.32744
1.32804
1.32868
1.32934
1.33003
1.33074
1.33149
1.33226
1.33305
1.33388
1.33472
1.33559
1.33648
1.33739
1.33831
1.33925
1.34021
1.34118
1.34215
1.34314
1.34412
1.34511
1.3461
1.34708
1.34806
1.34903
1.34998
1.35092
1.35185
1.35275
1.35363
1.35449
1.35532
1.35612
1.35689
1.35762
1.35833
1.359
1.35963
1.36023
1.3608
1.36132
1.36182
1.36228
1.3627
1.36309
1.36345
1.36378
1.36409
1.36436
1.36461
1.36483
1.36504
1.36522
1.36538
1.36553
1.36566
1.36577
1.36588
1.36597
1.36604
1.36611
1.36617
1.36623
1.36627
1.36631
1.36635
1.36637
1.3664
1.36642
1.36644
1.36645
1.36647
1.36648
1.36649
1.36649
1.3665
1.36651
1.36651
1.36651
1.36652
1.36652
1.36652
1.36652
1.36653
1.36653
1.36653
1.36653
1.36653
1.36654
1.36654
1.36654
1.36654
1.36654
1.36655
1.36655
1.36655
1.36655
1.36655
1.36656
1.36656
1.36656
1.36656
1.36657
1.36657
1.36657
1.36658
1.36658
1.36658
1.36659
1.36659
1.36659
1.3666
1.3666
1.36661
1.36661
1.36662
1.36663
1.36663
1.36664
1.36665
1.36665
1.36666
1.36667
1.36668
1.36669
1.3667
1.36671
1.36672
1.36674
1.36675
1.36676
1.36678
1.36679
1.36681
1.36683
1.36684
1.36686
1.36688
1.3669
1.36692
1.36694
1.36696
1.36698
1.367
1.36702
1.36704
1.36706
1.36708
1.3671
1.36712
1.36714
1.36715
1.36717
1.36718
1.36719
1.3672
1.36721
1.36721
1.36721
1.36721
1.3672
1.36719
1.36718
1.36716
1.36714
1.36711
1.36707
1.36703
1.36699
1.36694
1.36688
1.36682
1.36676
1.36668
1.3666
1.36652
1.36643
1.36633
1.36623
1.36613
1.36602
1.3659
1.36578
1.36566
1.36553
1.3654
1.36526
1.36512
1.36498
1.36483
1.36468
1.36452
1.36435
1.36418
1.36401
1.36383
1.36363
1.36344
1.36323
1.363
1.36277
1.36252
1.36226
1.36198
1.36168
1.36135
1.36101
1.36064
1.36025
1.35983
1.35937
1.3589
1.35839
1.35784
1.35727
1.35667
1.35603
1.35536
1.35467
1.35394
1.35319
1.35241
1.35161
1.35079
1.34994
1.34909
1.34821
1.34733
1.34643
1.34553
1.34462
1.34371
1.3428
1.34188
1.34097
1.34007
1.33917
1.33828
1.3374
1.33652
1.33566
1.33481
1.33398
1.33316
1.33235
1.33156
1.33078
1.33002
1.32927
1.32854
1.32783
1.32714
1.32645
1.32579
1.32514
1.32451
1.3239
1.3233
1.32271
1.32214
1.32159
1.32105
1.32053
1.32002
1.31952
1.31904
1.31858
1.31812
1.31768
1.31725
1.31684
1.31644
1.31605
1.31567
1.3153
1.31495
1.31461
1.31428
1.31396
1.31365
1.31335
1.31306
1.31278
1.31251
1.31226
1.31201
1.31177
1.31154
1.31132
1.31111
1.31091
1.31072
1.31054
1.31036
1.3102
1.31004
1.30989
1.30975
1.30962
1.3095
1.30938
1.30927
1.30918
1.30908
1.309
1.30896
1.30889
1.30879
1.30879
1.30884
1.30868
1.30859
1.30892
1.30889
1.30827
1.30874
1.30974
1.30822
1.30727
1.31066
1.30997
1.30503
1.30836
1.31089
1.33809
1.33767
1.33712
1.33646
1.33592
1.33533
1.33461
1.33391
1.33331
1.33263
1.33194
1.33131
1.33069
1.33005
1.32945
1.32887
1.3283
1.32775
1.32722
1.32671
1.32622
1.32575
1.3253
1.32488
1.32447
1.32408
1.32372
1.32337
1.32304
1.32273
1.32244
1.32217
1.32192
1.32168
1.32146
1.32126
1.32108
1.32091
1.32076
1.32062
1.3205
1.3204
1.32031
1.32023
1.32017
1.32013
1.3201
1.32009
1.32009
1.32011
1.32015
1.3202
1.32026
1.32035
1.32045
1.32056
1.3207
1.32085
1.32102
1.32121
1.32142
1.32165
1.3219
1.32217
1.32246
1.32278
1.32312
1.32348
1.32387
1.32428
1.32472
1.32518
1.32567
1.32619
1.32673
1.3273
1.32791
1.32853
1.32919
1.32988
1.33059
1.33133
1.3321
1.3329
1.33372
1.33456
1.33543
1.33632
1.33723
1.33816
1.3391
1.34006
1.34104
1.34202
1.343
1.344
1.34499
1.34599
1.34698
1.34796
1.34894
1.3499
1.35085
1.35179
1.3527
1.35359
1.35446
1.35529
1.3561
1.35688
1.35763
1.35834
1.35902
1.35966
1.36026
1.36083
1.36136
1.36186
1.36232
1.36275
1.36314
1.3635
1.36383
1.36413
1.3644
1.36465
1.36487
1.36508
1.36526
1.36542
1.36556
1.36569
1.3658
1.3659
1.36599
1.36606
1.36613
1.36619
1.36624
1.36628
1.36632
1.36635
1.36638
1.3664
1.36642
1.36644
1.36645
1.36647
1.36648
1.36648
1.36649
1.3665
1.3665
1.36651
1.36651
1.36651
1.36651
1.36652
1.36652
1.36652
1.36652
1.36652
1.36653
1.36653
1.36653
1.36653
1.36653
1.36653
1.36654
1.36654
1.36654
1.36654
1.36654
1.36655
1.36655
1.36655
1.36655
1.36656
1.36656
1.36656
1.36656
1.36657
1.36657
1.36657
1.36658
1.36658
1.36659
1.36659
1.36659
1.3666
1.3666
1.36661
1.36662
1.36662
1.36663
1.36663
1.36664
1.36665
1.36666
1.36667
1.36668
1.36669
1.3667
1.36671
1.36672
1.36674
1.36675
1.36676
1.36678
1.36679
1.36681
1.36683
1.36684
1.36686
1.36688
1.3669
1.36692
1.36694
1.36696
1.36698
1.367
1.36702
1.36704
1.36706
1.36708
1.3671
1.36712
1.36713
1.36715
1.36716
1.36717
1.36718
1.36719
1.36719
1.36719
1.36719
1.36718
1.36717
1.36716
1.36714
1.36711
1.36709
1.36705
1.36701
1.36697
1.36692
1.36686
1.3668
1.36673
1.36666
1.36658
1.3665
1.36641
1.36631
1.36621
1.36611
1.366
1.36588
1.36576
1.36564
1.36551
1.36538
1.36524
1.3651
1.36495
1.3648
1.36465
1.36449
1.36433
1.36416
1.36398
1.3638
1.36361
1.36341
1.3632
1.36297
1.36274
1.36249
1.36222
1.36194
1.36163
1.36131
1.36096
1.36059
1.36019
1.35976
1.35931
1.35882
1.3583
1.35775
1.35717
1.35656
1.35591
1.35524
1.35454
1.3538
1.35305
1.35226
1.35145
1.35063
1.34978
1.34892
1.34804
1.34715
1.34626
1.34535
1.34444
1.34353
1.34262
1.34171
1.3408
1.3399
1.339
1.33811
1.33723
1.33636
1.33551
1.33466
1.33383
1.33302
1.33222
1.33143
1.33066
1.32991
1.32917
1.32844
1.32774
1.32705
1.32638
1.32572
1.32508
1.32446
1.32385
1.32325
1.32268
1.32211
1.32157
1.32103
1.32051
1.32001
1.31952
1.31904
1.31858
1.31813
1.31769
1.31727
1.31685
1.31645
1.31607
1.31569
1.31533
1.31498
1.31464
1.31431
1.31399
1.31368
1.31338
1.31309
1.31282
1.31255
1.31229
1.31205
1.31181
1.31158
1.31136
1.31116
1.31096
1.31076
1.31058
1.31041
1.31024
1.31009
1.30994
1.3098
1.30967
1.30956
1.30945
1.30934
1.30925
1.30918
1.30909
1.30902
1.30902
1.30899
1.30887
1.30891
1.30909
1.30892
1.30873
1.30931
1.30953
1.30858
1.30904
1.31087
1.30949
1.3078
1.31109
1.3129
1.3099
1.30957
1.33914
1.33833
1.33759
1.33684
1.33621
1.33545
1.33467
1.33401
1.33332
1.33258
1.33191
1.33127
1.3306
1.32996
1.32936
1.32876
1.32819
1.32764
1.32711
1.32659
1.3261
1.32564
1.32519
1.32476
1.32436
1.32397
1.32361
1.32327
1.32294
1.32264
1.32235
1.32208
1.32183
1.3216
1.32138
1.32118
1.321
1.32083
1.32068
1.32055
1.32043
1.32033
1.32024
1.32017
1.32011
1.32006
1.32004
1.32002
1.32003
1.32004
1.32008
1.32013
1.32019
1.32027
1.32037
1.32049
1.32062
1.32077
1.32094
1.32112
1.32133
1.32155
1.3218
1.32207
1.32235
1.32267
1.323
1.32336
1.32374
1.32415
1.32458
1.32503
1.32552
1.32603
1.32657
1.32714
1.32774
1.32836
1.32902
1.3297
1.33041
1.33115
1.33191
1.33271
1.33353
1.33437
1.33524
1.33613
1.33704
1.33797
1.33892
1.33989
1.34086
1.34185
1.34284
1.34384
1.34485
1.34585
1.34685
1.34785
1.34883
1.34981
1.35077
1.35171
1.35264
1.35354
1.35442
1.35527
1.35609
1.35688
1.35763
1.35836
1.35904
1.35969
1.3603
1.36087
1.36141
1.36191
1.36237
1.3628
1.36319
1.36356
1.36389
1.36418
1.36446
1.3647
1.36492
1.36512
1.3653
1.36546
1.36559
1.36572
1.36583
1.36593
1.36601
1.36608
1.36615
1.3662
1.36625
1.36629
1.36633
1.36636
1.36639
1.36641
1.36643
1.36644
1.36645
1.36647
1.36647
1.36648
1.36649
1.36649
1.3665
1.3665
1.3665
1.36651
1.36651
1.36651
1.36651
1.36651
1.36652
1.36652
1.36652
1.36652
1.36652
1.36652
1.36653
1.36653
1.36653
1.36653
1.36653
1.36653
1.36654
1.36654
1.36654
1.36654
1.36655
1.36655
1.36655
1.36655
1.36656
1.36656
1.36656
1.36657
1.36657
1.36657
1.36658
1.36658
1.36658
1.36659
1.36659
1.3666
1.3666
1.36661
1.36662
1.36662
1.36663
1.36664
1.36665
1.36665
1.36666
1.36667
1.36668
1.3667
1.36671
1.36672
1.36673
1.36675
1.36676
1.36678
1.36679
1.36681
1.36683
1.36684
1.36686
1.36688
1.3669
1.36692
1.36694
1.36696
1.36698
1.367
1.36702
1.36704
1.36706
1.36708
1.3671
1.36711
1.36713
1.36714
1.36715
1.36716
1.36717
1.36717
1.36717
1.36717
1.36716
1.36715
1.36714
1.36712
1.36709
1.36706
1.36703
1.36699
1.36695
1.3669
1.36684
1.36678
1.36671
1.36664
1.36656
1.36648
1.36639
1.36629
1.36619
1.36608
1.36597
1.36586
1.36574
1.36562
1.36549
1.36536
1.36522
1.36508
1.36493
1.36479
1.36463
1.36447
1.36431
1.36414
1.36396
1.36378
1.36359
1.36339
1.36318
1.36295
1.36272
1.36246
1.36219
1.36191
1.3616
1.36127
1.36091
1.36053
1.36013
1.35969
1.35923
1.35873
1.3582
1.35765
1.35705
1.35643
1.35577
1.35509
1.35437
1.35363
1.35286
1.35207
1.35125
1.35042
1.34957
1.3487
1.34781
1.34692
1.34602
1.34511
1.3442
1.34329
1.34238
1.34147
1.34056
1.33966
1.33876
1.33788
1.337
1.33614
1.33529
1.33445
1.33363
1.33282
1.33202
1.33124
1.33048
1.32973
1.32901
1.3283
1.3276
1.32692
1.32626
1.32561
1.32498
1.32436
1.32376
1.32318
1.32261
1.32206
1.32152
1.32099
1.32048
1.31998
1.3195
1.31903
1.31857
1.31813
1.3177
1.31728
1.31687
1.31648
1.3161
1.31572
1.31536
1.31502
1.31468
1.31435
1.31404
1.31373
1.31344
1.31315
1.31288
1.31261
1.31236
1.31211
1.31188
1.31165
1.31144
1.31123
1.31103
1.31085
1.31067
1.3105
1.31034
1.31018
1.31004
1.30991
1.30979
1.30967
1.30957
1.30948
1.30939
1.30933
1.30929
1.30922
1.30918
1.30923
1.30923
1.30913
1.30927
1.30954
1.30934
1.3093
1.31014
1.31023
1.3094
1.31063
1.31213
1.31073
1.31095
1.31349
1.31375
1.3144
1.34017
1.33891
1.33809
1.33726
1.33637
1.33554
1.3348
1.33404
1.33325
1.33253
1.33185
1.33114
1.33047
1.32984
1.32922
1.32861
1.32804
1.32748
1.32695
1.32644
1.32595
1.32548
1.32504
1.32462
1.32421
1.32383
1.32347
1.32313
1.32281
1.32251
1.32223
1.32196
1.32172
1.32149
1.32127
1.32108
1.3209
1.32074
1.32059
1.32046
1.32034
1.32024
1.32015
1.32008
1.32002
1.31998
1.31995
1.31994
1.31994
1.31996
1.31999
1.32004
1.3201
1.32018
1.32028
1.32039
1.32052
1.32067
1.32083
1.32101
1.32122
1.32144
1.32168
1.32194
1.32222
1.32253
1.32286
1.32321
1.32359
1.32398
1.32441
1.32487
1.32534
1.32585
1.32638
1.32695
1.32753
1.32816
1.32881
1.32948
1.33019
1.33093
1.33169
1.33248
1.3333
1.33414
1.33501
1.33591
1.33682
1.33776
1.33871
1.33967
1.34066
1.34165
1.34265
1.34366
1.34467
1.34569
1.3467
1.3477
1.3487
1.34969
1.35066
1.35162
1.35256
1.35348
1.35437
1.35523
1.35607
1.35687
1.35763
1.35837
1.35906
1.35972
1.36034
1.36092
1.36146
1.36197
1.36243
1.36286
1.36326
1.36362
1.36395
1.36425
1.36451
1.36476
1.36498
1.36517
1.36534
1.3655
1.36564
1.36576
1.36586
1.36596
1.36604
1.36611
1.36617
1.36622
1.36627
1.36631
1.36634
1.36637
1.36639
1.36641
1.36643
1.36644
1.36646
1.36647
1.36647
1.36648
1.36649
1.36649
1.36649
1.3665
1.3665
1.3665
1.3665
1.3665
1.36651
1.36651
1.36651
1.36651
1.36651
1.36651
1.36651
1.36652
1.36652
1.36652
1.36652
1.36652
1.36652
1.36653
1.36653
1.36653
1.36653
1.36653
1.36654
1.36654
1.36654
1.36654
1.36655
1.36655
1.36655
1.36656
1.36656
1.36656
1.36657
1.36657
1.36657
1.36658
1.36658
1.36659
1.36659
1.3666
1.3666
1.36661
1.36662
1.36663
1.36663
1.36664
1.36665
1.36666
1.36667
1.36668
1.36669
1.3667
1.36672
1.36673
1.36675
1.36676
1.36678
1.36679
1.36681
1.36683
1.36684
1.36686
1.36688
1.3669
1.36692
1.36694
1.36696
1.36698
1.367
1.36702
1.36704
1.36706
1.36707
1.36709
1.3671
1.36712
1.36713
1.36714
1.36714
1.36715
1.36715
1.36714
1.36714
1.36713
1.36711
1.36709
1.36707
1.36704
1.36701
1.36697
1.36692
1.36687
1.36682
1.36676
1.36669
1.36662
1.36654
1.36645
1.36636
1.36627
1.36617
1.36606
1.36595
1.36584
1.36572
1.36559
1.36547
1.36534
1.3652
1.36506
1.36492
1.36477
1.36462
1.36446
1.3643
1.36413
1.36396
1.36377
1.36358
1.36338
1.36317
1.36294
1.3627
1.36245
1.36217
1.36188
1.36157
1.36123
1.36087
1.36048
1.36007
1.35962
1.35914
1.35864
1.3581
1.35752
1.35691
1.35628
1.35561
1.35491
1.35418
1.35342
1.35264
1.35184
1.35101
1.35016
1.3493
1.34843
1.34754
1.34664
1.34574
1.34482
1.34391
1.343
1.34208
1.34117
1.34026
1.33936
1.33847
1.33759
1.33671
1.33585
1.33501
1.33418
1.33336
1.33256
1.33177
1.331
1.33025
1.32951
1.32879
1.32809
1.32741
1.32674
1.32609
1.32546
1.32484
1.32423
1.32365
1.32307
1.32252
1.32198
1.32145
1.32093
1.32043
1.31995
1.31947
1.31901
1.31857
1.31813
1.31771
1.3173
1.3169
1.31651
1.31613
1.31577
1.31542
1.31507
1.31474
1.31442
1.31411
1.31381
1.31352
1.31324
1.31297
1.31271
1.31246
1.31222
1.31198
1.31176
1.31155
1.31135
1.31115
1.31097
1.3108
1.31063
1.31048
1.31033
1.31019
1.31007
1.30996
1.30985
1.30976
1.30969
1.30962
1.30955
1.30953
1.30954
1.30949
1.30948
1.30963
1.30969
1.30958
1.30986
1.31033
1.31009
1.3101
1.31137
1.31162
1.31074
1.31219
1.31431
1.31374
1.31374
1.31655
1.31859
1.341
1.33951
1.33852
1.33752
1.33653
1.33566
1.33483
1.33397
1.33318
1.33245
1.3317
1.33098
1.33032
1.32966
1.32902
1.32842
1.32784
1.32728
1.32675
1.32624
1.32576
1.32529
1.32485
1.32444
1.32404
1.32366
1.32331
1.32297
1.32266
1.32236
1.32208
1.32182
1.32158
1.32136
1.32115
1.32096
1.32078
1.32062
1.32048
1.32035
1.32023
1.32014
1.32005
1.31998
1.31992
1.31988
1.31986
1.31984
1.31985
1.31986
1.31989
1.31994
1.32
1.32008
1.32017
1.32028
1.32041
1.32055
1.32071
1.32089
1.32109
1.3213
1.32154
1.3218
1.32207
1.32237
1.32269
1.32304
1.32341
1.3238
1.32422
1.32467
1.32514
1.32564
1.32617
1.32672
1.32731
1.32792
1.32856
1.32924
1.32994
1.33067
1.33143
1.33222
1.33304
1.33388
1.33475
1.33564
1.33656
1.3375
1.33845
1.33943
1.34042
1.34142
1.34243
1.34345
1.34446
1.34549
1.34651
1.34753
1.34854
1.34954
1.35053
1.3515
1.35246
1.35339
1.3543
1.35518
1.35603
1.35685
1.35763
1.35838
1.35909
1.35975
1.36038
1.36097
1.36152
1.36203
1.3625
1.36293
1.36333
1.36369
1.36401
1.36431
1.36458
1.36482
1.36503
1.36523
1.3654
1.36554
1.36568
1.3658
1.3659
1.36599
1.36607
1.36613
1.36619
1.36624
1.36628
1.36632
1.36635
1.36638
1.3664
1.36642
1.36643
1.36645
1.36646
1.36646
1.36647
1.36648
1.36648
1.36649
1.36649
1.36649
1.36649
1.3665
1.3665
1.3665
1.3665
1.3665
1.3665
1.3665
1.3665
1.36651
1.36651
1.36651
1.36651
1.36651
1.36651
1.36651
1.36652
1.36652
1.36652
1.36652
1.36652
1.36653
1.36653
1.36653
1.36653
1.36654
1.36654
1.36654
1.36654
1.36655
1.36655
1.36655
1.36656
1.36656
1.36656
1.36657
1.36657
1.36658
1.36658
1.36659
1.36659
1.3666
1.36661
1.36661
1.36662
1.36663
1.36664
1.36665
1.36666
1.36667
1.36668
1.36669
1.3667
1.36672
1.36673
1.36674
1.36676
1.36677
1.36679
1.36681
1.36683
1.36684
1.36686
1.36688
1.3669
1.36692
1.36694
1.36696
1.36698
1.367
1.36702
1.36703
1.36705
1.36707
1.36708
1.36709
1.3671
1.36711
1.36712
1.36712
1.36712
1.36712
1.36711
1.3671
1.36709
1.36707
1.36704
1.36702
1.36698
1.36694
1.3669
1.36685
1.36679
1.36673
1.36666
1.36659
1.36651
1.36643
1.36634
1.36624
1.36614
1.36604
1.36593
1.36581
1.3657
1.36557
1.36545
1.36532
1.36518
1.36505
1.3649
1.36476
1.36461
1.36445
1.36429
1.36412
1.36395
1.36376
1.36357
1.36337
1.36316
1.36293
1.36269
1.36243
1.36215
1.36186
1.36154
1.36119
1.36082
1.36043
1.36
1.35954
1.35905
1.35853
1.35797
1.35738
1.35676
1.35611
1.35542
1.3547
1.35395
1.35318
1.35238
1.35157
1.35073
1.34987
1.349
1.34811
1.34722
1.34631
1.3454
1.34449
1.34357
1.34265
1.34174
1.34082
1.33991
1.33902
1.33812
1.33724
1.33638
1.33552
1.33468
1.33385
1.33304
1.33224
1.33147
1.33071
1.32996
1.32924
1.32854
1.32784
1.32718
1.32652
1.32588
1.32526
1.32466
1.32407
1.3235
1.32294
1.3224
1.32187
1.32135
1.32085
1.32037
1.31989
1.31943
1.31899
1.31855
1.31813
1.31771
1.31731
1.31692
1.31655
1.31618
1.31582
1.31548
1.31514
1.31482
1.3145
1.3142
1.31391
1.31362
1.31335
1.31308
1.31283
1.31258
1.31235
1.31212
1.31191
1.3117
1.3115
1.31132
1.31114
1.31097
1.31081
1.31066
1.31053
1.3104
1.31028
1.31018
1.31009
1.31001
1.30994
1.30991
1.30987
1.30983
1.30986
1.30993
1.30992
1.30997
1.31023
1.31034
1.3103
1.31078
1.31135
1.31115
1.31153
1.31293
1.31321
1.31312
1.31469
1.31624
1.31706
1.31838
1.31996
1.34159
1.33995
1.33881
1.33766
1.33665
1.3357
1.33474
1.33388
1.33307
1.33227
1.3315
1.33079
1.3301
1.32942
1.32879
1.32819
1.3276
1.32704
1.32652
1.32601
1.32553
1.32507
1.32464
1.32422
1.32383
1.32347
1.32312
1.32279
1.32248
1.32219
1.32192
1.32166
1.32143
1.32121
1.32101
1.32082
1.32065
1.32049
1.32035
1.32023
1.32011
1.32002
1.31994
1.31987
1.31981
1.31977
1.31975
1.31973
1.31974
1.31975
1.31978
1.31983
1.31989
1.31996
1.32005
1.32016
1.32028
1.32042
1.32058
1.32075
1.32094
1.32115
1.32138
1.32164
1.3219
1.3222
1.32252
1.32285
1.32321
1.3236
1.32401
1.32445
1.32491
1.32541
1.32592
1.32647
1.32705
1.32765
1.32829
1.32896
1.32966
1.33038
1.33114
1.33193
1.33274
1.33358
1.33445
1.33535
1.33627
1.3372
1.33816
1.33915
1.34014
1.34114
1.34216
1.34319
1.34422
1.34526
1.34629
1.34732
1.34835
1.34937
1.35037
1.35136
1.35233
1.35328
1.35421
1.35511
1.35598
1.35681
1.35761
1.35837
1.3591
1.35978
1.36042
1.36102
1.36158
1.36209
1.36257
1.363
1.3634
1.36376
1.36409
1.36438
1.36465
1.36489
1.36509
1.36528
1.36545
1.3656
1.36572
1.36584
1.36594
1.36602
1.3661
1.36616
1.36621
1.36626
1.3663
1.36633
1.36636
1.36639
1.36641
1.36642
1.36644
1.36645
1.36646
1.36646
1.36647
1.36648
1.36648
1.36648
1.36648
1.36649
1.36649
1.36649
1.36649
1.36649
1.36649
1.36649
1.36649
1.3665
1.3665
1.3665
1.3665
1.3665
1.3665
1.3665
1.3665
1.36651
1.36651
1.36651
1.36651
1.36651
1.36651
1.36652
1.36652
1.36652