# vtk DataFile Version 2.0
LBE two cylinders
ASCII
DATASET STRUCTURED_POINTS
DIMENSIONS 400 100 1
ASPECT_RATIO 1 1 1
ORIGIN 0 0 0
POINT_DATA 40000
SCALARS rho double 1
LOOKUP_TABLE default
1.33888
1.33617
1.33643
1.33643
1.33549
1.33496
1.33461
1.33392
1.33327
1.33272
1.3321
1.33146
1.33086
1.33027
1.32967
1.32909
1.32853
1.32798
1.32745
1.32694
1.32644
1.32597
1.32551
1.32508
1.32466
1.32427
1.32389
1.32354
1.3232
1.32288
1.32259
1.32231
1.32205
1.32182
1.3216
1.32139
1.32121
1.32104
1.32089
1.32076
1.32065
1.32055
1.32047
1.32041
1.32036
1.32033
1.32031
1.32032
1.32033
1.32037
1.32042
1.32049
1.32058
1.32068
1.3208
1.32094
1.3211
1.32128
1.32148
1.32169
1.32193
1.32219
1.32247
1.32277
1.3231
1.32345
1.32382
1.32421
1.32464
1.32508
1.32555
1.32605
1.32658
1.32713
1.32771
1.32832
1.32895
1.32961
1.3303
1.33102
1.33176
1.33253
1.33332
1.33413
1.33497
1.33583
1.33671
1.33761
1.33853
1.33946
1.3404
1.34136
1.34232
1.3433
1.34427
1.34525
1.34622
1.3472
1.34816
1.34912
1.35007
1.351
1.35192
1.35282
1.3537
1.35455
1.35538
1.35618
1.35696
1.3577
1.35841
1.35909
1.35973
1.36034
1.36092
1.36146
1.36197
1.36244
1.36288
1.36329
1.36367
1.36402
1.36434
1.36463
1.3649
1.36514
1.36536
1.36556
1.36574
1.3659
1.36604
1.36617
1.36628
1.36638
1.36647
1.36655
1.36662
1.36669
1.36674
1.36679
1.36683
1.36687
1.3669
1.36693
1.36696
1.36698
1.367
1.36702
1.36704
1.36706
1.36707
1.36709
1.3671
1.36712
1.36714
1.36715
1.36717
1.36718
1.3672
1.36722
1.36724
1.36726
1.36727
1.36729
1.36731
1.36733
1.36736
1.36738
1.3674
1.36742
1.36744
1.36746
1.36749
1.36751
1.36753
1.36755
1.36757
1.36759
1.36761
1.36763
1.36765
1.36767
1.36768
1.3677
1.36772
1.36773
1.36775
1.36776
1.36777
1.36778
1.36779
1.36781
1.36781
1.36782
1.36783
1.36784
1.36784
1.36785
1.36785
1.36786
1.36786
1.36786
1.36787
1.36787
1.36787
1.36787
1.36787
1.36787
1.36788
1.36788
1.36788
1.36788
1.36788
1.36787
1.36787
1.36787
1.36787
1.36787
1.36787
1.36787
1.36787
1.36786
1.36786
1.36786
1.36785
1.36785
1.36784
1.36783
1.36783
1.36782
1.36781
1.3678
1.36778
1.36777
1.36775
1.36773
1.36771
1.36769
1.36766
1.36763
1.3676
1.36756
1.36752
1.36748
1.36744
1.36739
1.36734
1.36728
1.36722
1.36716
1.3671
1.36703
1.36696
1.36688
1.3668
1.36672
1.36664
1.36655
1.36646
1.36637
1.36627
1.36617
1.36607
1.36596
1.36585
1.36574
1.36562
1.36549
1.36537
1.36523
1.36509
1.36494
1.36478
1.36461
1.36443
1.36424
1.36403
1.36381
1.36357
1.36331
1.36304
1.36274
1.36241
1.36206
1.36168
1.36128
1.36084
1.36037
1.35987
1.35934
1.35877
1.35818
1.35754
1.35688
1.35618
1.35545
1.35469
1.35391
1.3531
1.35226
1.35141
1.35053
1.34964
1.34873
1.34781
1.34688
1.34595
1.34501
1.34407
1.34312
1.34218
1.34124
1.34031
1.33938
1.33846
1.33756
1.33666
1.33577
1.3349
1.33404
1.3332
1.33237
1.33155
1.33076
1.32997
1.32921
1.32846
1.32773
1.32702
1.32633
1.32565
1.32499
1.32435
1.32372
1.32311
1.32252
1.32194
1.32138
1.32083
1.3203
1.31979
1.31929
1.31881
1.31834
1.31788
1.31744
1.31702
1.3166
1.3162
1.31582
1.31545
1.31509
1.31474
1.3144
1.31408
1.31377
1.31347
1.31319
1.31291
1.31265
1.31239
1.31215
1.31192
1.31171
1.3115
1.3113
1.31111
1.31094
1.31077
1.31061
1.31047
1.31033
1.31021
1.31009
1.30999
1.30989
1.30981
1.30974
1.30967
1.30961
1.30958
1.30956
1.30951
1.30951
1.30957
1.30955
1.30948
1.30965
1.30984
1.30953
1.30943
1.3104
1.31031
1.30828
1.30927
1.31318
1.30859
1.29986
1.31041
1.31948
1.33702
1.33714
1.33665
1.33597
1.33565
1.33515
1.33454
1.33394
1.33338
1.33275
1.33213
1.33153
1.33092
1.33031
1.32972
1.32914
1.32857
1.32802
1.32749
1.32698
1.32648
1.32601
1.32555
1.32512
1.3247
1.32431
1.32393
1.32357
1.32324
1.32292
1.32262
1.32235
1.32209
1.32185
1.32163
1.32143
1.32124
1.32107
1.32092
1.32079
1.32068
1.32058
1.3205
1.32043
1.32038
1.32035
1.32034
1.32034
1.32036
1.32039
1.32044
1.32051
1.3206
1.3207
1.32082
1.32096
1.32112
1.3213
1.32149
1.32171
1.32195
1.3222
1.32248
1.32278
1.32311
1.32345
1.32383
1.32422
1.32464
1.32509
1.32556
1.32605
1.32658
1.32713
1.3277
1.32831
1.32894
1.3296
1.33028
1.331
1.33174
1.3325
1.33329
1.3341
1.33494
1.3358
1.33667
1.33757
1.33848
1.33941
1.34035
1.34131
1.34227
1.34324
1.34421
1.34519
1.34616
1.34713
1.3481
1.34906
1.35
1.35094
1.35185
1.35275
1.35363
1.35449
1.35531
1.35612
1.35689
1.35764
1.35835
1.35903
1.35967
1.36029
1.36086
1.36141
1.36192
1.3624
1.36284
1.36325
1.36363
1.36398
1.3643
1.3646
1.36487
1.36511
1.36533
1.36553
1.36571
1.36587
1.36602
1.36615
1.36626
1.36637
1.36646
1.36654
1.36661
1.36667
1.36672
1.36677
1.36681
1.36685
1.36689
1.36692
1.36694
1.36697
1.36699
1.36701
1.36702
1.36704
1.36706
1.36707
1.36709
1.3671
1.36712
1.36714
1.36715
1.36717
1.36718
1.3672
1.36722
1.36724
1.36726
1.36728
1.3673
1.36732
1.36734
1.36736
1.36738
1.3674
1.36742
1.36744
1.36747
1.36749
1.36751
1.36753
1.36755
1.36757
1.36759
1.36761
1.36763
1.36765
1.36766
1.36768
1.36769
1.36771
1.36772
1.36774
1.36775
1.36776
1.36777
1.36778
1.36779
1.3678
1.36781
1.36781
1.36782
1.36782
1.36783
1.36783
1.36784
1.36784
1.36784
1.36784
1.36785
1.36785
1.36785
1.36785
1.36785
1.36785
1.36785
1.36785
1.36785
1.36785
1.36784
1.36784
1.36784
1.36784
1.36784
1.36784
1.36783
1.36783
1.36783
1.36782
1.36782
1.36781
1.36781
1.3678
1.36779
1.36778
1.36777
1.36776
1.36775
1.36773
1.36771
1.3677
1.36767
1.36765
1.36762
1.36759
1.36756
1.36753
1.36749
1.36745
1.3674
1.36735
1.3673
1.36724
1.36719
1.36712
1.36706
1.36699
1.36692
1.36684
1.36676
1.36668
1.36659
1.36651
1.36641
1.36632
1.36622
1.36612
1.36602
1.36591
1.3658
1.36568
1.36556
1.36543
1.3653
1.36517
1.36502
1.36487
1.36471
1.36454
1.36436
1.36416
1.36395
1.36373
1.36349
1.36323
1.36295
1.36265
1.36232
1.36197
1.36159
1.36119
1.36075
1.36029
1.35979
1.35926
1.35869
1.3581
1.35747
1.35681
1.35611
1.35539
1.35464
1.35386
1.35305
1.35222
1.35137
1.3505
1.34961
1.34871
1.34779
1.34687
1.34594
1.34501
1.34407
1.34313
1.34219
1.34126
1.34033
1.33941
1.33849
1.33759
1.33669
1.33581
1.33494
1.33408
1.33324
1.33241
1.3316
1.3308
1.33002
1.32926
1.32851
1.32779
1.32707
1.32638
1.3257
1.32504
1.3244
1.32377
1.32316
1.32256
1.32199
1.32143
1.32088
1.32035
1.31983
1.31933
1.31885
1.31838
1.31792
1.31748
1.31705
1.31664
1.31624
1.31585
1.31547
1.31511
1.31476
1.31443
1.3141
1.31379
1.31349
1.3132
1.31293
1.31266
1.31241
1.31216
1.31193
1.31171
1.3115
1.3113
1.31111
1.31093
1.31076
1.31061
1.31046
1.31032
1.31019
1.31007
1.30996
1.30986
1.30977
1.30969
1.30963
1.30957
1.30951
1.30947
1.30946
1.30942
1.30939
1.30944
1.30947
1.30936
1.30939
1.30967
1.30952
1.30905
1.30949
1.31019
1.3085
1.30703
1.3097
1.30916
1.29929
1.29382
1.33635
1.33732
1.3366
1.33588
1.33584
1.33526
1.33453
1.33403
1.33347
1.33278
1.33217
1.33158
1.33095
1.33034
1.32975
1.32917
1.3286
1.32805
1.32752
1.327
1.32651
1.32603
1.32557
1.32514
1.32472
1.32432
1.32395
1.32359
1.32325
1.32294
1.32264
1.32236
1.3221
1.32186
1.32164
1.32144
1.32125
1.32109
1.32094
1.3208
1.32069
1.32059
1.32051
1.32044
1.32039
1.32036
1.32035
1.32035
1.32037
1.3204
1.32045
1.32052
1.3206
1.32071
1.32083
1.32096
1.32112
1.3213
1.32149
1.32171
1.32194
1.3222
1.32247
1.32277
1.3231
1.32344
1.32381
1.3242
1.32462
1.32506
1.32553
1.32603
1.32655
1.32709
1.32767
1.32827
1.3289
1.32956
1.33024
1.33095
1.33168
1.33245
1.33323
1.33404
1.33487
1.33573
1.33661
1.3375
1.33841
1.33934
1.34028
1.34124
1.3422
1.34317
1.34414
1.34512
1.34609
1.34706
1.34803
1.34899
1.34994
1.35087
1.35179
1.35269
1.35357
1.35443
1.35526
1.35607
1.35685
1.35759
1.35831
1.35899
1.35964
1.36026
1.36084
1.36138
1.3619
1.36238
1.36282
1.36323
1.36362
1.36397
1.36429
1.36459
1.36485
1.3651
1.36532
1.36552
1.3657
1.36586
1.36601
1.36614
1.36625
1.36635
1.36644
1.36652
1.36659
1.36665
1.36671
1.36676
1.3668
1.36683
1.36687
1.36689
1.36692
1.36694
1.36696
1.36698
1.367
1.36702
1.36703
1.36705
1.36706
1.36708
1.36709
1.36711
1.36712
1.36714
1.36716
1.36717
1.36719
1.36721
1.36723
1.36725
1.36726
1.36729
1.36731
1.36733
1.36735
1.36737
1.36739
1.36741
1.36743
1.36745
1.36747
1.3675
1.36752
1.36754
1.36755
1.36757
1.36759
1.36761
1.36763
1.36764
1.36766
1.36767
1.36769
1.3677
1.36771
1.36772
1.36773
1.36774
1.36775
1.36776
1.36777
1.36778
1.36778
1.36779
1.36779
1.36779
1.3678
1.3678
1.3678
1.3678
1.3678
1.36781
1.36781
1.36781
1.36781
1.36781
1.36781
1.36781
1.3678
1.3678
1.3678
1.3678
1.3678
1.3678
1.36779
1.36779
1.36779
1.36779
1.36778
1.36778
1.36777
1.36777
1.36776
1.36775
1.36775
1.36774
1.36773
1.36771
1.3677
1.36769
1.36767
1.36765
1.36763
1.3676
1.36758
1.36755
1.36751
1.36748
1.36744
1.3674
1.36735
1.36731
1.36725
1.3672
1.36714
1.36708
1.36701
1.36694
1.36687
1.36679
1.36671
1.36663
1.36654
1.36645
1.36636
1.36627
1.36617
1.36607
1.36596
1.36585
1.36574
1.36562
1.3655
1.36537
1.36524
1.3651
1.36495
1.3648
1.36464
1.36447
1.36428
1.36409
1.36388
1.36365
1.36341
1.36315
1.36287
1.36257
1.36225
1.36189
1.36152
1.36111
1.36068
1.36021
1.35972
1.35919
1.35863
1.35803
1.3574
1.35674
1.35605
1.35533
1.35458
1.3538
1.353
1.35217
1.35132
1.35046
1.34957
1.34868
1.34776
1.34684
1.34592
1.34499
1.34405
1.34312
1.34218
1.34125
1.34032
1.3394
1.33849
1.33759
1.3367
1.33582
1.33495
1.3341
1.33325
1.33243
1.33162
1.33082
1.33005
1.32929
1.32854
1.32781
1.3271
1.32641
1.32573
1.32507
1.32443
1.3238
1.32319
1.32259
1.32202
1.32145
1.32091
1.32038
1.31986
1.31936
1.31888
1.3184
1.31795
1.3175
1.31707
1.31666
1.31626
1.31587
1.31549
1.31513
1.31478
1.31444
1.31412
1.3138
1.3135
1.31321
1.31293
1.31267
1.31241
1.31217
1.31193
1.31171
1.3115
1.3113
1.31111
1.31092
1.31075
1.31059
1.31044
1.3103
1.31017
1.31005
1.30993
1.30983
1.30974
1.30965
1.30958
1.30952
1.30946
1.30939
1.30938
1.30937
1.30929
1.30926
1.30939
1.30934
1.30906
1.30933
1.30974
1.3089
1.30834
1.31021
1.30989
1.30512
1.30712
1.31398
1.30161
1.28945
1.33678
1.33684
1.33669
1.33642
1.33588
1.33522
1.33473
1.33413
1.33346
1.33284
1.33224
1.33159
1.33097
1.33036
1.32976
1.32917
1.3286
1.32805
1.32751
1.327
1.3265
1.32602
1.32556
1.32513
1.32471
1.32431
1.32394
1.32358
1.32324
1.32293
1.32263
1.32235
1.32209
1.32186
1.32163
1.32143
1.32125
1.32108
1.32093
1.3208
1.32068
1.32058
1.3205
1.32044
1.32039
1.32036
1.32034
1.32034
1.32036
1.32039
1.32044
1.32051
1.32059
1.32069
1.32081
1.32095
1.3211
1.32128
1.32147
1.32168
1.32191
1.32217
1.32244
1.32274
1.32306
1.3234
1.32377
1.32416
1.32457
1.32501
1.32547
1.32597
1.32648
1.32703
1.3276
1.3282
1.32882
1.32948
1.33016
1.33086
1.3316
1.33236
1.33314
1.33395
1.33478
1.33564
1.33651
1.33741
1.33832
1.33925
1.34019
1.34114
1.3421
1.34307
1.34405
1.34503
1.34601
1.34698
1.34795
1.34892
1.34987
1.35081
1.35173
1.35264
1.35352
1.35438
1.35522
1.35603
1.35681
1.35757
1.35828
1.35897
1.35963
1.36025
1.36083
1.36138
1.36189
1.36237
1.36282
1.36324
1.36362
1.36397
1.36429
1.36459
1.36485
1.3651
1.36532
1.36552
1.3657
1.36586
1.366
1.36613
1.36624
1.36634
1.36643
1.36651
1.36657
1.36663
1.36669
1.36673
1.36677
1.36681
1.36684
1.36687
1.36689
1.36691
1.36693
1.36695
1.36697
1.36698
1.367
1.36701
1.36703
1.36704
1.36706
1.36707
1.36708
1.3671
1.36712
1.36713
1.36715
1.36717
1.36718
1.3672
1.36722
1.36724
1.36726
1.36728
1.3673
1.36732
1.36734
1.36737
1.36739
1.36741
1.36743
1.36745
1.36747
1.36749
1.36751
1.36753
1.36754
1.36756
1.36758
1.3676
1.36761
1.36762
1.36764
1.36765
1.36766
1.36767
1.36768
1.36769
1.3677
1.36771
1.36772
1.36772
1.36773
1.36773
1.36774
1.36774
1.36774
1.36775
1.36775
1.36775
1.36775
1.36775
1.36775
1.36775
1.36775
1.36775
1.36775
1.36775
1.36775
1.36775
1.36774
1.36774
1.36774
1.36774
1.36774
1.36773
1.36773
1.36773
1.36772
1.36772
1.36772
1.36771
1.3677
1.3677
1.36769
1.36768
1.36767
1.36766
1.36764
1.36763
1.36761
1.36759
1.36757
1.36755
1.36752
1.36749
1.36746
1.36742
1.36738
1.36734
1.3673
1.36725
1.3672
1.36714
1.36708
1.36702
1.36696
1.36689
1.36681
1.36674
1.36666
1.36657
1.36649
1.3664
1.3663
1.36621
1.36611
1.36601
1.3659
1.36579
1.36567
1.36556
1.36543
1.36531
1.36517
1.36503
1.36489
1.36473
1.36457
1.3644
1.36421
1.36402
1.36381
1.36358
1.36334
1.36308
1.3628
1.3625
1.36217
1.36182
1.36144
1.36104
1.3606
1.36014
1.35964
1.35911
1.35855
1.35795
1.35733
1.35667
1.35598
1.35525
1.3545
1.35373
1.35292
1.3521
1.35125
1.35038
1.3495
1.3486
1.3477
1.34678
1.34585
1.34492
1.34399
1.34306
1.34213
1.3412
1.34027
1.33936
1.33845
1.33755
1.33666
1.33578
1.33492
1.33407
1.33323
1.33241
1.3316
1.33081
1.33003
1.32928
1.32853
1.32781
1.3271
1.32641
1.32573
1.32507
1.32443
1.32381
1.3232
1.32261
1.32203
1.32147
1.32092
1.32039
1.31988
1.31938
1.31889
1.31842
1.31796
1.31752
1.31709
1.31668
1.31627
1.31588
1.31551
1.31515
1.31479
1.31446
1.31413
1.31382
1.31351
1.31322
1.31294
1.31268
1.31242
1.31217
1.31194
1.31172
1.3115
1.3113
1.31111
1.31092
1.31075
1.31059
1.31044
1.31029
1.31016
1.31004
1.30992
1.30981
1.30972
1.30964
1.30955
1.30948
1.30944
1.30938
1.30931
1.30929
1.30933
1.30924
1.30914
1.30934
1.30943
1.30895
1.30899
1.3099
1.3093
1.30763
1.30929
1.31097
1.30624
1.3042
1.30958
1.31021
1.33755
1.33723
1.33706
1.33668
1.33594
1.33538
1.33489
1.33417
1.3335
1.3329
1.33225
1.33158
1.33097
1.33035
1.32974
1.32915
1.32858
1.32802
1.32748
1.32696
1.32646
1.32598
1.32553
1.32509
1.32467
1.32428
1.3239
1.32354
1.32321
1.32289
1.3226
1.32232
1.32206
1.32182
1.3216
1.3214
1.32122
1.32105
1.3209
1.32077
1.32065
1.32056
1.32047
1.32041
1.32036
1.32033
1.32031
1.32031
1.32033
1.32036
1.32041
1.32048
1.32056
1.32066
1.32077
1.32091
1.32106
1.32123
1.32142
1.32164
1.32187
1.32212
1.32239
1.32268
1.323
1.32334
1.3237
1.32409
1.32449
1.32493
1.32539
1.32588
1.32639
1.32693
1.3275
1.3281
1.32872
1.32937
1.33004
1.33075
1.33148
1.33224
1.33302
1.33383
1.33465
1.33551
1.33638
1.33728
1.33819
1.33912
1.34006
1.34102
1.34198
1.34296
1.34394
1.34492
1.3459
1.34688
1.34786
1.34883
1.34978
1.35073
1.35166
1.35257
1.35347
1.35434
1.35518
1.356
1.35679
1.35755
1.35827
1.35896
1.35962
1.36025
1.36083
1.36139
1.3619
1.36239
1.36283
1.36325
1.36363
1.36398
1.3643
1.3646
1.36487
1.36511
1.36532
1.36552
1.3657
1.36586
1.366
1.36612
1.36623
1.36633
1.36641
1.36649
1.36655
1.36661
1.36666
1.36671
1.36674
1.36678
1.36681
1.36683
1.36686
1.36688
1.36689
1.36691
1.36693
1.36694
1.36695
1.36697
1.36698
1.367
1.36701
1.36702
1.36704
1.36705
1.36707
1.36708
1.3671
1.36712
1.36713
1.36715
1.36717
1.36719
1.36721
1.36723
1.36725
1.36727
1.36729
1.36731
1.36733
1.36735
1.36737
1.36739
1.36741
1.36743
1.36745
1.36747
1.36748
1.3675
1.36752
1.36753
1.36755
1.36756
1.36758
1.36759
1.3676
1.36761
1.36762
1.36763
1.36764
1.36765
1.36765
1.36766
1.36766
1.36767
1.36767
1.36768
1.36768
1.36768
1.36768
1.36768
1.36768
1.36769
1.36769
1.36769
1.36768
1.36768
1.36768
1.36768
1.36768
1.36768
1.36768
1.36767
1.36767
1.36767
1.36767
1.36767
1.36766
1.36766
1.36765
1.36765
1.36765
1.36764
1.36763
1.36763
1.36762
1.36761
1.3676
1.36759
1.36758
1.36756
1.36754
1.36753
1.3675
1.36748
1.36745
1.36743
1.36739
1.36736
1.36732
1.36728
1.36723
1.36719
1.36713
1.36708
1.36702
1.36696
1.36689
1.36682
1.36675
1.36667
1.36659
1.36651
1.36642
1.36633
1.36624
1.36614
1.36604
1.36594
1.36583
1.36573
1.36561
1.36549
1.36537
1.36524
1.36511
1.36497
1.36482
1.36467
1.36451
1.36433
1.36415
1.36395
1.36374
1.36352
1.36327
1.36301
1.36273
1.36243
1.3621
1.36175
1.36137
1.36096
1.36052
1.36005
1.35955
1.35902
1.35846
1.35786
1.35723
1.35656
1.35587
1.35514
1.35439
1.35361
1.35281
1.35198
1.35113
1.35026
1.34938
1.34848
1.34757
1.34666
1.34573
1.3448
1.34387
1.34294
1.34201
1.34109
1.34017
1.33925
1.33835
1.33745
1.33657
1.33569
1.33483
1.33399
1.33315
1.33234
1.33153
1.33075
1.32998
1.32922
1.32849
1.32777
1.32706
1.32637
1.3257
1.32505
1.32441
1.32379
1.32318
1.32259
1.32202
1.32146
1.32092
1.32039
1.31988
1.31938
1.3189
1.31843
1.31797
1.31753
1.31711
1.31669
1.31629
1.3159
1.31553
1.31516
1.31481
1.31448
1.31415
1.31384
1.31353
1.31324
1.31296
1.3127
1.31244
1.31219
1.31196
1.31173
1.31152
1.31132
1.31113
1.31094
1.31077
1.31061
1.31045
1.31031
1.31018
1.31005
1.30994
1.30983
1.30973
1.30965
1.30958
1.3095
1.30944
1.30942
1.30938
1.3093
1.30932
1.3094
1.30926
1.3092
1.30955
1.30954
1.30894
1.30944
1.31046
1.30895
1.30803
1.31143
1.31076
1.30582
1.30917
1.3117
1.33844
1.338
1.33745
1.33679
1.33623
1.33564
1.33491
1.33421
1.33359
1.3329
1.33221
1.33157
1.33094
1.33029
1.32968
1.32909
1.32851
1.32795
1.32741
1.32689
1.32639
1.32591
1.32545
1.32502
1.3246
1.3242
1.32383
1.32348
1.32314
1.32283
1.32253
1.32226
1.322
1.32177
1.32155
1.32135
1.32117
1.321
1.32085
1.32072
1.32061
1.32051
1.32043
1.32036
1.32032
1.32028
1.32027
1.32027
1.32028
1.32031
1.32036
1.32043
1.32051
1.3206
1.32072
1.32085
1.321
1.32117
1.32136
1.32157
1.32179
1.32204
1.32231
1.3226
1.32291
1.32325
1.3236
1.32399
1.32439
1.32482
1.32528
1.32576
1.32627
1.32681
1.32737
1.32796
1.32858
1.32922
1.3299
1.3306
1.33132
1.33208
1.33286
1.33367
1.33449
1.33535
1.33622
1.33712
1.33803
1.33896
1.33991
1.34087
1.34184
1.34282
1.3438
1.34479
1.34578
1.34676
1.34775
1.34872
1.34969
1.35064
1.35158
1.3525
1.3534
1.35428
1.35514
1.35596
1.35676
1.35753
1.35826
1.35896
1.35963
1.36026
1.36085
1.36141
1.36192
1.36241
1.36286
1.36328
1.36366
1.36401
1.36433
1.36462
1.36488
1.36512
1.36534
1.36553
1.3657
1.36586
1.36599
1.36612
1.36622
1.36632
1.3664
1.36647
1.36653
1.36659
1.36663
1.36668
1.36671
1.36674
1.36677
1.36679
1.36681
1.36683
1.36685
1.36687
1.36688
1.36689
1.3669
1.36692
1.36693
1.36694
1.36695
1.36697
1.36698
1.36699
1.36701
1.36702
1.36704
1.36705
1.36707
1.36709
1.36711
1.36713
1.36714
1.36716
1.36718
1.3672
1.36722
1.36724
1.36726
1.36728
1.3673
1.36732
1.36734
1.36736
1.36738
1.3674
1.36741
1.36743
1.36745
1.36746
1.36748
1.36749
1.3675
1.36752
1.36753
1.36754
1.36755
1.36756
1.36756
1.36757
1.36758
1.36758
1.36759
1.36759
1.3676
1.3676
1.3676
1.3676
1.36761
1.36761
1.36761
1.36761
1.36761
1.36761
1.36761
1.36761
1.3676
1.3676
1.3676
1.3676
1.3676
1.3676
1.36759
1.36759
1.36759
1.36759
1.36758
1.36758
1.36757
1.36757
1.36757
1.36756
1.36756
1.36755
1.36754
1.36753
1.36752
1.36751
1.3675
1.36748
1.36747
1.36745
1.36743
1.36741
1.36738
1.36735
1.36732
1.36729
1.36725
1.36721
1.36716
1.36711
1.36706
1.36701
1.36695
1.36689
1.36682
1.36675
1.36668
1.3666
1.36652
1.36644
1.36636
1.36627
1.36617
1.36608
1.36598
1.36588
1.36577
1.36566
1.36555
1.36543
1.36531
1.36518
1.36505
1.36491
1.36476
1.36461
1.36445
1.36427
1.36409
1.36389
1.36368
1.36345
1.36321
1.36295
1.36266
1.36236
1.36203
1.36167
1.36129
1.36087
1.36043
1.35996
1.35945
1.35891
1.35834
1.35773
1.35709
1.35643
1.35572
1.35499
1.35423
1.35345
1.35264
1.3518
1.35095
1.35008
1.3492
1.3483
1.34739
1.34647
1.34554
1.34462
1.34369
1.34276
1.34183
1.34091
1.33999
1.33908
1.33818
1.33729
1.33641
1.33554
1.33468
1.33384
1.33302
1.33221
1.33141
1.33063
1.32987
1.32912
1.32839
1.32768
1.32698
1.3263
1.32564
1.32499
1.32436
1.32374
1.32315
1.32256
1.32199
1.32144
1.3209
1.32038
1.31987
1.31938
1.3189
1.31844
1.31798
1.31755
1.31712
1.31671
1.31631
1.31592
1.31555
1.31519
1.31484
1.31451
1.31418
1.31387
1.31357
1.31328
1.313
1.31273
1.31248
1.31223
1.312
1.31178
1.31157
1.31136
1.31117
1.31099
1.31082
1.31066
1.31051
1.31036
1.31023
1.31011
1.31
1.3099
1.30981
1.30972
1.30965
1.30961
1.30954
1.30949
1.30951
1.3095
1.3094
1.30947
1.30967
1.30952
1.30936
1.30996
1.3102
1.30927
1.30976
1.31161
1.31024
1.30857
1.31188
1.31371
1.31071
1.31039
1.33948
1.33865
1.33791
1.33716
1.33652
1.33576
1.33496
1.3343
1.33361
1.33285
1.33218
1.33152
1.33085
1.3302
1.32959
1.32898
1.3284
1.32784
1.3273
1.32677
1.32628
1.3258
1.32534
1.32491
1.32449
1.3241
1.32373
1.32338
1.32305
1.32274
1.32245
1.32217
1.32192
1.32169
1.32147
1.32127
1.32109
1.32093
1.32078
1.32065
1.32054
1.32045
1.32037
1.3203
1.32025
1.32022
1.3202
1.3202
1.32022
1.32025
1.32029
1.32036
1.32044
1.32053
1.32065
1.32078
1.32092
1.32109
1.32127
1.32148
1.3217
1.32194
1.32221
1.32249
1.3228
1.32313
1.32348
1.32386
1.32426
1.32469
1.32514
1.32561
1.32612
1.32665
1.32721
1.32779
1.32841
1.32905
1.32972
1.33041
1.33114
1.33189
1.33267
1.33347
1.3343
1.33515
1.33603
1.33692
1.33784
1.33877
1.33972
1.34069
1.34166
1.34264
1.34363
1.34463
1.34562
1.34662
1.34761
1.3486
1.34957
1.35054
1.35148
1.35242
1.35333
1.35422
1.35508
1.35592
1.35673
1.35751
1.35825
1.35896
1.35963
1.36027
1.36087
1.36143
1.36195
1.36244
1.36289
1.36331
1.36369
1.36404
1.36436
1.36465
1.36491
1.36514
1.36535
1.36554
1.36571
1.36586
1.36599
1.36611
1.36621
1.3663
1.36638
1.36645
1.36651
1.36656
1.3666
1.36664
1.36667
1.3667
1.36673
1.36675
1.36677
1.36678
1.3668
1.36681
1.36682
1.36683
1.36684
1.36686
1.36687
1.36688
1.36689
1.3669
1.36691
1.36693
1.36694
1.36695
1.36697
1.36698
1.367
1.36702
1.36703
1.36705
1.36707
1.36709
1.36711
1.36713
1.36715
1.36717
1.36718
1.36721
1.36722
1.36724
1.36726
1.36728
1.3673
1.36732
1.36733
1.36735
1.36736
1.36738
1.36739
1.36741
1.36742
1.36743
1.36744
1.36745
1.36746
1.36747
1.36748
1.36749
1.36749
1.3675
1.3675
1.36751
1.36751
1.36751
1.36752
1.36752
1.36752
1.36752
1.36752
1.36752
1.36752
1.36752
1.36752
1.36752
1.36751
1.36751
1.36751
1.36751
1.36751
1.36751
1.3675
1.3675
1.3675
1.3675
1.36749
1.36749
1.36749
1.36748
1.36748
1.36747
1.36747
1.36746
1.36745
1.36745
1.36744
1.36742
1.36741
1.3674
1.36738
1.36736
1.36734
1.36732
1.3673
1.36727
1.36724
1.3672
1.36717
1.36713
1.36708
1.36704
1.36698
1.36693
1.36687
1.36681
1.36675
1.36668
1.36661
1.36653
1.36645
1.36637
1.36628
1.36619
1.3661
1.36601
1.36591
1.36581
1.3657
1.36559
1.36548
1.36537
1.36524
1.36512
1.36499
1.36485
1.3647
1.36455
1.36439
1.36421
1.36403
1.36383
1.36362
1.36339
1.36315
1.36288
1.36259
1.36229
1.36195
1.36159
1.3612
1.36078
1.36033
1.35985
1.35933
1.35878
1.3582
1.35758
1.35694
1.35626
1.35554
1.3548
1.35403
1.35324
1.35242
1.35158
1.35072
1.34985
1.34896
1.34805
1.34714
1.34622
1.34529
1.34437
1.34343
1.34251
1.34158
1.34066
1.33974
1.33884
1.33794
1.33705
1.33618
1.33531
1.33447
1.33363
1.33281
1.33201
1.33123
1.33045
1.3297
1.32897
1.32824
1.32754
1.32686
1.32618
1.32553
1.3249
1.32427
1.32367
1.32308
1.3225
1.32194
1.3214
1.32087
1.32036
1.31986
1.31937
1.3189
1.31844
1.31799
1.31756
1.31714
1.31673
1.31634
1.31596
1.31559
1.31523
1.31489
1.31455
1.31423
1.31392
1.31363
1.31334
1.31306
1.3128
1.31255
1.3123
1.31207
1.31185
1.31164
1.31144
1.31125
1.31107
1.31091
1.31075
1.3106
1.31046
1.31034
1.31022
1.31011
1.31002
1.30994
1.30986
1.30979
1.30975
1.30974
1.30969
1.30967
1.30974
1.30977
1.30969
1.30985
1.31014
1.30997
1.30996
1.31082
1.31093
1.31012
1.31137
1.31289
1.31151
1.31174
1.3143
1.31458
1.31524
1.34049
1.33923
1.3384
1.33756
1.33668
1.33584
1.33509
1.33433
1.33353
1.3328
1.33211
1.3314
1.33072
1.33008
1.32945
1.32883
1.32825
1.32769
1.32714
1.32662
1.32612
1.32565
1.32519
1.32476
1.32435
1.32397
1.3236
1.32325
1.32292
1.32262
1.32233
1.32206
1.32181
1.32158
1.32137
1.32118
1.321
1.32084
1.32069
1.32057
1.32046
1.32036
1.32028
1.32022
1.32017
1.32014
1.32012
1.32012
1.32014
1.32017
1.32021
1.32027
1.32035
1.32044
1.32055
1.32068
1.32083
1.32099
1.32117
1.32137
1.32159
1.32183
1.32209
1.32237
1.32267
1.32299
1.32334
1.32371
1.32411
1.32452
1.32497
1.32544
1.32594
1.32646
1.32702
1.3276
1.3282
1.32884
1.3295
1.33019
1.33092
1.33166
1.33244
1.33324
1.33407
1.33492
1.3358
1.33669
1.33761
1.33855
1.3395
1.34047
1.34145
1.34244
1.34343
1.34444
1.34544
1.34644
1.34745
1.34844
1.34943
1.35041
1.35137
1.35231
1.35324
1.35414
1.35502
1.35587
1.35669
1.35748
1.35823
1.35895
1.35963
1.36028
1.36088
1.36145
1.36198
1.36247
1.36292
1.36334
1.36372
1.36407
1.36439
1.36468
1.36493
1.36516
1.36537
1.36556
1.36572
1.36587
1.36599
1.3661
1.3662
1.36629
1.36636
1.36642
1.36648
1.36653
1.36657
1.3666
1.36663
1.36666
1.36668
1.3667
1.36671
1.36673
1.36674
1.36675
1.36676
1.36677
1.36678
1.36679
1.3668
1.36681
1.36682
1.36683
1.36684
1.36685
1.36686
1.36688
1.36689
1.36691
1.36692
1.36694
1.36695
1.36697
1.36699
1.36701
1.36702
1.36704
1.36706
1.36708
1.3671
1.36712
1.36714
1.36716
1.36717
1.36719
1.36721
1.36723
1.36724
1.36726
1.36727
1.36729
1.3673
1.36732
1.36733
1.36734
1.36735
1.36736
1.36737
1.36738
1.36739
1.36739
1.3674
1.3674
1.36741
1.36741
1.36742
1.36742
1.36742
1.36742
1.36742
1.36742
1.36742
1.36742
1.36742
1.36742
1.36742
1.36742
1.36742
1.36742
1.36741
1.36741
1.36741
1.36741
1.36741
1.3674
1.3674
1.3674
1.3674
1.36739
1.36739
1.36739
1.36738
1.36738
1.36737
1.36737
1.36736
1.36735
1.36734
1.36733
1.36732
1.36731
1.36729
1.36727
1.36725
1.36723
1.36721
1.36718
1.36715
1.36711
1.36708
1.36704
1.367
1.36695
1.3669
1.36684
1.36679
1.36673
1.36666
1.36659
1.36652
1.36645
1.36637
1.36629
1.36621
1.36612
1.36603
1.36593
1.36584
1.36574
1.36563
1.36553
1.36542
1.3653
1.36518
1.36506
1.36493
1.36479
1.36465
1.3645
1.36433
1.36416
1.36398
1.36378
1.36356
1.36334
1.36309
1.36282
1.36253
1.36221
1.36187
1.3615
1.36111
1.36068
1.36022
1.35972
1.3592
1.35864
1.35804
1.35741
1.35675
1.35605
1.35533
1.35458
1.3538
1.35299
1.35216
1.35131
1.35044
1.34956
1.34866
1.34776
1.34684
1.34591
1.34499
1.34406
1.34313
1.3422
1.34127
1.34035
1.33944
1.33853
1.33764
1.33676
1.33589
1.33503
1.33419
1.33337
1.33256
1.33176
1.33099
1.33023
1.32948
1.32876
1.32805
1.32736
1.32668
1.32603
1.32538
1.32476
1.32415
1.32356
1.32298
1.32242
1.32187
1.32134
1.32082
1.32032
1.31983
1.31935
1.31889
1.31844
1.318
1.31758
1.31716
1.31677
1.31638
1.316
1.31564
1.31529
1.31495
1.31462
1.31431
1.314
1.31371
1.31343
1.31316
1.3129
1.31265
1.31241
1.31218
1.31196
1.31176
1.31156
1.31138
1.3112
1.31104
1.31089
1.31074
1.31061
1.31049
1.31038
1.31029
1.3102
1.31012
1.31007
1.31003
1.30997
1.30997
1.31
1.30998
1.30999
1.31017
1.31025
1.31016
1.31046
1.31096
1.31074
1.31078
1.31207
1.31234
1.31148
1.31296
1.31509
1.31455
1.31457
1.31739
1.31944
1.3413
1.33981
1.33882
1.33781
1.33682
1.33595
1.33511
1.33425
1.33345
1.33272
1.33196
1.33124
1.33056
1.3299
1.32925
1.32864
1.32806
1.32749
1.32695
1.32643
1.32594
1.32546
1.32501
1.32459
1.32418
1.3238
1.32344
1.3231
1.32278
1.32247
1.32219
1.32193
1.32169
1.32146
1.32125
1.32106
1.32089
1.32073
1.32059
1.32046
1.32036
1.32026
1.32019
1.32012
1.32008
1.32005
1.32003
1.32003
1.32004
1.32007
1.32011
1.32017
1.32025
1.32034
1.32045
1.32057
1.32071
1.32087
1.32105
1.32124
1.32146
1.32169
1.32195
1.32222
1.32252
1.32283
1.32318
1.32354
1.32393
1.32434
1.32478
1.32524
1.32573
1.32625
1.3268
1.32737
1.32797
1.3286
1.32926
1.32994
1.33066
1.3314
1.33218
1.33298
1.3338
1.33465
1.33553
1.33642
1.33734
1.33828
1.33924
1.34021
1.3412
1.34219
1.3432
1.34421
1.34522
1.34624
1.34725
1.34826
1.34926
1.35025
1.35122
1.35218
1.35312
1.35404
1.35493
1.3558
1.35663
1.35744
1.3582
1.35894
1.35963
1.36028
1.3609
1.36147
1.36201
1.3625
1.36296
1.36338
1.36376
1.36411
1.36442
1.3647
1.36496
1.36519
1.36539
1.36557
1.36573
1.36587
1.36599
1.3661
1.36619
1.36627
1.36634
1.3664
1.36645
1.36649
1.36653
1.36656
1.36658
1.36661
1.36662
1.36664
1.36665
1.36666
1.36667
1.36668
1.36669
1.3667
1.36671
1.36672
1.36672
1.36673
1.36674
1.36675
1.36676
1.36677
1.36678
1.36679
1.36681
1.36682
1.36683
1.36685
1.36687
1.36688
1.3669
1.36692
1.36693
1.36695
1.36697
1.36699
1.36701
1.36703
1.36704
1.36706
1.36708
1.3671
1.36711
1.36713
1.36715
1.36716
1.36718
1.36719
1.36721
1.36722
1.36723
1.36724
1.36725
1.36726
1.36727
1.36728
1.36729
1.36729
1.3673
1.3673
1.36731
1.36731
1.36731
1.36732
1.36732
1.36732
1.36732
1.36732
1.36732
1.36732
1.36732
1.36732
1.36732
1.36732
1.36731
1.36731
1.36731
1.36731
1.36731
1.3673
1.3673
1.3673
1.3673
1.36729
1.36729
1.36729
1.36729
1.36728
1.36728
1.36727
1.36727
1.36726
1.36726
1.36725
1.36724
1.36723
1.36722
1.36721
1.36719
1.36717
1.36715
1.36713
1.36711
1.36708
1.36705
1.36702
1.36698
1.36694
1.3669
1.36686
1.36681
1.36675
1.3667
1.36664
1.36657
1.36651
1.36644
1.36636
1.36629
1.36621
1.36613
1.36604
1.36595
1.36586
1.36576
1.36567
1.36557
1.36546
1.36535
1.36524
1.36512
1.365
1.36487
1.36474
1.3646
1.36444
1.36428
1.36411
1.36393
1.36373
1.36352
1.36328
1.36303
1.36276
1.36246
1.36214
1.36179
1.36142
1.36101
1.36057
1.3601
1.35959
1.35905
1.35847
1.35786
1.35721
1.35653
1.35582
1.35508
1.35432
1.35352
1.3527
1.35186
1.351
1.35012
1.34923
1.34833
1.34741
1.34649
1.34556
1.34463
1.3437
1.34277
1.34183
1.34091
1.33999
1.33908
1.33818
1.33729
1.33641
1.33555
1.3347
1.33386
1.33304
1.33225
1.33146
1.33069
1.32995
1.32922
1.3285
1.32781
1.32713
1.32647
1.32583
1.3252
1.32459
1.32399
1.32342
1.32285
1.32231
1.32177
1.32126
1.32075
1.32026
1.31978
1.31932
1.31887
1.31843
1.31801
1.31759
1.31719
1.3168
1.31642
1.31606
1.3157
1.31536
1.31503
1.31471
1.3144
1.3141
1.31382
1.31354
1.31328
1.31302
1.31278
1.31254
1.31232
1.31211
1.31191
1.31172
1.31154
1.31137
1.31122
1.31107
1.31093
1.31081
1.3107
1.3106
1.31051
1.31044
1.31038
1.31033
1.31032
1.3103
1.31028
1.31033
1.31042
1.31043
1.31051
1.3108
1.31093
1.31091
1.31141
1.312
1.31183
1.31224
1.31366
1.31396
1.31389
1.31549
1.31706
1.3179
1.31924
1.32083
1.34187
1.34024
1.33909
1.33795
1.33693
1.33598
1.33502
1.33415
1.33334
1.33254
1.33176
1.33104
1.33034
1.32966
1.32902
1.32841
1.32782
1.32725
1.32672
1.3262
1.32571
1.32524
1.3248
1.32438
1.32398
1.32361
1.32325
1.32292
1.3226
1.32231
1.32203
1.32178
1.32154
1.32132
1.32111
1.32093
1.32076
1.3206
1.32047
1.32035
1.32024
1.32015
1.32007
1.32001
1.31997
1.31994
1.31992
1.31992
1.31993
1.31996
1.32
1.32006
1.32013
1.32022
1.32033
1.32045
1.32059
1.32074
1.32091
1.3211
1.32131
1.32154
1.32179
1.32206
1.32234
1.32266
1.32299
1.32335
1.32372
1.32413
1.32456
1.32501
1.3255
1.32601
1.32654
1.32711
1.32771
1.32833
1.32898
1.32966
1.33037
1.33111
1.33188
1.33267
1.3335
1.33435
1.33522
1.33612
1.33704
1.33798
1.33894
1.33992
1.34091
1.34191
1.34293
1.34394
1.34497
1.34599
1.34702
1.34804
1.34905
1.35005
1.35104
1.35202
1.35298
1.35391
1.35482
1.35571
1.35656
1.35738
1.35816
1.35891
1.35961
1.36028
1.36091
1.36149
1.36203
1.36253
1.36299
1.36341
1.36379
1.36414
1.36445
1.36473
1.36499
1.36521
1.3654
1.36558
1.36574
1.36587
1.36598
1.36609
1.36617
1.36625
1.36631
1.36637
1.36641
1.36645
1.36648
1.36651
1.36653
1.36655
1.36657
1.36658
1.36659
1.3666
1.36661
1.36661
1.36662
1.36663
1.36663
1.36664
1.36664
1.36665
1.36666
1.36667
1.36667
1.36668
1.36669
1.36671
1.36672
1.36673
1.36674
1.36676
1.36677
1.36679
1.36681
1.36682
1.36684
1.36686
1.36687
1.36689
1.36691
1.36693
1.36695
1.36696
1.36698
1.367
1.36701
1.36703