# vtk DataFile Version 2.0
LBE two cylinders
ASCII
DATASET STRUCTURED_POINTS
DIMENSIONS 400 100 1
ASPECT_RATIO 1 1 1
ORIGIN 0 0 0
POINT_DATA 40000
SCALARS rho double 1
LOOKUP_TABLE default
1.33753
1.3347
1.33497
1.33498
1.33402
1.33349
1.33315
1.33247
1.33183
1.33129
1.33069
1.33007
1.32949
1.32892
1.32834
1.32779
1.32726
1.32673
1.32623
1.32575
1.32528
1.32484
1.32441
1.32401
1.32362
1.32325
1.32291
1.32258
1.32227
1.32198
1.3217
1.32145
1.32121
1.32099
1.32078
1.32059
1.32042
1.32026
1.32012
1.31999
1.31988
1.31978
1.31969
1.31962
1.31956
1.31951
1.31948
1.31947
1.31946
1.31948
1.3195
1.31954
1.3196
1.31967
1.31975
1.31986
1.31997
1.32011
1.32026
1.32044
1.32063
1.32084
1.32107
1.32132
1.3216
1.3219
1.32222
1.32256
1.32293
1.32333
1.32375
1.32421
1.32468
1.32519
1.32572
1.32629
1.32688
1.3275
1.32815
1.32883
1.32954
1.33028
1.33104
1.33183
1.33265
1.33349
1.33435
1.33524
1.33614
1.33707
1.33801
1.33896
1.33992
1.3409
1.34188
1.34286
1.34385
1.34483
1.34582
1.34679
1.34776
1.34871
1.34965
1.35057
1.35148
1.35236
1.35322
1.35405
1.35485
1.35563
1.35637
1.35709
1.35777
1.35841
1.35903
1.35961
1.36015
1.36066
1.36115
1.36159
1.36201
1.3624
1.36276
1.3631
1.3634
1.36369
1.36395
1.36419
1.3644
1.3646
1.36479
1.36496
1.36511
1.36525
1.36537
1.36549
1.36559
1.36569
1.36577
1.36585
1.36593
1.36599
1.36605
1.3661
1.36615
1.3662
1.36624
1.36628
1.36631
1.36634
1.36637
1.3664
1.36643
1.36645
1.36647
1.3665
1.36652
1.36654
1.36656
1.36658
1.36659
1.36661
1.36663
1.36665
1.36667
1.36669
1.36671
1.36672
1.36674
1.36676
1.36678
1.36681
1.36683
1.36685
1.36687
1.36689
1.36691
1.36694
1.36696
1.36698
1.367
1.36703
1.36705
1.36707
1.3671
1.36712
1.36714
1.36717
1.36719
1.36721
1.36724
1.36726
1.36728
1.3673
1.36732
1.36735
1.36737
1.36739
1.36741
1.36743
1.36745
1.36747
1.36749
1.36751
1.36752
1.36754
1.36756
1.36758
1.36759
1.36761
1.36762
1.36764
1.36765
1.36766
1.36768
1.36769
1.3677
1.36771
1.36772
1.36772
1.36773
1.36773
1.36774
1.36774
1.36774
1.36773
1.36773
1.36772
1.36771
1.3677
1.36768
1.36766
1.36764
1.36762
1.36759
1.36755
1.36752
1.36748
1.36743
1.36738
1.36733
1.36727
1.3672
1.36713
1.36706
1.36698
1.36689
1.3668
1.36671
1.36661
1.36651
1.3664
1.36629
1.36617
1.36605
1.36592
1.36579
1.36566
1.36552
1.36538
1.36523
1.36509
1.36493
1.36478
1.36462
1.36446
1.36429
1.36412
1.36394
1.36376
1.36357
1.36338
1.36317
1.36296
1.36274
1.36251
1.36226
1.362
1.36172
1.36143
1.36112
1.36078
1.36043
1.36004
1.35964
1.35921
1.35874
1.35825
1.35773
1.35717
1.35659
1.35597
1.35532
1.35464
1.35393
1.35319
1.35242
1.35162
1.3508
1.34996
1.3491
1.34822
1.34733
1.34642
1.3455
1.34458
1.34365
1.34272
1.34178
1.34085
1.33993
1.339
1.33809
1.33718
1.33629
1.3354
1.33453
1.33368
1.33284
1.33201
1.3312
1.33041
1.32963
1.32888
1.32814
1.32742
1.32672
1.32603
1.32537
1.32472
1.32409
1.32348
1.32288
1.3223
1.32174
1.3212
1.32067
1.32015
1.31965
1.31917
1.3187
1.31824
1.31779
1.31736
1.31694
1.31653
1.31614
1.31575
1.31538
1.31501
1.31466
1.31432
1.31398
1.31366
1.31334
1.31304
1.31274
1.31245
1.31217
1.31189
1.31163
1.31137
1.31113
1.31089
1.31066
1.31043
1.31022
1.31001
1.30981
1.30962
1.30944
1.30927
1.30911
1.30895
1.30881
1.30867
1.30855
1.30844
1.30833
1.30824
1.30817
1.30811
1.30803
1.30799
1.30802
1.30797
1.30787
1.30802
1.30819
1.30786
1.30775
1.3087
1.3086
1.30657
1.30757
1.31148
1.30688
1.29821
1.30878
1.31785
1.3356
1.33572
1.3352
1.33451
1.33419
1.33369
1.33308
1.3325
1.33195
1.33133
1.33072
1.33014
1.32955
1.32896
1.3284
1.32785
1.3273
1.32678
1.32628
1.3258
1.32533
1.32488
1.32446
1.32405
1.32366
1.3233
1.32295
1.32262
1.32231
1.32202
1.32174
1.32149
1.32125
1.32102
1.32082
1.32063
1.32045
1.3203
1.32015
1.32002
1.31991
1.31981
1.31972
1.31965
1.31959
1.31954
1.31951
1.31949
1.31949
1.3195
1.31953
1.31957
1.31962
1.31969
1.31978
1.31988
1.32
1.32013
1.32029
1.32046
1.32065
1.32086
1.32109
1.32134
1.32162
1.32191
1.32223
1.32258
1.32295
1.32334
1.32376
1.32421
1.32469
1.32519
1.32572
1.32629
1.32688
1.3275
1.32814
1.32882
1.32953
1.33026
1.33102
1.33181
1.33262
1.33346
1.33432
1.3352
1.33611
1.33703
1.33796
1.33891
1.33987
1.34085
1.34182
1.34281
1.34379
1.34478
1.34576
1.34673
1.34769
1.34865
1.34959
1.35051
1.35141
1.3523
1.35315
1.35399
1.35479
1.35557
1.35632
1.35703
1.35771
1.35836
1.35898
1.35956
1.36011
1.36062
1.3611
1.36156
1.36198
1.36237
1.36273
1.36307
1.36337
1.36366
1.36392
1.36416
1.36438
1.36458
1.36477
1.36494
1.36509
1.36523
1.36536
1.36547
1.36558
1.36567
1.36576
1.36584
1.36591
1.36598
1.36604
1.36609
1.36614
1.36619
1.36623
1.36626
1.3663
1.36633
1.36636
1.36639
1.36641
1.36644
1.36646
1.36648
1.3665
1.36652
1.36654
1.36656
1.36658
1.3666
1.36661
1.36663
1.36665
1.36667
1.36669
1.36671
1.36673
1.36675
1.36677
1.36679
1.36681
1.36683
1.36685
1.36687
1.36689
1.36692
1.36694
1.36696
1.36698
1.36701
1.36703
1.36705
1.36708
1.3671
1.36712
1.36715
1.36717
1.36719
1.36721
1.36724
1.36726
1.36728
1.3673
1.36732
1.36734
1.36736
1.36738
1.3674
1.36742
1.36744
1.36746
1.36748
1.3675
1.36751
1.36753
1.36755
1.36756
1.36758
1.36759
1.36761
1.36762
1.36763
1.36765
1.36766
1.36767
1.36768
1.36768
1.36769
1.3677
1.3677
1.3677
1.3677
1.3677
1.3677
1.36769
1.36769
1.36768
1.36766
1.36765
1.36763
1.36761
1.36758
1.36755
1.36752
1.36748
1.36744
1.3674
1.36735
1.36729
1.36723
1.36717
1.3671
1.36702
1.36694
1.36686
1.36677
1.36667
1.36658
1.36647
1.36636
1.36625
1.36613
1.36601
1.36588
1.36575
1.36562
1.36548
1.36534
1.36519
1.36504
1.36489
1.36473
1.36457
1.36441
1.36424
1.36407
1.36389
1.36371
1.36351
1.36332
1.36311
1.3629
1.36267
1.36244
1.36219
1.36193
1.36165
1.36135
1.36104
1.3607
1.36034
1.35996
1.35956
1.35912
1.35866
1.35817
1.35765
1.3571
1.35651
1.3559
1.35525
1.35457
1.35387
1.35313
1.35236
1.35157
1.35076
1.34992
1.34907
1.34819
1.3473
1.3464
1.34549
1.34457
1.34365
1.34272
1.34179
1.34087
1.33994
1.33902
1.33811
1.33721
1.33632
1.33544
1.33457
1.33372
1.33288
1.33206
1.33125
1.33046
1.32969
1.32893
1.32819
1.32747
1.32677
1.32609
1.32542
1.32478
1.32415
1.32353
1.32294
1.32236
1.3218
1.32125
1.32072
1.3202
1.3197
1.31922
1.31874
1.31828
1.31784
1.3174
1.31698
1.31657
1.31618
1.31579
1.31541
1.31505
1.31469
1.31435
1.31401
1.31368
1.31337
1.31306
1.31276
1.31247
1.31218
1.31191
1.31164
1.31139
1.31114
1.3109
1.31066
1.31044
1.31022
1.31001
1.30981
1.30962
1.30943
1.30926
1.30909
1.30893
1.30879
1.30865
1.30852
1.3084
1.30829
1.3082
1.3081
1.30803
1.30798
1.30791
1.30785
1.30787
1.30787
1.30774
1.30775
1.30801
1.30784
1.30736
1.3078
1.30849
1.3068
1.30535
1.30802
1.30749
1.29767
1.29224
1.33491
1.3359
1.33515
1.33441
1.33439
1.33381
1.33308
1.33259
1.33204
1.33137
1.33078
1.3302
1.32959
1.329
1.32844
1.32788
1.32734
1.32682
1.32631
1.32583
1.32536
1.32491
1.32449
1.32408
1.32369
1.32332
1.32297
1.32264
1.32233
1.32204
1.32176
1.32151
1.32127
1.32105
1.32084
1.32065
1.32047
1.32032
1.32017
1.32004
1.31993
1.31983
1.31974
1.31967
1.31961
1.31956
1.31953
1.31951
1.31951
1.31952
1.31954
1.31958
1.31964
1.31971
1.31979
1.31989
1.32001
1.32014
1.3203
1.32047
1.32066
1.32086
1.32109
1.32134
1.32162
1.32191
1.32223
1.32257
1.32294
1.32333
1.32375
1.3242
1.32467
1.32517
1.3257
1.32626
1.32685
1.32747
1.32811
1.32879
1.32949
1.33022
1.33098
1.33176
1.33257
1.33341
1.33427
1.33515
1.33605
1.33697
1.3379
1.33885
1.33981
1.34079
1.34176
1.34275
1.34373
1.34472
1.3457
1.34667
1.34764
1.34859
1.34953
1.35046
1.35136
1.35225
1.35311
1.35395
1.35475
1.35553
1.35628
1.357
1.35768
1.35834
1.35895
1.35954
1.36009
1.36061
1.36109
1.36154
1.36196
1.36236
1.36272
1.36306
1.36336
1.36365
1.36391
1.36415
1.36437
1.36457
1.36476
1.36493
1.36508
1.36522
1.36534
1.36546
1.36556
1.36566
1.36574
1.36582
1.36589
1.36596
1.36602
1.36607
1.36612
1.36617
1.36621
1.36624
1.36628
1.36631
1.36634
1.36636
1.36639
1.36641
1.36643
1.36646
1.36648
1.3665
1.36651
1.36653
1.36655
1.36657
1.36659
1.36661
1.36662
1.36664
1.36666
1.36668
1.3667
1.36672
1.36674
1.36676
1.36678
1.3668
1.36682
1.36684
1.36686
1.36688
1.36691
1.36693
1.36695
1.36697
1.36699
1.36702
1.36704
1.36706
1.36709
1.36711
1.36713
1.36715
1.36718
1.3672
1.36722
1.36724
1.36726
1.36728
1.3673
1.36732
1.36734
1.36736
1.36738
1.3674
1.36742
1.36744
1.36745
1.36747
1.36749
1.36751
1.36752
1.36754
1.36755
1.36756
1.36758
1.36759
1.3676
1.36761
1.36762
1.36763
1.36764
1.36765
1.36765
1.36766
1.36766
1.36766
1.36766
1.36765
1.36765
1.36764
1.36763
1.36762
1.3676
1.36759
1.36756
1.36754
1.36751
1.36748
1.36744
1.3674
1.36735
1.3673
1.36725
1.36719
1.36712
1.36706
1.36698
1.3669
1.36682
1.36673
1.36663
1.36654
1.36643
1.36632
1.36621
1.36609
1.36597
1.36584
1.36571
1.36557
1.36544
1.36529
1.36515
1.365
1.36484
1.36469
1.36452
1.36436
1.36419
1.36401
1.36384
1.36365
1.36346
1.36326
1.36305
1.36284
1.36261
1.36238
1.36213
1.36186
1.36158
1.36129
1.36097
1.36064
1.36028
1.3599
1.35949
1.35906
1.3586
1.35811
1.35759
1.35704
1.35646
1.35584
1.3552
1.35452
1.35382
1.35308
1.35232
1.35153
1.35072
1.34989
1.34904
1.34816
1.34728
1.34638
1.34547
1.34456
1.34364
1.34271
1.34179
1.34086
1.33994
1.33903
1.33812
1.33722
1.33633
1.33546
1.33459
1.33374
1.3329
1.33208
1.33128
1.33049
1.32972
1.32896
1.32823
1.32751
1.32681
1.32613
1.32546
1.32482
1.32419
1.32358
1.32298
1.3224
1.32184
1.32129
1.32076
1.32024
1.31974
1.31925
1.31878
1.31832
1.31787
1.31744
1.31702
1.31661
1.31621
1.31582
1.31544
1.31508
1.31472
1.31437
1.31404
1.31371
1.31339
1.31308
1.31278
1.31249
1.3122
1.31193
1.31166
1.3114
1.31115
1.3109
1.31067
1.31044
1.31022
1.31001
1.30981
1.30961
1.30943
1.30925
1.30908
1.30892
1.30877
1.30863
1.3085
1.30837
1.30826
1.30816
1.30806
1.30796
1.30791
1.30787
1.30775
1.3077
1.30781
1.30773
1.30743
1.30768
1.30807
1.30722
1.30665
1.30852
1.30819
1.30344
1.30545
1.31229
1.29997
1.28786
1.33534
1.33539
1.33524
1.33498
1.33444
1.33377
1.33329
1.33271
1.33204
1.33144
1.33085
1.33022
1.32962
1.32904
1.32846
1.3279
1.32736
1.32683
1.32632
1.32583
1.32537
1.32492
1.32449
1.32408
1.32369
1.32332
1.32297
1.32265
1.32233
1.32204
1.32177
1.32151
1.32127
1.32105
1.32084
1.32065
1.32048
1.32032
1.32018
1.32005
1.31993
1.31983
1.31974
1.31967
1.31961
1.31957
1.31954
1.31952
1.31951
1.31952
1.31955
1.31959
1.31964
1.31971
1.31979
1.31989
1.32001
1.32014
1.32029
1.32046
1.32065
1.32085
1.32108
1.32133
1.3216
1.32189
1.32221
1.32255
1.32291
1.3233
1.32372
1.32416
1.32463
1.32513
1.32565
1.32621
1.32679
1.32741
1.32805
1.32872
1.32942
1.33015
1.33091
1.33169
1.3325
1.33333
1.33419
1.33507
1.33597
1.33689
1.33783
1.33878
1.33974
1.34071
1.34169
1.34267
1.34366
1.34465
1.34563
1.34661
1.34758
1.34854
1.34948
1.35041
1.35132
1.35221
1.35308
1.35392
1.35473
1.35552
1.35627
1.35699
1.35768
1.35833
1.35895
1.35954
1.36009
1.36061
1.3611
1.36155
1.36197
1.36236
1.36273
1.36306
1.36337
1.36365
1.36392
1.36415
1.36437
1.36457
1.36475
1.36492
1.36507
1.36521
1.36533
1.36545
1.36555
1.36564
1.36573
1.36581
1.36587
1.36594
1.36599
1.36605
1.36609
1.36614
1.36618
1.36621
1.36625
1.36628
1.36631
1.36633
1.36636
1.36638
1.3664
1.36642
1.36644
1.36646
1.36648
1.3665
1.36651
1.36653
1.36655
1.36657
1.36658
1.3666
1.36662
1.36664
1.36666
1.36668
1.36669
1.36671
1.36673
1.36676
1.36677
1.3668
1.36682
1.36684
1.36686
1.36688
1.3669
1.36693
1.36695
1.36697
1.36699
1.36702
1.36704
1.36706
1.36708
1.3671
1.36712
1.36715
1.36717
1.36719
1.36721
1.36723
1.36725
1.36727
1.36729
1.36731
1.36733
1.36735
1.36736
1.36738
1.3674
1.36742
1.36743
1.36745
1.36746
1.36748
1.36749
1.36751
1.36752
1.36753
1.36754
1.36755
1.36756
1.36757
1.36758
1.36759
1.36759
1.3676
1.3676
1.3676
1.3676
1.3676
1.36759
1.36758
1.36757
1.36756
1.36755
1.36753
1.36751
1.36748
1.36745
1.36742
1.36739
1.36735
1.3673
1.36725
1.3672
1.36714
1.36707
1.36701
1.36693
1.36685
1.36677
1.36668
1.36659
1.36649
1.36638
1.36628
1.36616
1.36604
1.36592
1.36579
1.36566
1.36553
1.36539
1.36525
1.3651
1.36495
1.36479
1.36464
1.36448
1.36431
1.36414
1.36396
1.36378
1.3636
1.36341
1.36321
1.363
1.36278
1.36256
1.36232
1.36207
1.36181
1.36153
1.36123
1.36092
1.36058
1.36022
1.35984
1.35943
1.359
1.35854
1.35805
1.35753
1.35698
1.3564
1.35578
1.35514
1.35446
1.35376
1.35302
1.35226
1.35147
1.35066
1.34983
1.34898
1.34811
1.34722
1.34633
1.34542
1.34451
1.34359
1.34267
1.34174
1.34082
1.33991
1.33899
1.33809
1.33719
1.33631
1.33543
1.33457
1.33372
1.33289
1.33207
1.33127
1.33049
1.32972
1.32897
1.32824
1.32752
1.32682
1.32614
1.32548
1.32484
1.32421
1.3236
1.323
1.32243
1.32187
1.32132
1.32079
1.32027
1.31977
1.31929
1.31881
1.31835
1.31791
1.31747
1.31705
1.31664
1.31624
1.31585
1.31547
1.31511
1.31475
1.3144
1.31406
1.31373
1.31342
1.3131
1.3128
1.31251
1.31222
1.31195
1.31168
1.31142
1.31117
1.31092
1.31068
1.31046
1.31024
1.31002
1.30982
1.30962
1.30944
1.30926
1.30909
1.30892
1.30877
1.30862
1.30849
1.30837
1.30825
1.30813
1.30805
1.30797
1.30786
1.30781
1.30782
1.3077
1.30757
1.30774
1.30781
1.30732
1.30734
1.30823
1.30763
1.30596
1.30761
1.30928
1.30458
1.30254
1.30791
1.30856
1.33612
1.33579
1.33562
1.33525
1.3345
1.33394
1.33347
1.33275
1.33209
1.33152
1.33087
1.33023
1.32964
1.32904
1.32845
1.32789
1.32734
1.32681
1.3263
1.32581
1.32534
1.32489
1.32446
1.32406
1.32367
1.3233
1.32295
1.32262
1.32231
1.32202
1.32175
1.32149
1.32125
1.32103
1.32083
1.32064
1.32047
1.32031
1.32017
1.32004
1.31992
1.31982
1.31974
1.31966
1.3196
1.31956
1.31953
1.31951
1.31951
1.31952
1.31954
1.31958
1.31963
1.3197
1.31978
1.31988
1.31999
1.32012
1.32027
1.32044
1.32062
1.32083
1.32105
1.3213
1.32156
1.32185
1.32216
1.3225
1.32286
1.32325
1.32366
1.3241
1.32456
1.32506
1.32558
1.32613
1.32671
1.32733
1.32796
1.32863
1.32933
1.33006
1.33081
1.33159
1.3324
1.33323
1.33409
1.33497
1.33587
1.33679
1.33772
1.33868
1.33964
1.34062
1.3416
1.34259
1.34358
1.34457
1.34556
1.34654
1.34752
1.34848
1.34943
1.35037
1.35129
1.35218
1.35305
1.3539
1.35472
1.35551
1.35627
1.35699
1.35769
1.35835
1.35897
1.35956
1.36011
1.36063
1.36112
1.36157
1.36199
1.36239
1.36275
1.36308
1.36339
1.36367
1.36393
1.36417
1.36438
1.36458
1.36476
1.36492
1.36507
1.3652
1.36532
1.36543
1.36553
1.36563
1.36571
1.36578
1.36585
1.36591
1.36597
1.36602
1.36606
1.36611
1.36614
1.36618
1.36621
1.36624
1.36627
1.36629
1.36631
1.36634
1.36636
1.36638
1.3664
1.36642
1.36643
1.36645
1.36647
1.36648
1.3665
1.36652
1.36653
1.36655
1.36657
1.36659
1.3666
1.36662
1.36664
1.36666
1.36668
1.3667
1.36672
1.36674
1.36676
1.36678
1.3668
1.36682
1.36684
1.36687
1.36689
1.36691
1.36693
1.36695
1.36697
1.367
1.36702
1.36704
1.36706
1.36708
1.3671
1.36712
1.36714
1.36716
1.36718
1.3672
1.36722
1.36724
1.36726
1.36728
1.36729
1.36731
1.36733
1.36735
1.36736
1.36738
1.36739
1.36741
1.36742
1.36743
1.36745
1.36746
1.36747
1.36748
1.36749
1.3675
1.36751
1.36751
1.36752
1.36752
1.36753
1.36753
1.36753
1.36753
1.36752
1.36751
1.3675
1.36749
1.36748
1.36746
1.36744
1.36742
1.36739
1.36736
1.36732
1.36728
1.36724
1.36719
1.36714
1.36708
1.36702
1.36695
1.36687
1.3668
1.36671
1.36663
1.36653
1.36643
1.36633
1.36622
1.36611
1.36599
1.36587
1.36574
1.36561
1.36548
1.36534
1.3652
1.36505
1.3649
1.36475
1.36459
1.36443
1.36426
1.36409
1.36392
1.36374
1.36355
1.36336
1.36316
1.36295
1.36274
1.36251
1.36227
1.36202
1.36176
1.36148
1.36118
1.36087
1.36053
1.36017
1.35979
1.35938
1.35894
1.35848
1.35799
1.35746
1.35691
1.35632
1.35571
1.35506
1.35438
1.35367
1.35293
1.35217
1.35138
1.35056
1.34973
1.34887
1.348
1.34712
1.34622
1.34532
1.3444
1.34349
1.34257
1.34165
1.34073
1.33981
1.3389
1.338
1.33711
1.33623
1.33536
1.3345
1.33366
1.33283
1.33202
1.33122
1.33044
1.32968
1.32893
1.3282
1.32749
1.3268
1.32612
1.32547
1.32483
1.3242
1.3236
1.32301
1.32243
1.32188
1.32133
1.32081
1.32029
1.3198
1.31931
1.31884
1.31838
1.31794
1.3175
1.31708
1.31667
1.31627
1.31589
1.31551
1.31514
1.31479
1.31444
1.3141
1.31377
1.31345
1.31314
1.31284
1.31255
1.31226
1.31198
1.31172
1.31145
1.3112
1.31096
1.31072
1.31049
1.31027
1.31006
1.30986
1.30966
1.30947
1.30929
1.30912
1.30896
1.30881
1.30866
1.30852
1.3084
1.30829
1.30818
1.30808
1.30802
1.30794
1.30783
1.30783
1.30787
1.30771
1.30762
1.30795
1.30792
1.3073
1.30779
1.3088
1.30728
1.30636
1.30975
1.30908
1.30418
1.30752
1.31005
1.33701
1.33658
1.33602
1.33536
1.33481
1.33422
1.3335
1.3328
1.3322
1.33153
1.33085
1.33024
1.32962
1.329
1.32841
1.32785
1.32729
1.32676
1.32625
1.32576
1.32528
1.32484
1.32441
1.324
1.32361
1.32325
1.3229
1.32257
1.32227
1.32198
1.32171
1.32145
1.32122
1.321
1.32079
1.32061
1.32044
1.32028
1.32014
1.32001
1.3199
1.3198
1.31971
1.31964
1.31958
1.31954
1.31951
1.31949
1.31948
1.31949
1.31952
1.31955
1.3196
1.31967
1.31975
1.31985
1.31996
1.32009
1.32024
1.3204
1.32058
1.32078
1.321
1.32125
1.32151
1.32179
1.3221
1.32243
1.32279
1.32317
1.32358
1.32401
1.32448
1.32497
1.32548
1.32603
1.32661
1.32721
1.32785
1.32852
1.32921
1.32993
1.33069
1.33147
1.33227
1.3331
1.33396
1.33484
1.33574
1.33666
1.3376
1.33856
1.33952
1.3405
1.34149
1.34248
1.34348
1.34448
1.34547
1.34646
1.34744
1.34842
1.34938
1.35032
1.35124
1.35215
1.35303
1.35388
1.35471
1.35551
1.35627
1.35701
1.3577
1.35837
1.359
1.35959
1.36015
1.36067
1.36115
1.36161
1.36203
1.36242
1.36278
1.36311
1.36342
1.36369
1.36395
1.36418
1.36439
1.36459
1.36476
1.36492
1.36507
1.3652
1.36532
1.36542
1.36552
1.36561
1.36569
1.36576
1.36582
1.36588
1.36593
1.36598
1.36603
1.36607
1.3661
1.36614
1.36617
1.36619
1.36622
1.36624
1.36627
1.36629
1.36631
1.36633
1.36634
1.36636
1.36638
1.36639
1.36641
1.36643
1.36644
1.36646
1.36647
1.36649
1.36651
1.36653
1.36654
1.36656
1.36658
1.3666
1.36661
1.36663
1.36665
1.36667
1.36669
1.36671
1.36673
1.36675
1.36677
1.3668
1.36682
1.36684
1.36686
1.36688
1.3669
1.36692
1.36694
1.36696
1.36698
1.367
1.36702
1.36704
1.36706
1.36708
1.3671
1.36712
1.36714
1.36716
1.36718
1.36719
1.36721
1.36723
1.36724
1.36726
1.36728
1.36729
1.36731
1.36732
1.36733
1.36735
1.36736
1.36737
1.36738
1.3674
1.3674
1.36741
1.36742
1.36743
1.36744
1.36744
1.36744
1.36744
1.36744
1.36744
1.36744
1.36743
1.36742
1.36741
1.3674
1.36738
1.36736
1.36734
1.36731
1.36728
1.36725
1.36721
1.36717
1.36712
1.36707
1.36701
1.36695
1.36688
1.36681
1.36673
1.36665
1.36656
1.36647
1.36637
1.36627
1.36616
1.36605
1.36593
1.36581
1.36569
1.36556
1.36542
1.36529
1.36514
1.365
1.36485
1.3647
1.36454
1.36438
1.36422
1.36405
1.36387
1.36369
1.36351
1.36332
1.36312
1.36291
1.3627
1.36247
1.36223
1.36198
1.36171
1.36143
1.36114
1.36082
1.36048
1.36012
1.35973
1.35932
1.35888
1.35841
1.35791
1.35738
1.35682
1.35623
1.35561
1.35495
1.35426
1.35355
1.3528
1.35203
1.35124
1.35042
1.34958
1.34872
1.34785
1.34696
1.34606
1.34516
1.34424
1.34333
1.34241
1.34149
1.34057
1.33966
1.33875
1.33785
1.33696
1.33609
1.33522
1.33437
1.33353
1.33271
1.3319
1.33111
1.33034
1.32958
1.32884
1.32813
1.32742
1.32674
1.32607
1.32542
1.32478
1.32417
1.32357
1.32299
1.32242
1.32187
1.32133
1.32081
1.3203
1.31981
1.31933
1.31886
1.31841
1.31797
1.31754
1.31712
1.31671
1.31632
1.31593
1.31556
1.31519
1.31484
1.31449
1.31416
1.31383
1.31351
1.3132
1.3129
1.31261
1.31232
1.31205
1.31178
1.31152
1.31127
1.31102
1.31079
1.31056
1.31034
1.31013
1.30992
1.30973
1.30954
1.30937
1.3092
1.30904
1.30889
1.30875
1.30862
1.30849
1.30839
1.3083
1.3082
1.30811
1.3081
1.30805
1.30793
1.30796
1.30814
1.30796
1.30778
1.30836
1.30858
1.30764
1.30812
1.30996
1.30859
1.30691
1.31022
1.31205
1.30906
1.30875
1.33805
1.33723
1.33649
1.33573
1.3351
1.33435
1.33356
1.33292
1.33223
1.3315
1.33084
1.33021
1.32955
1.32893
1.32834
1.32776
1.3272
1.32667
1.32616
1.32566
1.32519
1.32475
1.32432
1.32391
1.32353
1.32317
1.32282
1.3225
1.32219
1.32191
1.32164
1.32139
1.32116
1.32094
1.32074
1.32056
1.32039
1.32023
1.3201
1.31997
1.31986
1.31976
1.31968
1.31961
1.31955
1.31951
1.31947
1.31946
1.31945
1.31946
1.31948
1.31952
1.31957
1.31963
1.31971
1.31981
1.31992
1.32004
1.32019
1.32035
1.32053
1.32072
1.32094
1.32118
1.32144
1.32172
1.32202
1.32235
1.3227
1.32308
1.32348
1.32391
1.32437
1.32485
1.32536
1.32591
1.32648
1.32708
1.32771
1.32837
1.32906
1.32978
1.33053
1.33131
1.33211
1.33295
1.3338
1.33468
1.33558
1.33651
1.33745
1.33841
1.33938
1.34036
1.34135
1.34235
1.34336
1.34436
1.34536
1.34636
1.34735
1.34834
1.3493
1.35026
1.35119
1.35211
1.353
1.35386
1.3547
1.35551
1.35628
1.35702
1.35773
1.3584
1.35903
1.35963
1.36019
1.36071
1.3612
1.36165
1.36207
1.36246
1.36282
1.36315
1.36345
1.36373
1.36397
1.3642
1.36441
1.3646
1.36477
1.36493
1.36507
1.36519
1.3653
1.36541
1.3655
1.36559
1.36566
1.36573
1.36579
1.36585
1.3659
1.36594
1.36598
1.36602
1.36606
1.36609
1.36611
1.36614
1.36616
1.36619
1.36621
1.36623
1.36625
1.36627
1.36628
1.3663
1.36631
1.36633
1.36634
1.36636
1.36637
1.36639
1.36641
1.36642
1.36644
1.36645
1.36647
1.36649
1.3665
1.36652
1.36654
1.36656
1.36658
1.3666
1.36661
1.36663
1.36665
1.36667
1.36669
1.36671
1.36673
1.36675
1.36677
1.3668
1.36681
1.36684
1.36685
1.36688
1.36689
1.36692
1.36693
1.36696
1.36697
1.36699
1.36701
1.36703
1.36705
1.36707
1.36708
1.3671
1.36712
1.36713
1.36715
1.36717
1.36718
1.3672
1.36721
1.36722
1.36724
1.36725
1.36726
1.36728
1.36729
1.3673
1.36731
1.36732
1.36733
1.36733
1.36734
1.36734
1.36735
1.36735
1.36735
1.36735
1.36735
1.36734
1.36733
1.36732
1.36731
1.36729
1.36727
1.36725
1.36723
1.3672
1.36716
1.36713
1.36708
1.36704
1.36699
1.36693
1.36687
1.3668
1.36673
1.36666
1.36658
1.36649
1.3664
1.3663
1.3662
1.3661
1.36599
1.36587
1.36575
1.36563
1.3655
1.36537
1.36523
1.36509
1.36495
1.3648
1.36465
1.36449
1.36433
1.36417
1.364
1.36383
1.36365
1.36347
1.36328
1.36308
1.36288
1.36266
1.36243
1.3622
1.36194
1.36168
1.3614
1.36109
1.36077
1.36043
1.36007
1.35967
1.35926
1.35881
1.35833
1.35783
1.35729
1.35672
1.35612
1.35548
1.35482
1.35412
1.3534
1.35264
1.35186
1.35106
1.35023
1.34939
1.34853
1.34765
1.34675
1.34585
1.34494
1.34403
1.34311
1.34219
1.34127
1.34035
1.33944
1.33854
1.33764
1.33676
1.33588
1.33502
1.33418
1.33334
1.33253
1.33173
1.33095
1.33018
1.32944
1.32871
1.328
1.3273
1.32663
1.32597
1.32533
1.32471
1.3241
1.32351
1.32294
1.32238
1.32184
1.32131
1.3208
1.3203
1.31981
1.31934
1.31888
1.31843
1.318
1.31757
1.31716
1.31676
1.31637
1.31599
1.31562
1.31526
1.31491
1.31456
1.31423
1.31391
1.31359
1.31328
1.31299
1.31269
1.31241
1.31214
1.31187
1.31161
1.31137
1.31112
1.31089
1.31066
1.31045
1.31024
1.31004
1.30985
1.30966
1.30949
1.30933
1.30917
1.30903
1.30889
1.30877
1.30866
1.30855
1.30847
1.30842
1.30833
1.30828
1.30832
1.30831
1.30821
1.30834
1.30861
1.30841
1.30838
1.30922
1.30931
1.3085
1.30974
1.31124
1.30987
1.3101
1.31265
1.31294
1.3136
1.33907
1.33782
1.33699
1.33616
1.33528
1.33445
1.33371
1.33296
1.33217
1.33147
1.3308
1.3301
1.32944
1.32883
1.32822
1.32763
1.32708
1.32654
1.32602
1.32553
1.32507
1.32462
1.3242
1.3238
1.32342
1.32306
1.32272
1.3224
1.3221
1.32182
1.32155
1.32131
1.32108
1.32087
1.32067
1.32049
1.32032
1.32017
1.32004
1.31991
1.31981
1.31971
1.31963
1.31956
1.3195
1.31946
1.31943
1.31941
1.31941
1.31942
1.31944
1.31947
1.31952
1.31959
1.31966
1.31976
1.31986
1.31999
1.32013
1.32028
1.32046
1.32065
1.32087
1.3211
1.32135
1.32163
1.32192
1.32225
1.32259
1.32296
1.32336
1.32379
1.32423
1.32471
1.32522
1.32576
1.32632
1.32692
1.32755
1.3282
1.32889
1.32961
1.33035
1.33113
1.33193
1.33276
1.33361
1.3345
1.3354
1.33632
1.33727
1.33823
1.3392
1.34019
1.34119
1.3422
1.34321
1.34422
1.34523
1.34624
1.34724
1.34824
1.34922
1.35018
1.35113
1.35206
1.35296
1.35384
1.35468
1.3555
1.35628
1.35704
1.35775
1.35843
1.35907
1.35967
1.36023
1.36076
1.36125
1.36171
1.36212
1.36251
1.36287
1.36319
1.36349
1.36376
1.36401
1.36423
1.36443
1.36462
1.36478
1.36493
1.36506
1.36519
1.36529
1.36539
1.36548
1.36556
1.36563
1.3657
1.36576
1.36581
1.36585
1.3659
1.36594
1.36597
1.366
1.36603
1.36606
1.36608
1.3661
1.36613
1.36614
1.36616
1.36618
1.3662
1.36621
1.36623
1.36624
1.36626
1.36627
1.36629
1.3663
1.36632
1.36633
1.36635
1.36636
1.36638
1.36639
1.36641
1.36642
1.36644
1.36646
1.36647
1.36649
1.36651
1.36653
1.36655
1.36656
1.36658
1.3666
1.36662
1.36664
1.36666
1.36668
1.3667
1.36672
1.36674
1.36676
1.36678
1.3668
1.36682
1.36684
1.36686
1.36687
1.36689
1.36691
1.36693
1.36694
1.36696
1.36698
1.367
1.36701
1.36703
1.36704
1.36706
1.36707
1.36709
1.3671
1.36712
1.36713
1.36714
1.36716
1.36717
1.36718
1.36719
1.3672
1.36721
1.36722
1.36723
1.36723
1.36724
1.36724
1.36725
1.36725
1.36725
1.36724
1.36724
1.36723
1.36722
1.36721
1.3672
1.36718
1.36716
1.36713
1.3671
1.36707
1.36703
1.36699
1.36695
1.3669
1.36684
1.36678
1.36672
1.36665
1.36658
1.3665
1.36641
1.36632
1.36623
1.36613
1.36602
1.36592
1.3658
1.36568
1.36556
1.36544
1.36531
1.36517
1.36503
1.36489
1.36475
1.3646
1.36445
1.36429
1.36413
1.36396
1.36379
1.36362
1.36343
1.36325
1.36305
1.36284
1.36263
1.36241
1.36216
1.36191
1.36165
1.36136
1.36106
1.36073
1.36039
1.36001
1.35962
1.35919
1.35874
1.35825
1.35773
1.35718
1.3566
1.35599
1.35534
1.35466
1.35395
1.35321
1.35245
1.35166
1.35084
1.35001
1.34915
1.34828
1.34739
1.3465
1.34559
1.34468
1.34376
1.34284
1.34192
1.341
1.34008
1.33917
1.33827
1.33738
1.3365
1.33563
1.33477
1.33393
1.3331
1.3323
1.33151
1.33073
1.32998
1.32924
1.32852
1.32782
1.32714
1.32648
1.32583
1.3252
1.32459
1.324
1.32342
1.32286
1.32232
1.32179
1.32127
1.32077
1.32028
1.31981
1.31934
1.31889
1.31846
1.31803
1.31762
1.31721
1.31682
1.31643
1.31606
1.3157
1.31534
1.315
1.31466
1.31433
1.31401
1.3137
1.3134
1.3131
1.31282
1.31254
1.31227
1.312
1.31175
1.3115
1.31127
1.31104
1.31081
1.3106
1.3104
1.3102
1.31001
1.30984
1.30967
1.30951
1.30936
1.30923
1.3091
1.30899
1.3089
1.30881
1.30872
1.30868
1.30868
1.30862
1.3086
1.30874
1.30879
1.30868
1.30895
1.30942
1.30919
1.30921
1.31048
1.31074
1.30987
1.31134
1.31347
1.31292
1.31294
1.31576
1.31782
1.3399
1.33841
1.33742
1.33642
1.33544
1.33458
1.33375
1.33291
1.33212
1.33141
1.33067
1.32996
1.32931
1.32867
1.32805
1.32747
1.32691
1.32637
1.32586
1.32537
1.32491
1.32446
1.32405
1.32365
1.32328
1.32292
1.32259
1.32227
1.32198
1.3217
1.32145
1.32121
1.32098
1.32078
1.32058
1.32041
1.32025
1.3201
1.31997
1.31985
1.31974
1.31965
1.31957
1.3195
1.31945
1.31941
1.31938
1.31936
1.31936
1.31936
1.31938
1.31942
1.31947
1.31953
1.3196
1.31969
1.3198
1.31992
1.32006
1.32021
1.32038
1.32057
1.32078
1.32101
1.32125
1.32152
1.32181
1.32213
1.32247
1.32283
1.32323
1.32364
1.32408
1.32456
1.32506
1.32558
1.32614
1.32674
1.32735
1.328
1.32869
1.3294
1.33014
1.33091
1.33171
1.33254
1.3334
1.33428
1.33518
1.33611
1.33705
1.33802
1.339
1.33999
1.341
1.34201
1.34303
1.34405
1.34508
1.34609
1.34711
1.34811
1.34911
1.35008
1.35104
1.35199
1.3529
1.35379
1.35466
1.35549
1.35628
1.35705
1.35777
1.35846
1.3591
1.35971
1.36028
1.36081
1.3613
1.36176
1.36218
1.36256
1.36291
1.36324
1.36353
1.3638
1.36404
1.36426
1.36445
1.36463
1.36479
1.36494
1.36506
1.36518
1.36529
1.36538
1.36546
1.36554
1.3656
1.36566
1.36572
1.36577
1.36581
1.36585
1.36589
1.36592
1.36595
1.36597
1.366
1.36602
1.36604
1.36606
1.36608
1.36609
1.36611
1.36612
1.36614
1.36615
1.36617
1.36618
1.36619
1.36621
1.36622
1.36623
1.36625
1.36626
1.36627
1.36629
1.3663
1.36632
1.36633
1.36635
1.36636
1.36638
1.3664
1.36641
1.36643
1.36645
1.36647
1.36649
1.3665
1.36652
1.36654
1.36656
1.36658
1.3666
1.36661
1.36663
1.36665
1.36667
1.36669
1.36671
1.36673
1.36675
1.36676
1.36678
1.3668
1.36682
1.36683
1.36685
1.36687
1.36688
1.3669
1.36691
1.36693
1.36694
1.36696
1.36697
1.36699
1.367
1.36701
1.36703
1.36704
1.36705
1.36706
1.36708
1.36709
1.3671
1.3671
1.36711
1.36712
1.36713
1.36713
1.36713
1.36713
1.36714
1.36713
1.36713
1.36712
1.36712
1.3671
1.36709
1.36707
1.36705
1.36703
1.367
1.36697
1.36694
1.3669
1.36685
1.3668
1.36675
1.36669
1.36663
1.36656
1.36649
1.36641
1.36633
1.36624
1.36615
1.36605
1.36595
1.36584
1.36573
1.36561
1.36549
1.36537
1.36524
1.36511
1.36497
1.36484
1.36469
1.36455
1.3644
1.36424
1.36408
1.36392
1.36375
1.36358
1.3634
1.36322
1.36302
1.36282
1.36261
1.36238
1.36214
1.36189
1.36162
1.36133
1.36103
1.3607
1.36034
1.35996
1.35956
1.35912
1.35866
1.35816
1.35763
1.35707
1.35647
1.35584
1.35518
1.35448
1.35376
1.353
1.35222
1.35142
1.35059
1.34974
1.34888
1.34799
1.3471
1.3462
1.34528
1.34437
1.34345
1.34252
1.3416
1.34068
1.33976
1.33885
1.33795
1.33706
1.33618
1.33532
1.33447
1.33363
1.33282
1.33202
1.33123
1.33047
1.32972
1.329
1.32829
1.32761
1.32693
1.32629
1.32566
1.32504
1.32445
1.32387
1.3233
1.32276
1.32223
1.32171
1.32121
1.32072
1.32025
1.31979
1.31934
1.3189
1.31847
1.31806
1.31766
1.31726
1.31688
1.31651
1.31614
1.31579
1.31544
1.3151
1.31477
1.31445
1.31414
1.31383
1.31354
1.31325
1.31297
1.3127
1.31243
1.31217
1.31192
1.31168
1.31145
1.31122
1.31101
1.3108
1.3106
1.31041
1.31023
1.31006
1.3099
1.30975
1.30961
1.30949
1.30938
1.30928
1.30919
1.30914
1.30908
1.30903
1.30904
1.30909
1.30907
1.30911
1.30937
1.30948
1.30943
1.30991
1.31048
1.31029
1.31068
1.31208
1.31237
1.3123
1.31389
1.31545
1.31629
1.31763
1.31923
1.34049
1.33886
1.33772
1.33658
1.33557
1.33463
1.33368
1.33283
1.33204
1.33125
1.33049
1.32979
1.32912
1.32846
1.32785
1.32726
1.3267
1.32616
1.32566
1.32517
1.32471
1.32428
1.32387
1.32348
1.32311
1.32276
1.32244
1.32213
1.32184
1.32157
1.32132
1.32109
1.32087
1.32067
1.32048
1.32031
1.32016
1.32001
1.31989
1.31977
1.31967
1.31958
1.3195
1.31944
1.31938
1.31934
1.31931
1.3193
1.31929
1.3193
1.31932
1.31936
1.3194
1.31946
1.31954
1.31962
1.31973
1.31984
1.31998
1.32012
1.32029
1.32047
1.32068
1.3209
1.32114
1.3214
1.32169
1.322
1.32233
1.32269
1.32307
1.32347
1.32391
1.32438
1.32487
1.32539
1.32595
1.32652
1.32714
1.32778
1.32846
1.32916
1.3299
1.33067
1.33146
1.33229
1.33314
1.33402
1.33493
1.33586
1.33681
1.33778
1.33876
1.33976
1.34077
1.34179
1.34282
1.34385
1.34488
1.34591
1.34694
1.34796
1.34897
1.34996
1.35094
1.35189
1.35283
1.35374
1.35461
1.35546
1.35627
1.35705
1.35778
1.35848
1.35914
1.35976
1.36033
1.36087
1.36136
1.36182
1.36223
1.36262
1.36297
1.36328
1.36358
1.36384
1.36407
1.36428
1.36448
1.36465
1.3648
1.36494
1.36506
1.36517
1.36527
1.36536
1.36544
1.36551
1.36557
1.36563
1.36568
1.36572
1.36576
1.3658
1.36583
1.36586
1.36589
1.36591
1.36593
1.36595
1.36597
1.36599
1.366
1.36602
1.36603
1.36605
1.36606
1.36607
1.36608
1.3661
1.36611
1.36612
1.36613
1.36615
1.36616
1.36617
1.36618
1.3662
1.36621
1.36622
1.36624
1.36625
1.36627
1.36628
1.3663
1.36631
1.36633
1.36635
1.36636