# vtk DataFile Version 2.0
LBE two cylinders
ASCII
DATASET STRUCTURED_POINTS
DIMENSIONS 400 100 1
ASPECT_RATIO 1 1 1
ORIGIN 0 0 0
POINT_DATA 40000
SCALARS rho double 1
LOOKUP_TABLE default
1.33858
1.33585
1.33612
1.33613
1.3352
1.33467
1.33433
1.33364
1.33301
1.33246
1.33185
1.33122
1.33063
1.33004
1.32945
1.32888
1.32833
1.32779
1.32727
1.32677
1.32629
1.32582
1.32538
1.32495
1.32454
1.32416
1.32379
1.32344
1.32311
1.3228
1.32251
1.32224
1.32198
1.32174
1.32152
1.32132
1.32113
1.32096
1.32081
1.32067
1.32055
1.32045
1.32036
1.32029
1.32023
1.32019
1.32016
1.32015
1.32016
1.32018
1.32022
1.32028
1.32035
1.32044
1.32055
1.32067
1.32082
1.32098
1.32116
1.32136
1.32158
1.32182
1.32209
1.32237
1.32268
1.32301
1.32336
1.32374
1.32415
1.32457
1.32503
1.32551
1.32602
1.32655
1.32712
1.32771
1.32833
1.32897
1.32965
1.33035
1.33108
1.33183
1.33261
1.33342
1.33424
1.3351
1.33597
1.33686
1.33777
1.3387
1.33964
1.3406
1.34156
1.34253
1.34351
1.34449
1.34547
1.34644
1.34741
1.34838
1.34933
1.35027
1.35119
1.35209
1.35297
1.35383
1.35467
1.35547
1.35625
1.357
1.35771
1.35839
1.35904
1.35965
1.36023
1.36077
1.36128
1.36176
1.3622
1.36261
1.36299
1.36333
1.36365
1.36394
1.36421
1.36445
1.36466
1.36486
1.36503
1.36519
1.36533
1.36545
1.36556
1.36566
1.36574
1.36581
1.36588
1.36593
1.36598
1.36602
1.36605
1.36608
1.3661
1.36612
1.36614
1.36615
1.36616
1.36617
1.36617
1.36617
1.36618
1.36618
1.36618
1.36618
1.36618
1.36618
1.36618
1.36617
1.36617
1.36617
1.36617
1.36617
1.36617
1.36616
1.36616
1.36616
1.36616
1.36616
1.36616
1.36616
1.36616
1.36616
1.36616
1.36616
1.36616
1.36617
1.36617
1.36617
1.36617
1.36617
1.36618
1.36618
1.36618
1.36619
1.36619
1.3662
1.3662
1.36621
1.36621
1.36622
1.36622
1.36623
1.36624
1.36624
1.36625
1.36626
1.36627
1.36628
1.36629
1.3663
1.36631
1.36632
1.36633
1.36635
1.36636
1.36638
1.36639
1.36641
1.36643
1.36644
1.36646
1.36648
1.3665
1.36652
1.36654
1.36657
1.36659
1.36661
1.36663
1.36666
1.36668
1.3667
1.36673
1.36675
1.36677
1.36679
1.36681
1.36683
1.36685
1.36687
1.36688
1.3669
1.36691
1.36691
1.36692
1.36692
1.36692
1.36691
1.3669
1.36688
1.36686
1.36684
1.36681
1.36678
1.36674
1.36669
1.36664
1.36659
1.36653
1.36646
1.36639
1.36631
1.36623
1.36614
1.36605
1.36595
1.36585
1.36574
1.36563
1.36552
1.3654
1.36528
1.36515
1.36503
1.36489
1.36476
1.36462
1.36447
1.36432
1.36416
1.364
1.36383
1.36366
1.36347
1.36327
1.36307
1.36285
1.36261
1.36236
1.36209
1.3618
1.3615
1.36116
1.36081
1.36042
1.36001
1.35957
1.3591
1.3586
1.35807
1.35751
1.35691
1.35628
1.35562
1.35493
1.3542
1.35345
1.35268
1.35188
1.35105
1.35021
1.34935
1.34847
1.34758
1.34668
1.34577
1.34485
1.34393
1.34301
1.34209
1.34117
1.34025
1.33934
1.33844
1.33754
1.33666
1.33579
1.33492
1.33408
1.33324
1.33242
1.33162
1.33083
1.33006
1.3293
1.32856
1.32784
1.32713
1.32644
1.32577
1.32511
1.32447
1.32385
1.32324
1.32265
1.32208
1.32152
1.32098
1.32045
1.31994
1.31944
1.31896
1.31849
1.31803
1.31759
1.31716
1.31675
1.31635
1.31596
1.31558
1.31522
1.31486
1.31452
1.31419
1.31388
1.31357
1.31327
1.31299
1.31272
1.31245
1.3122
1.31195
1.31172
1.3115
1.31128
1.31108
1.31088
1.3107
1.31052
1.31035
1.3102
1.31005
1.30991
1.30978
1.30965
1.30954
1.30944
1.30935
1.30926
1.30918
1.30913
1.30908
1.30902
1.30899
1.30903
1.30899
1.30889
1.30904
1.30921
1.30888
1.30876
1.3097
1.30959
1.30754
1.30851
1.31241
1.3078
1.29908
1.30961
1.31867
1.3367
1.33683
1.33634
1.33567
1.33536
1.33486
1.33426
1.33367
1.33312
1.3325
1.33188
1.33129
1.33068
1.33008
1.3295
1.32894
1.32838
1.32784
1.32732
1.32682
1.32633
1.32587
1.32542
1.32499
1.32458
1.3242
1.32383
1.32348
1.32315
1.32284
1.32254
1.32227
1.32201
1.32177
1.32155
1.32135
1.32116
1.32099
1.32084
1.3207
1.32058
1.32047
1.32039
1.32031
1.32025
1.32021
1.32019
1.32018
1.32018
1.32021
1.32024
1.3203
1.32037
1.32046
1.32057
1.32069
1.32083
1.321
1.32118
1.32138
1.3216
1.32184
1.3221
1.32238
1.32269
1.32302
1.32337
1.32375
1.32415
1.32458
1.32503
1.32551
1.32602
1.32655
1.32711
1.3277
1.32832
1.32896
1.32963
1.33033
1.33105
1.33181
1.33258
1.33339
1.33421
1.33506
1.33593
1.33682
1.33773
1.33866
1.33959
1.34055
1.34151
1.34248
1.34345
1.34443
1.34541
1.34638
1.34735
1.34831
1.34926
1.3502
1.35112
1.35203
1.35291
1.35377
1.3546
1.35541
1.35619
1.35694
1.35765
1.35834
1.35899
1.3596
1.36018
1.36073
1.36124
1.36172
1.36216
1.36257
1.36295
1.3633
1.36362
1.36392
1.36418
1.36443
1.36464
1.36484
1.36502
1.36517
1.36532
1.36544
1.36555
1.36565
1.36573
1.3658
1.36587
1.36592
1.36597
1.36601
1.36604
1.36607
1.3661
1.36612
1.36613
1.36614
1.36615
1.36616
1.36617
1.36617
1.36617
1.36618
1.36618
1.36618
1.36618
1.36617
1.36617
1.36617
1.36617
1.36617
1.36617
1.36616
1.36616
1.36616
1.36616
1.36616
1.36616
1.36616
1.36616
1.36616
1.36616
1.36616
1.36616
1.36616
1.36616
1.36616
1.36616
1.36616
1.36617
1.36617
1.36617
1.36617
1.36618
1.36618
1.36619
1.36619
1.36619
1.3662
1.3662
1.36621
1.36622
1.36622
1.36623
1.36624
1.36624
1.36625
1.36626
1.36627
1.36628
1.36629
1.3663
1.36631
1.36632
1.36634
1.36635
1.36637
1.36638
1.3664
1.36641
1.36643
1.36645
1.36647
1.36649
1.36651
1.36653
1.36655
1.36657
1.36659
1.36662
1.36664
1.36666
1.36668
1.36671
1.36673
1.36675
1.36677
1.36679
1.36681
1.36683
1.36684
1.36686
1.36687
1.36688
1.36689
1.36689
1.36689
1.36689
1.36688
1.36687
1.36686
1.36684
1.36681
1.36678
1.36675
1.36671
1.36667
1.36662
1.36656
1.3665
1.36643
1.36636
1.36628
1.3662
1.36611
1.36602
1.36592
1.36582
1.36571
1.3656
1.36548
1.36537
1.36524
1.36512
1.36499
1.36485
1.36471
1.36457
1.36442
1.36427
1.36411
1.36395
1.36377
1.3636
1.36341
1.36321
1.363
1.36278
1.36254
1.36229
1.36202
1.36173
1.36142
1.36108
1.36073
1.36034
1.35993
1.35949
1.35902
1.35852
1.35799
1.35743
1.35684
1.35621
1.35555
1.35486
1.35415
1.3534
1.35263
1.35183
1.35101
1.35017
1.34932
1.34844
1.34756
1.34666
1.34576
1.34484
1.34393
1.34301
1.34209
1.34118
1.34027
1.33936
1.33846
1.33757
1.33669
1.33582
1.33496
1.33411
1.33328
1.33247
1.33166
1.33087
1.3301
1.32935
1.32861
1.32789
1.32718
1.32649
1.32582
1.32516
1.32452
1.3239
1.32329
1.3227
1.32213
1.32157
1.32102
1.32049
1.31998
1.31948
1.319
1.31853
1.31807
1.31763
1.3172
1.31678
1.31638
1.31599
1.31561
1.31524
1.31489
1.31455
1.31422
1.3139
1.31359
1.31329
1.313
1.31273
1.31246
1.31221
1.31196
1.31173
1.3115
1.31128
1.31108
1.31088
1.31069
1.31051
1.31034
1.31018
1.31003
1.30989
1.30975
1.30963
1.30951
1.3094
1.3093
1.30922
1.30914
1.30906
1.309
1.30896
1.3089
1.30885
1.30888
1.30888
1.30876
1.30876
1.30902
1.30885
1.30836
1.30878
1.30946
1.30775
1.30627
1.30892
1.30837
1.2985
1.29304
1.33603
1.33701
1.33629
1.33558
1.33555
1.33497
1.33425
1.33376
1.3332
1.33253
1.33193
1.33134
1.33072
1.33012
1.32954
1.32897
1.32841
1.32787
1.32734
1.32684
1.32635
1.32589
1.32544
1.32501
1.3246
1.32421
1.32384
1.32349
1.32316
1.32285
1.32256
1.32228
1.32202
1.32179
1.32156
1.32136
1.32117
1.321
1.32085
1.32071
1.32059
1.32048
1.32039
1.32032
1.32026
1.32022
1.32019
1.32018
1.32019
1.32021
1.32025
1.3203
1.32038
1.32046
1.32057
1.32069
1.32083
1.32099
1.32117
1.32137
1.32159
1.32183
1.32209
1.32237
1.32268
1.323
1.32336
1.32373
1.32413
1.32456
1.32501
1.32548
1.32599
1.32652
1.32707
1.32766
1.32827
1.32891
1.32958
1.33028
1.331
1.33175
1.33253
1.33333
1.33415
1.335
1.33587
1.33676
1.33766
1.33859
1.33953
1.34048
1.34144
1.34241
1.34338
1.34436
1.34534
1.34631
1.34728
1.34825
1.3492
1.35014
1.35106
1.35197
1.35286
1.35372
1.35456
1.35537
1.35615
1.3569
1.35762
1.35831
1.35896
1.35958
1.36016
1.36071
1.36122
1.3617
1.36215
1.36256
1.36295
1.3633
1.36362
1.36391
1.36418
1.36442
1.36464
1.36484
1.36502
1.36518
1.36532
1.36544
1.36555
1.36565
1.36573
1.36581
1.36587
1.36592
1.36597
1.36601
1.36604
1.36607
1.3661
1.36612
1.36613
1.36614
1.36615
1.36616
1.36617
1.36617
1.36617
1.36617
1.36617
1.36617
1.36617
1.36617
1.36617
1.36617
1.36617
1.36616
1.36616
1.36616
1.36616
1.36616
1.36616
1.36615
1.36615
1.36615
1.36615
1.36615
1.36615
1.36615
1.36615
1.36615
1.36616
1.36616
1.36616
1.36616
1.36616
1.36616
1.36617
1.36617
1.36617
1.36618
1.36618
1.36618
1.36619
1.36619
1.3662
1.3662
1.36621
1.36621
1.36622
1.36623
1.36624
1.36624
1.36625
1.36626
1.36627
1.36628
1.36629
1.3663
1.36631
1.36633
1.36634
1.36635
1.36637
1.36638
1.3664
1.36642
1.36644
1.36645
1.36647
1.36649
1.36651
1.36653
1.36656
1.36658
1.3666
1.36662
1.36664
1.36667
1.36669
1.36671
1.36673
1.36675
1.36677
1.36679
1.36681
1.36682
1.36684
1.36685
1.36686
1.36686
1.36687
1.36687
1.36687
1.36686
1.36685
1.36683
1.36681
1.36679
1.36676
1.36673
1.36669
1.36664
1.36659
1.36654
1.36647
1.36641
1.36633
1.36626
1.36617
1.36608
1.36599
1.36589
1.36579
1.36568
1.36557
1.36545
1.36533
1.36521
1.36508
1.36495
1.36481
1.36467
1.36453
1.36438
1.36422
1.36406
1.3639
1.36372
1.36354
1.36335
1.36315
1.36294
1.36272
1.36248
1.36222
1.36195
1.36166
1.36135
1.36102
1.36066
1.36028
1.35987
1.35943
1.35896
1.35846
1.35793
1.35737
1.35678
1.35615
1.3555
1.35481
1.35409
1.35335
1.35258
1.35179
1.35097
1.35014
1.34928
1.34841
1.34753
1.34663
1.34573
1.34482
1.34391
1.343
1.34208
1.34117
1.34026
1.33936
1.33846
1.33757
1.33669
1.33583
1.33497
1.33413
1.3333
1.33248
1.33168
1.3309
1.33013
1.32937
1.32863
1.32791
1.32721
1.32652
1.32585
1.32519
1.32455
1.32393
1.32332
1.32273
1.32216
1.3216
1.32105
1.32052
1.32001
1.31951
1.31902
1.31855
1.3181
1.31765
1.31722
1.3168
1.3164
1.31601
1.31563
1.31526
1.31491
1.31456
1.31423
1.31391
1.3136
1.3133
1.31301
1.31274
1.31247
1.31221
1.31196
1.31173
1.3115
1.31128
1.31107
1.31087
1.31068
1.3105
1.31033
1.31016
1.31001
1.30986
1.30973
1.3096
1.30948
1.30937
1.30926
1.30916
1.30909
1.309
1.30892
1.30888
1.30885
1.30875
1.3087
1.30881
1.30873
1.30844
1.30868
1.30907
1.30821
1.30763
1.30948
1.30914
1.30436
1.30635
1.31318
1.30082
1.28869
1.33645
1.33652
1.33639
1.33613
1.3356
1.33493
1.33445
1.33387
1.3332
1.33259
1.33199
1.33135
1.33073
1.33014
1.32955
1.32897
1.32841
1.32787
1.32734
1.32683
1.32635
1.32588
1.32543
1.325
1.32459
1.3242
1.32383
1.32348
1.32315
1.32284
1.32254
1.32227
1.32201
1.32177
1.32155
1.32135
1.32116
1.32099
1.32084
1.3207
1.32058
1.32047
1.32038
1.32031
1.32025
1.32021
1.32018
1.32017
1.32018
1.3202
1.32024
1.32029
1.32036
1.32045
1.32055
1.32067
1.32081
1.32097
1.32115
1.32135
1.32156
1.3218
1.32206
1.32234
1.32264
1.32297
1.32331
1.32369
1.32408
1.3245
1.32495
1.32543
1.32593
1.32645
1.32701
1.32759
1.3282
1.32884
1.32951
1.3302
1.33092
1.33167
1.33244
1.33324
1.33406
1.33491
1.33577
1.33666
1.33757
1.33849
1.33943
1.34038
1.34135
1.34232
1.3433
1.34428
1.34526
1.34624
1.34721
1.34818
1.34913
1.35008
1.35101
1.35192
1.35281
1.35368
1.35452
1.35534
1.35612
1.35688
1.3576
1.3583
1.35895
1.35958
1.36016
1.36072
1.36123
1.36172
1.36216
1.36258
1.36296
1.36331
1.36364
1.36393
1.3642
1.36444
1.36466
1.36486
1.36503
1.36519
1.36533
1.36545
1.36556
1.36566
1.36574
1.36581
1.36588
1.36593
1.36598
1.36602
1.36605
1.36608
1.3661
1.36612
1.36613
1.36614
1.36615
1.36616
1.36617
1.36617
1.36617
1.36617
1.36617
1.36617
1.36617
1.36617
1.36617
1.36617
1.36616
1.36616
1.36616
1.36616
1.36616
1.36615
1.36615
1.36615
1.36615
1.36615
1.36615
1.36615
1.36615
1.36615
1.36615
1.36615
1.36615
1.36615
1.36615
1.36616
1.36616
1.36616
1.36616
1.36616
1.36617
1.36617
1.36617
1.36618
1.36618
1.36619
1.36619
1.3662
1.3662
1.36621
1.36621
1.36622
1.36623
1.36624
1.36624
1.36625
1.36626
1.36627
1.36628
1.36629
1.3663
1.36632
1.36633
1.36634
1.36636
1.36637
1.36639
1.3664
1.36642
1.36644
1.36646
1.36648
1.3665
1.36652
1.36654
1.36656
1.36658
1.3666
1.36663
1.36665
1.36667
1.36669
1.36671
1.36673
1.36675
1.36677
1.36679
1.3668
1.36682
1.36683
1.36684
1.36684
1.36685
1.36685
1.36685
1.36684
1.36683
1.36681
1.36679
1.36677
1.36674
1.36671
1.36667
1.36662
1.36657
1.36652
1.36645
1.36639
1.36631
1.36623
1.36615
1.36606
1.36597
1.36587
1.36576
1.36566
1.36554
1.36543
1.3653
1.36518
1.36505
1.36492
1.36478
1.36464
1.36449
1.36434
1.36419
1.36402
1.36386
1.36368
1.3635
1.36331
1.36311
1.36289
1.36267
1.36243
1.36217
1.3619
1.36161
1.3613
1.36096
1.36061
1.36022
1.35981
1.35937
1.3589
1.3584
1.35787
1.35731
1.35671
1.35609
1.35543
1.35474
1.35403
1.35328
1.35251
1.35172
1.3509
1.35007
1.34921
1.34835
1.34746
1.34657
1.34567
1.34476
1.34385
1.34294
1.34203
1.34112
1.34021
1.33931
1.33842
1.33753
1.33666
1.33579
1.33494
1.3341
1.33327
1.33246
1.33166
1.33088
1.33011
1.32936
1.32863
1.32791
1.3272
1.32652
1.32585
1.32519
1.32456
1.32394
1.32333
1.32274
1.32217
1.32161
1.32106
1.32054
1.32002
1.31952
1.31904
1.31857
1.31811
1.31767
1.31724
1.31682
1.31641
1.31602
1.31564
1.31528
1.31492
1.31458
1.31424
1.31392
1.31361
1.31331
1.31302
1.31274
1.31247
1.31222
1.31197
1.31173
1.3115
1.31128
1.31107
1.31087
1.31068
1.3105
1.31032
1.31016
1.31
1.30985
1.30971
1.30958
1.30946
1.30935
1.30924
1.30914
1.30905
1.30898
1.30891
1.30881
1.30878
1.30879
1.30868
1.30855
1.30873
1.3088
1.30831
1.30832
1.30921
1.30859
1.30691
1.30855
1.3102
1.30547
1.30342
1.30878
1.30942
1.33723
1.33692
1.33676
1.33639
1.33565
1.3351
1.33462
1.3339
1.33324
1.33265
1.332
1.33134
1.33074
1.33013
1.32952
1.32894
1.32838
1.32783
1.3273
1.32679
1.3263
1.32583
1.32539
1.32496
1.32455
1.32416
1.32379
1.32344
1.32311
1.3228
1.32251
1.32223
1.32198
1.32174
1.32152
1.32132
1.32113
1.32096
1.32081
1.32067
1.32055
1.32044
1.32036
1.32028
1.32022
1.32018
1.32015
1.32014
1.32015
1.32017
1.3202
1.32026
1.32033
1.32041
1.32052
1.32064
1.32077
1.32093
1.32111
1.3213
1.32151
1.32175
1.322
1.32228
1.32258
1.3229
1.32324
1.32361
1.32401
1.32442
1.32487
1.32534
1.32583
1.32636
1.32691
1.32749
1.3281
1.32873
1.32939
1.33008
1.3308
1.33155
1.33232
1.33311
1.33394
1.33478
1.33565
1.33654
1.33745
1.33837
1.33931
1.34027
1.34123
1.34221
1.34319
1.34417
1.34516
1.34614
1.34712
1.3481
1.34906
1.35001
1.35095
1.35187
1.35276
1.35364
1.35449
1.35531
1.35611
1.35687
1.3576
1.3583
1.35896
1.35959
1.36018
1.36074
1.36126
1.36175
1.3622
1.36261
1.363
1.36335
1.36367
1.36397
1.36423
1.36447
1.36469
1.36489
1.36506
1.36522
1.36535
1.36548
1.36558
1.36568
1.36576
1.36583
1.36589
1.36594
1.36599
1.36603
1.36606
1.36608
1.36611
1.36612
1.36614
1.36615
1.36616
1.36616
1.36617
1.36617
1.36617
1.36617
1.36617
1.36617
1.36617
1.36617
1.36617
1.36616
1.36616
1.36616
1.36616
1.36616
1.36615
1.36615
1.36615
1.36615
1.36615
1.36615
1.36615
1.36615
1.36615
1.36615
1.36615
1.36615
1.36615
1.36615
1.36615
1.36615
1.36615
1.36616
1.36616
1.36616
1.36616
1.36617
1.36617
1.36617
1.36618
1.36618
1.36619
1.36619
1.3662
1.3662
1.36621
1.36621
1.36622
1.36623
1.36624
1.36624
1.36625
1.36626
1.36627
1.36628
1.36629
1.36631
1.36632
1.36633
1.36635
1.36636
1.36638
1.36639
1.36641
1.36643
1.36644
1.36646
1.36648
1.3665
1.36652
1.36654
1.36657
1.36659
1.36661
1.36663
1.36665
1.36667
1.36669
1.36671
1.36673
1.36675
1.36677
1.36678
1.3668
1.36681
1.36682
1.36683
1.36683
1.36683
1.36683
1.36682
1.36681
1.3668
1.36678
1.36675
1.36672
1.36669
1.36665
1.3666
1.36655
1.3665
1.36644
1.36637
1.36629
1.36622
1.36613
1.36604
1.36595
1.36585
1.36574
1.36563
1.36552
1.3654
1.36528
1.36515
1.36502
1.36489
1.36475
1.36461
1.36446
1.36431
1.36415
1.36399
1.36382
1.36365
1.36347
1.36327
1.36307
1.36286
1.36263
1.36239
1.36213
1.36186
1.36157
1.36125
1.36091
1.36055
1.36017
1.35975
1.35931
1.35884
1.35833
1.3578
1.35723
1.35663
1.356
1.35534
1.35465
1.35393
1.35318
1.35241
1.35161
1.35079
1.34996
1.3491
1.34823
1.34735
1.34646
1.34556
1.34465
1.34374
1.34283
1.34192
1.34101
1.34011
1.33921
1.33832
1.33744
1.33656
1.3357
1.33485
1.33402
1.33319
1.33239
1.33159
1.33081
1.33005
1.32931
1.32857
1.32786
1.32716
1.32648
1.32582
1.32517
1.32453
1.32392
1.32331
1.32273
1.32216
1.3216
1.32106
1.32054
1.32002
1.31953
1.31904
1.31858
1.31812
1.31768
1.31725
1.31683
1.31643
1.31604
1.31566
1.31529
1.31494
1.31459
1.31426
1.31394
1.31363
1.31333
1.31304
1.31276
1.31249
1.31223
1.31199
1.31175
1.31152
1.3113
1.31109
1.31089
1.3107
1.31051
1.31034
1.31017
1.31002
1.30987
1.30973
1.3096
1.30948
1.30936
1.30926
1.30917
1.30907
1.30899
1.30894
1.30888
1.30878
1.30879
1.30884
1.30868
1.30859
1.30892
1.3089
1.30827
1.30875
1.30975
1.30823
1.30729
1.31067
1.30998
1.30505
1.30838
1.31091
1.33814
1.33771
1.33716
1.3365
1.33595
1.33537
1.33464
1.33394
1.33333
1.33265
1.33197
1.33134
1.33071
1.33007
1.32947
1.32888
1.32831
1.32776
1.32723
1.32672
1.32623
1.32576
1.32531
1.32488
1.32447
1.32408
1.32372
1.32337
1.32304
1.32273
1.32244
1.32217
1.32191
1.32168
1.32146
1.32126
1.32107
1.32091
1.32075
1.32062
1.3205
1.32039
1.32031
1.32023
1.32017
1.32013
1.32011
1.32009
1.3201
1.32012
1.32015
1.32021
1.32027
1.32036
1.32046
1.32058
1.32071
1.32087
1.32104
1.32123
1.32144
1.32167
1.32192
1.3222
1.32249
1.32281
1.32315
1.32352
1.3239
1.32432
1.32476
1.32522
1.32571
1.32623
1.32678
1.32735
1.32796
1.32859
1.32925
1.32994
1.33065
1.33139
1.33216
1.33296
1.33378
1.33463
1.33549
1.33638
1.33729
1.33822
1.33916
1.34012
1.34109
1.34207
1.34306
1.34405
1.34504
1.34603
1.34702
1.348
1.34897
1.34993
1.35088
1.35181
1.35271
1.3536
1.35446
1.35529
1.3561
1.35687
1.35761
1.35831
1.35898
1.35962
1.36022
1.36078
1.3613
1.36179
1.36224
1.36266
1.36305
1.3634
1.36372
1.36401
1.36428
1.36452
1.36473
1.36493
1.3651
1.36525
1.36539
1.36551
1.36561
1.3657
1.36578
1.36585
1.36591
1.36596
1.366
1.36604
1.36607
1.36609
1.36611
1.36613
1.36614
1.36615
1.36616
1.36617
1.36617
1.36617
1.36617
1.36617
1.36617
1.36617
1.36617
1.36617
1.36617
1.36616
1.36616
1.36616
1.36616
1.36615
1.36615
1.36615
1.36615
1.36615
1.36615
1.36614
1.36614
1.36614
1.36614
1.36614
1.36614
1.36614
1.36615
1.36615
1.36615
1.36615
1.36615
1.36615
1.36615
1.36616
1.36616
1.36616
1.36617
1.36617
1.36617
1.36618
1.36618
1.36619
1.36619
1.3662
1.3662
1.36621
1.36621
1.36622
1.36623
1.36624
1.36624
1.36625
1.36626
1.36627
1.36628
1.3663
1.36631
1.36632
1.36633
1.36635
1.36636
1.36638
1.3664
1.36641
1.36643
1.36645
1.36647
1.36649
1.36651
1.36653
1.36655
1.36657
1.36659
1.36661
1.36664
1.36666
1.36668
1.3667
1.36672
1.36674
1.36675
1.36677
1.36678
1.36679
1.3668
1.36681
1.36681
1.36681
1.36681
1.3668
1.36679
1.36678
1.36676
1.36674
1.36671
1.36667
1.36663
1.36659
1.36654
1.36648
1.36642
1.36635
1.36628
1.3662
1.36611
1.36602
1.36593
1.36583
1.36572
1.36561
1.3655
1.36538
1.36526
1.36513
1.365
1.36487
1.36473
1.36459
1.36444
1.36429
1.36413
1.36397
1.3638
1.36362
1.36344
1.36325
1.36304
1.36283
1.3626
1.36236
1.3621
1.36182
1.36153
1.36121
1.36087
1.3605
1.36011
1.35969
1.35924
1.35876
1.35825
1.35771
1.35713
1.35653
1.35589
1.35522
1.35452
1.35379
1.35304
1.35226
1.35146
1.35064
1.34979
1.34893
1.34806
1.34718
1.34628
1.34538
1.34447
1.34356
1.34265
1.34174
1.34084
1.33993
1.33904
1.33815
1.33727
1.3364
1.33555
1.3347
1.33387
1.33305
1.33225
1.33147
1.33069
1.32994
1.3292
1.32848
1.32777
1.32708
1.3264
1.32574
1.3251
1.32448
1.32386
1.32327
1.32269
1.32212
1.32158
1.32104
1.32052
1.32001
1.31952
1.31904
1.31858
1.31813
1.31769
1.31726
1.31685
1.31645
1.31606
1.31568
1.31531
1.31496
1.31462
1.31429
1.31397
1.31366
1.31336
1.31307
1.3128
1.31253
1.31227
1.31202
1.31179
1.31156
1.31134
1.31113
1.31093
1.31074
1.31056
1.31039
1.31022
1.31007
1.30992
1.30978
1.30965
1.30954
1.30943
1.30932
1.30924
1.30917
1.30908
1.30901
1.30901
1.30898
1.30886
1.30891
1.30909
1.30892
1.30874
1.30931
1.30953
1.30858
1.30905
1.31088
1.3095
1.30781
1.3111
1.31292
1.30992
1.30959
1.33919
1.33837
1.33763
1.33688
1.33625
1.33549
1.3347
1.33404
1.33335
1.3326
1.33194
1.33129
1.33062
1.32998
1.32938
1.32878
1.3282
1.32765
1.32711
1.3266
1.32611
1.32564
1.32519
1.32477
1.32436
1.32398
1.32361
1.32327
1.32294
1.32263
1.32235
1.32208
1.32183
1.32159
1.32138
1.32118
1.321
1.32083
1.32068
1.32055
1.32043
1.32032
1.32024
1.32016
1.32011
1.32007
1.32004
1.32003
1.32003
1.32005
1.32009
1.32014
1.3202
1.32028
1.32038
1.3205
1.32063
1.32078
1.32095
1.32114
1.32135
1.32158
1.32182
1.32209
1.32238
1.3227
1.32303
1.32339
1.32378
1.32418
1.32462
1.32508
1.32557
1.32608
1.32662
1.32719
1.32779
1.32841
1.32907
1.32975
1.33047
1.33121
1.33197
1.33277
1.33359
1.33443
1.3353
1.33619
1.33711
1.33804
1.33898
1.33995
1.34092
1.34191
1.3429
1.3439
1.3449
1.3459
1.34689
1.34788
1.34887
1.34984
1.35079
1.35173
1.35265
1.35355
1.35442
1.35527
1.35608
1.35687
1.35762
1.35833
1.35901
1.35965
1.36026
1.36082
1.36135
1.36184
1.3623
1.36272
1.3631
1.36346
1.36378
1.36407
1.36433
1.36457
1.36478
1.36497
1.36514
1.36529
1.36543
1.36554
1.36565
1.36573
1.36581
1.36588
1.36593
1.36598
1.36602
1.36605
1.36608
1.36611
1.36612
1.36614
1.36615
1.36616
1.36617
1.36617
1.36617
1.36618
1.36618
1.36617
1.36617
1.36617
1.36617
1.36617
1.36616
1.36616
1.36616
1.36616
1.36615
1.36615
1.36615
1.36615
1.36615
1.36615
1.36614
1.36614
1.36614
1.36614
1.36614
1.36614
1.36614
1.36614
1.36614
1.36614
1.36614
1.36615
1.36615
1.36615
1.36615
1.36615
1.36616
1.36616
1.36616
1.36617
1.36617
1.36617
1.36618
1.36618
1.36619
1.36619
1.3662
1.3662
1.36621
1.36621
1.36622
1.36623
1.36624
1.36625
1.36626
1.36627
1.36628
1.36629
1.3663
1.36631
1.36632
1.36634
1.36635
1.36637
1.36638
1.3664
1.36642
1.36644
1.36646
1.36648
1.3665
1.36652
1.36654
1.36656
1.36658
1.3666
1.36662
1.36664
1.36666
1.36668
1.3667
1.36672
1.36674
1.36675
1.36676
1.36678
1.36678
1.36679
1.3668
1.3668
1.36679
1.36679
1.36678
1.36676
1.36674
1.36672
1.36669
1.36665
1.36661
1.36657
1.36652
1.36646
1.3664
1.36633
1.36626
1.36618
1.36609
1.36601
1.36591
1.36581
1.36571
1.3656
1.36548
1.36536
1.36524
1.36512
1.36499
1.36485
1.36471
1.36457
1.36443
1.36427
1.36412
1.36396
1.36379
1.36361
1.36343
1.36323
1.36303
1.36281
1.36258
1.36234
1.36208
1.36179
1.36149
1.36117
1.36082
1.36045
1.36005
1.35962
1.35917
1.35868
1.35816
1.3576
1.35702
1.3564
1.35575
1.35507
1.35436
1.35362
1.35286
1.35207
1.35126
1.35043
1.34958
1.34871
1.34784
1.34695
1.34605
1.34514
1.34424
1.34333
1.34241
1.3415
1.3406
1.3397
1.3388
1.33792
1.33704
1.33618
1.33533
1.33449
1.33366
1.33285
1.33206
1.33128
1.33052
1.32977
1.32904
1.32833
1.32763
1.32695
1.32628
1.32563
1.325
1.32438
1.32378
1.3232
1.32263
1.32207
1.32153
1.321
1.32049
1.31999
1.3195
1.31903
1.31857
1.31813
1.31769
1.31727
1.31687
1.31647
1.31609
1.31571
1.31535
1.315
1.31466
1.31434
1.31402
1.31371
1.31342
1.31313
1.31286
1.31259
1.31234
1.31209
1.31186
1.31163
1.31141
1.31121
1.31101
1.31082
1.31064
1.31047
1.31031
1.31016
1.31002
1.30989
1.30977
1.30965
1.30956
1.30947
1.30937
1.30932
1.30928
1.30921
1.30917
1.30922
1.30923
1.30913
1.30927
1.30954
1.30934
1.30931
1.31015
1.31024
1.30941
1.31064
1.31214
1.31074
1.31096
1.3135
1.31377
1.31442
1.34022
1.33896
1.33813
1.3373
1.33641
1.33558
1.33483
1.33407
1.33328
1.33256
1.33187
1.33117
1.33049
1.32986
1.32923
1.32862
1.32805
1.32749
1.32696
1.32644
1.32596
1.32549
1.32504
1.32462
1.32422
1.32383
1.32347
1.32313
1.32281
1.32251
1.32223
1.32196
1.32171
1.32148
1.32127
1.32108
1.3209
1.32073
1.32059
1.32045
1.32034
1.32024
1.32015
1.32008
1.32002
1.31998
1.31996
1.31994
1.31995
1.31997
1.32
1.32005
1.32011
1.3202
1.32029
1.32041
1.32054
1.32068
1.32085
1.32103
1.32124
1.32146
1.3217
1.32197
1.32225
1.32256
1.32289
1.32324
1.32362
1.32402
1.32445
1.32491
1.32539
1.32589
1.32643
1.327
1.32759
1.32821
1.32886
1.32954
1.33025
1.33099
1.33175
1.33254
1.33336
1.33421
1.33508
1.33597
1.33688
1.33782
1.33877
1.33973
1.34072
1.34171
1.34271
1.34371
1.34472
1.34573
1.34674
1.34774
1.34874
1.34972
1.35069
1.35164
1.35258
1.35349
1.35437
1.35523
1.35606
1.35686
1.35762
1.35835
1.35904
1.35969
1.3603
1.36087
1.36141
1.3619
1.36236
1.36279
1.36317
1.36352
1.36385
1.36414
1.3644
1.36463
1.36484
1.36503
1.36519
1.36534
1.36547
1.36558
1.36568
1.36577
1.36584
1.3659
1.36596
1.366
1.36604
1.36607
1.3661
1.36612
1.36614
1.36615
1.36616
1.36617
1.36617
1.36618
1.36618
1.36618
1.36618
1.36618
1.36618
1.36617
1.36617
1.36617
1.36617
1.36616
1.36616
1.36616
1.36615
1.36615
1.36615
1.36615
1.36615
1.36614
1.36614
1.36614
1.36614
1.36614
1.36614
1.36614
1.36614
1.36614
1.36614
1.36614
1.36614
1.36614
1.36615
1.36615
1.36615
1.36615
1.36615
1.36616
1.36616
1.36616
1.36617
1.36617
1.36617
1.36618
1.36618
1.36619
1.36619
1.3662
1.3662
1.36621
1.36622
1.36622
1.36623
1.36624
1.36625
1.36626
1.36627
1.36628
1.36629
1.3663
1.36632
1.36633
1.36634
1.36636
1.36637
1.36639
1.36641
1.36643
1.36644
1.36646
1.36648
1.3665
1.36652
1.36654
1.36656
1.36658
1.36661
1.36663
1.36665
1.36667
1.36668
1.3667
1.36672
1.36673
1.36675
1.36676
1.36677
1.36677
1.36678
1.36678
1.36678
1.36677
1.36676
1.36674
1.36672
1.3667
1.36667
1.36664
1.3666
1.36655
1.3665
1.36644
1.36638
1.36631
1.36624
1.36616
1.36608
1.36599
1.36589
1.36579
1.36569
1.36558
1.36547
1.36535
1.36523
1.3651
1.36497
1.36484
1.3647
1.36456
1.36442
1.36427
1.36411
1.36395
1.36378
1.3636
1.36342
1.36322
1.36302
1.3628
1.36257
1.36232
1.36205
1.36177
1.36146
1.36114
1.36078
1.3604
1.35999
1.35955
1.35908
1.35858
1.35805
1.35748
1.35688
1.35625
1.35559
1.35489
1.35417
1.35342
1.35264
1.35184
1.35102
1.35018
1.34932
1.34845
1.34756
1.34667
1.34576
1.34486
1.34394
1.34303
1.34212
1.34121
1.3403
1.3394
1.33851
1.33763
1.33676
1.3359
1.33505
1.33422
1.3334
1.3326
1.33181
1.33104
1.33029
1.32955
1.32883
1.32812
1.32744
1.32677
1.32612
1.32548
1.32486
1.32425
1.32367
1.32309
1.32253
1.32199
1.32146
1.32094
1.32044
1.31995
1.31948
1.31901
1.31857
1.31813
1.3177
1.31729
1.31689
1.3165
1.31612
1.31576
1.3154
1.31506
1.31472
1.3144
1.31409
1.31379
1.3135
1.31322
1.31295
1.31268
1.31243
1.31219
1.31196
1.31174
1.31153
1.31132
1.31113
1.31095
1.31077
1.31061
1.31045
1.31031
1.31017
1.31005
1.30994
1.30983
1.30974
1.30967
1.3096
1.30954
1.30951
1.30952
1.30948
1.30947
1.30962
1.30969
1.30958
1.30986
1.31033
1.31009
1.31011
1.31137
1.31162
1.31075
1.3122
1.31432
1.31375
1.31376
1.31657
1.3186
1.34105
1.33956
1.33856
1.33756
1.33656
1.3357
1.33486
1.334
1.3332
1.33248
1.33173
1.331
1.33033
1.32968
1.32904
1.32843
1.32785
1.32729
1.32676
1.32625
1.32576
1.3253
1.32486
1.32444
1.32404
1.32366
1.32331
1.32297
1.32266
1.32236
1.32208
1.32182
1.32158
1.32135
1.32115
1.32095
1.32078
1.32062
1.32047
1.32035
1.32023
1.32013
1.32005
1.31998
1.31993
1.31989
1.31986
1.31985
1.31985
1.31987
1.3199
1.31995
1.32001
1.32009
1.32019
1.3203
1.32042
1.32057
1.32073
1.32091
1.32111
1.32133
1.32156
1.32182
1.3221
1.3224
1.32273
1.32308
1.32345
1.32384
1.32427
1.32471
1.32518
1.32569
1.32622
1.32677
1.32736
1.32798
1.32862
1.3293
1.33
1.33073
1.33149
1.33229
1.3331
1.33395
1.33482
1.33571
1.33663
1.33756
1.33852
1.33949
1.34048
1.34147
1.34248
1.3435
1.34452
1.34554
1.34656
1.34757
1.34858
1.34958
1.35056
1.35153
1.35248
1.35341
1.35431
1.35518
1.35603
1.35684
1.35762
1.35836
1.35906
1.35972
1.36034
1.36092
1.36147
1.36197
1.36243
1.36286
1.36324
1.3636
1.36392
1.36421
1.36447
1.3647
1.3649
1.36509
1.36525
1.36539
1.36552
1.36563
1.36572
1.3658
1.36588
1.36593
1.36598
1.36603
1.36606
1.36609
1.36612
1.36613
1.36615
1.36616
1.36617
1.36618
1.36618
1.36618
1.36618
1.36618
1.36618
1.36618
1.36618
1.36617
1.36617
1.36617
1.36617
1.36616
1.36616
1.36616
1.36615
1.36615
1.36615
1.36615
1.36615
1.36614
1.36614
1.36614
1.36614
1.36614
1.36614
1.36614
1.36614
1.36614
1.36614
1.36614
1.36614
1.36614
1.36614
1.36615
1.36615
1.36615
1.36615
1.36616
1.36616
1.36616
1.36616
1.36617
1.36617
1.36617
1.36618
1.36618
1.36619
1.36619
1.3662
1.36621
1.36621
1.36622
1.36623
1.36624
1.36624
1.36625
1.36626
1.36627
1.36628
1.3663
1.36631
1.36632
1.36634
1.36635
1.36637
1.36638
1.3664
1.36642
1.36643
1.36645
1.36647
1.36649
1.36651
1.36653
1.36655
1.36657
1.36659
1.36661
1.36663
1.36665
1.36667
1.36669
1.3667
1.36672
1.36673
1.36674
1.36675
1.36676
1.36676
1.36676
1.36676
1.36675
1.36674
1.36672
1.36671
1.36668
1.36665
1.36662
1.36658
1.36653
1.36648
1.36642
1.36636
1.36629
1.36622
1.36614
1.36606
1.36597
1.36587
1.36577
1.36567
1.36556
1.36545
1.36533
1.36521
1.36509
1.36496
1.36483
1.36469
1.36455
1.36441
1.36426
1.3641
1.36395
1.36378
1.3636
1.36342
1.36322
1.36301
1.36279
1.36256
1.36231
1.36204
1.36175
1.36144
1.3611
1.36074
1.36035
1.35993
1.35948
1.35899
1.35848
1.35793
1.35734
1.35673
1.35608
1.3554
1.35468
1.35395
1.35318
1.35238
1.35157
1.35074
1.34988
1.34901
1.34814
1.34724
1.34634
1.34543
1.34452
1.3436
1.34269
1.34178
1.34086
1.33996
1.33906
1.33817
1.33729
1.33642
1.33556
1.33472
1.33389
1.33308
1.33228
1.33151
1.33075
1.33
1.32928
1.32857
1.32788
1.32721
1.32655
1.32591
1.32529
1.32468
1.32409
1.32351
1.32296
1.32241
1.32188
1.32137
1.32086
1.32037
1.3199
1.31944
1.31899
1.31855
1.31812
1.31771
1.31731
1.31692
1.31654
1.31617
1.31581
1.31547
1.31513
1.3148
1.31449
1.31418
1.31389
1.3136
1.31333
1.31306
1.31281
1.31256
1.31233
1.3121
1.31188
1.31168
1.31148
1.31129
1.31112
1.31095
1.31079
1.31064
1.31051
1.31038
1.31026
1.31016
1.31008
1.30999
1.30993
1.30989
1.30986
1.30982
1.30985
1.30992
1.30991
1.30996
1.31023
1.31034
1.3103
1.31078
1.31135
1.31116
1.31154
1.31293
1.31321
1.31313
1.3147
1.31625
1.31707
1.31839
1.31998
1.34164
1.34
1.33885
1.3377
1.33668
1.33573
1.33477
1.33391
1.3331
1.3323
1.33152
1.33081
1.33012
1.32944
1.3288
1.3282
1.32761
1.32705
1.32653
1.32602
1.32553
1.32508
1.32464
1.32423
1.32384
1.32347
1.32312
1.32279
1.32248
1.32219
1.32192
1.32166
1.32142
1.3212
1.321
1.32082
1.32064
1.32049
1.32035
1.32022
1.32011
1.32002
1.31994
1.31987
1.31981
1.31977
1.31975
1.31974
1.31974
1.31976
1.31979
1.31984
1.3199
1.31997
1.32007
1.32017
1.3203
1.32044
1.3206
1.32077
1.32097
1.32118
1.32141
1.32166
1.32193
1.32223
1.32255
1.32289
1.32325
1.32364
1.32405
1.32449
1.32496
1.32546
1.32597
1.32652
1.32711
1.32771
1.32835
1.32902
1.32972
1.33044
1.3312
1.33199
1.3328
1.33365
1.33452
1.33541
1.33633
1.33727
1.33823
1.33921
1.3402
1.3412
1.34222
1.34325
1.34427
1.34531
1.34634
1.34737
1.34839
1.3494
1.3504
1.35139
1.35236
1.3533
1.35422
1.35512
1.35598
1.35681
1.3576
1.35836
1.35907
1.35975
1.36038
1.36098
1.36153
1.36203
1.3625
1.36293
1.36332
1.36368
1.36399
1.36428
1.36454
1.36477
1.36497
1.36515
1.36531
1.36545
1.36557
1.36568
1.36577
1.36584
1.36591
1.36597
1.36601
1.36605
1.36609
1.36611
1.36613
1.36615
1.36616
1.36617
1.36618
1.36618
1.36619
1.36619
1.36619
1.36619
1.36619
1.36618
1.36618
1.36618
1.36617
1.36617
1.36617
1.36616
1.36616
1.36616
1.36615
1.36615
1.36615
1.36615
1.36615
1.36614
1.36614
1.36614
1.36614
1.36614
1.36614
1.36614
1.36614