# vtk DataFile Version 2.0
LBE two cylinders
ASCII
DATASET STRUCTURED_POINTS
DIMENSIONS 400 100 1
ASPECT_RATIO 1 1 1
ORIGIN 0 0 0
POINT_DATA 40000
SCALARS rho double 1
LOOKUP_TABLE default
1.33861
1.33588
1.33615
1.33617
1.33524
1.33471
1.33437
1.33369
1.33305
1.3325
1.33189
1.33126
1.33067
1.33008
1.32949
1.32892
1.32837
1.32783
1.32731
1.32681
1.32632
1.32586
1.32541
1.32498
1.32457
1.32419
1.32382
1.32347
1.32314
1.32283
1.32253
1.32226
1.322
1.32176
1.32154
1.32134
1.32115
1.32098
1.32083
1.32069
1.32057
1.32047
1.32038
1.3203
1.32025
1.3202
1.32018
1.32017
1.32018
1.3202
1.32024
1.32029
1.32036
1.32045
1.32056
1.32069
1.32083
1.32099
1.32117
1.32137
1.32159
1.32184
1.3221
1.32238
1.32269
1.32302
1.32338
1.32376
1.32416
1.32459
1.32504
1.32553
1.32603
1.32657
1.32713
1.32772
1.32834
1.32899
1.32966
1.33036
1.33109
1.33185
1.33263
1.33343
1.33426
1.33512
1.33599
1.33688
1.33779
1.33872
1.33967
1.34062
1.34158
1.34256
1.34353
1.34451
1.34549
1.34647
1.34744
1.34841
1.34936
1.3503
1.35122
1.35213
1.35301
1.35388
1.35471
1.35552
1.3563
1.35705
1.35776
1.35845
1.3591
1.35971
1.36029
1.36084
1.36135
1.36183
1.36228
1.36269
1.36307
1.36342
1.36374
1.36403
1.3643
1.36454
1.36476
1.36496
1.36514
1.3653
1.36544
1.36556
1.36567
1.36577
1.36586
1.36593
1.366
1.36605
1.3661
1.36614
1.36618
1.36621
1.36623
1.36625
1.36627
1.36628
1.36629
1.3663
1.36631
1.36631
1.36632
1.36632
1.36632
1.36632
1.36632
1.36632
1.36632
1.36632
1.36631
1.36631
1.36631
1.36631
1.36631
1.3663
1.3663
1.3663
1.3663
1.3663
1.36629
1.36629
1.36629
1.36629
1.36629
1.36629
1.36629
1.36629
1.36629
1.36629
1.36629
1.36629
1.36629
1.36629
1.36629
1.3663
1.3663
1.3663
1.3663
1.36631
1.36631
1.36632
1.36632
1.36633
1.36634
1.36634
1.36635
1.36636
1.36637
1.36638
1.36639
1.3664
1.36641
1.36642
1.36644
1.36645
1.36647
1.36648
1.3665
1.36652
1.36654
1.36656
1.36658
1.3666
1.36662
1.36665
1.36667
1.36669
1.36672
1.36674
1.36677
1.3668
1.36682
1.36685
1.36687
1.3669
1.36692
1.36695
1.36697
1.36699
1.36702
1.36703
1.36705
1.36707
1.36708
1.36709
1.36709
1.3671
1.3671
1.36709
1.36708
1.36707
1.36705
1.36703
1.367
1.36696
1.36693
1.36688
1.36683
1.36677
1.36671
1.36664
1.36657
1.36649
1.3664
1.36632
1.36622
1.36612
1.36601
1.36591
1.36579
1.36567
1.36555
1.36543
1.36529
1.36516
1.36502
1.36488
1.36474
1.36459
1.36443
1.36427
1.3641
1.36393
1.36375
1.36356
1.36335
1.36314
1.36292
1.36268
1.36242
1.36215
1.36186
1.36154
1.36121
1.36085
1.36046
1.36004
1.3596
1.35913
1.35862
1.35809
1.35752
1.35692
1.35629
1.35562
1.35493
1.3542
1.35345
1.35267
1.35187
1.35105
1.3502
1.34934
1.34846
1.34757
1.34667
1.34576
1.34484
1.34392
1.343
1.34208
1.34116
1.34024
1.33933
1.33843
1.33754
1.33665
1.33578
1.33492
1.33407
1.33324
1.33242
1.33162
1.33083
1.33006
1.3293
1.32856
1.32784
1.32713
1.32644
1.32577
1.32512
1.32448
1.32386
1.32325
1.32266
1.32209
1.32153
1.32099
1.32046
1.31995
1.31945
1.31897
1.3185
1.31804
1.3176
1.31717
1.31676
1.31636
1.31597
1.31559
1.31523
1.31488
1.31454
1.31421
1.31389
1.31358
1.31329
1.313
1.31273
1.31247
1.31221
1.31197
1.31174
1.31151
1.3113
1.3111
1.3109
1.31072
1.31054
1.31037
1.31022
1.31007
1.30993
1.3098
1.30968
1.30956
1.30946
1.30937
1.30929
1.30921
1.30915
1.30911
1.30904
1.30901
1.30905
1.30901
1.30891
1.30906
1.30923
1.30889
1.30877
1.30971
1.30961
1.30755
1.30852
1.31241
1.3078
1.29908
1.30961
1.31866
1.33673
1.33687
1.33638
1.33571
1.3354
1.3349
1.3343
1.33371
1.33316
1.33254
1.33192
1.33133
1.33072
1.33012
1.32954
1.32898
1.32842
1.32788
1.32736
1.32685
1.32636
1.3259
1.32545
1.32502
1.32461
1.32423
1.32386
1.32351
1.32317
1.32286
1.32257
1.32229
1.32204
1.3218
1.32157
1.32137
1.32118
1.32101
1.32086
1.32072
1.3206
1.32049
1.3204
1.32033
1.32027
1.32023
1.3202
1.32019
1.3202
1.32022
1.32026
1.32031
1.32039
1.32047
1.32058
1.32071
1.32085
1.32101
1.32119
1.32139
1.32161
1.32185
1.32211
1.3224
1.3227
1.32303
1.32339
1.32376
1.32417
1.32459
1.32505
1.32553
1.32603
1.32657
1.32713
1.32771
1.32833
1.32898
1.32965
1.33035
1.33107
1.33182
1.3326
1.3334
1.33423
1.33508
1.33595
1.33684
1.33775
1.33868
1.33962
1.34057
1.34153
1.3425
1.34348
1.34445
1.34543
1.34641
1.34738
1.34834
1.34929
1.35023
1.35116
1.35206
1.35295
1.35381
1.35465
1.35546
1.35624
1.35699
1.35771
1.35839
1.35904
1.35966
1.36025
1.36079
1.36131
1.36179
1.36224
1.36265
1.36303
1.36339
1.36371
1.36401
1.36428
1.36452
1.36474
1.36494
1.36512
1.36528
1.36542
1.36555
1.36566
1.36576
1.36585
1.36592
1.36599
1.36605
1.36609
1.36614
1.36617
1.3662
1.36623
1.36625
1.36627
1.36628
1.36629
1.3663
1.36631
1.36631
1.36631
1.36632
1.36632
1.36632
1.36632
1.36632
1.36631
1.36631
1.36631
1.36631
1.36631
1.3663
1.3663
1.3663
1.3663
1.3663
1.36629
1.36629
1.36629
1.36629
1.36629
1.36629
1.36628
1.36628
1.36628
1.36628
1.36628
1.36628
1.36628
1.36628
1.36629
1.36629
1.36629
1.36629
1.36629
1.3663
1.3663
1.3663
1.36631
1.36631
1.36632
1.36632
1.36633
1.36633
1.36634
1.36635
1.36636
1.36637
1.36638
1.36639
1.3664
1.36641
1.36643
1.36644
1.36646
1.36647
1.36649
1.36651
1.36653
1.36655
1.36657
1.36659
1.36661
1.36663
1.36665
1.36668
1.3667
1.36673
1.36675
1.36678
1.3668
1.36683
1.36685
1.36688
1.3669
1.36693
1.36695
1.36697
1.36699
1.36701
1.36703
1.36704
1.36705
1.36706
1.36707
1.36707
1.36707
1.36706
1.36705
1.36704
1.36702
1.367
1.36697
1.36694
1.3669
1.36685
1.3668
1.36674
1.36668
1.36661
1.36654
1.36646
1.36637
1.36628
1.36619
1.36609
1.36598
1.36587
1.36576
1.36564
1.36551
1.36539
1.36526
1.36512
1.36498
1.36484
1.36469
1.36454
1.36438
1.36422
1.36405
1.36387
1.36369
1.36349
1.36329
1.36307
1.36285
1.3626
1.36235
1.36207
1.36178
1.36146
1.36113
1.36076
1.36038
1.35996
1.35952
1.35905
1.35855
1.35801
1.35744
1.35685
1.35622
1.35556
1.35487
1.35415
1.3534
1.35262
1.35183
1.35101
1.35017
1.34931
1.34843
1.34755
1.34665
1.34575
1.34483
1.34392
1.343
1.34208
1.34117
1.34026
1.33935
1.33845
1.33756
1.33668
1.33581
1.33496
1.33411
1.33328
1.33246
1.33166
1.33087
1.3301
1.32935
1.32861
1.32789
1.32718
1.32649
1.32582
1.32517
1.32453
1.3239
1.3233
1.32271
1.32213
1.32157
1.32103
1.3205
1.31999
1.31949
1.31901
1.31854
1.31808
1.31764
1.31721
1.31679
1.31639
1.316
1.31562
1.31526
1.3149
1.31456
1.31423
1.31391
1.3136
1.3133
1.31302
1.31274
1.31248
1.31222
1.31198
1.31174
1.31152
1.3113
1.3111
1.3109
1.31071
1.31053
1.31036
1.3102
1.31005
1.30991
1.30977
1.30965
1.30953
1.30942
1.30932
1.30924
1.30916
1.30908
1.30902
1.30899
1.30893
1.30887
1.3089
1.3089
1.30878
1.30878
1.30903
1.30886
1.30837
1.30879
1.30947
1.30776
1.30627
1.30892
1.30837
1.2985
1.29304
1.33606
1.33705
1.33633
1.33562
1.33559
1.33501
1.3343
1.3338
1.33324
1.33257
1.33197
1.33138
1.33076
1.33016
1.32958
1.32901
1.32844
1.3279
1.32738
1.32687
1.32639
1.32592
1.32547
1.32504
1.32463
1.32424
1.32387
1.32352
1.32319
1.32288
1.32258
1.32231
1.32205
1.32181
1.32159
1.32138
1.32119
1.32102
1.32087
1.32073
1.32061
1.3205
1.32041
1.32034
1.32028
1.32024
1.32021
1.3202
1.3202
1.32023
1.32026
1.32032
1.32039
1.32048
1.32058
1.32071
1.32085
1.32101
1.32119
1.32139
1.3216
1.32184
1.3221
1.32239
1.32269
1.32302
1.32337
1.32374
1.32414
1.32457
1.32502
1.3255
1.326
1.32653
1.32709
1.32768
1.32829
1.32893
1.3296
1.3303
1.33102
1.33177
1.33254
1.33334
1.33417
1.33502
1.33589
1.33678
1.33768
1.33861
1.33955
1.3405
1.34146
1.34243
1.34341
1.34438
1.34536
1.34634
1.34731
1.34828
1.34923
1.35017
1.3511
1.35201
1.3529
1.35376
1.3546
1.35541
1.3562
1.35695
1.35767
1.35836
1.35902
1.35964
1.36022
1.36078
1.36129
1.36178
1.36223
1.36264
1.36303
1.36338
1.36371
1.364
1.36427
1.36452
1.36474
1.36494
1.36512
1.36528
1.36542
1.36555
1.36566
1.36576
1.36585
1.36592
1.36599
1.36605
1.3661
1.36614
1.36617
1.3662
1.36623
1.36625
1.36626
1.36628
1.36629
1.3663
1.3663
1.36631
1.36631
1.36631
1.36632
1.36632
1.36631
1.36631
1.36631
1.36631
1.36631
1.36631
1.3663
1.3663
1.3663
1.3663
1.36629
1.36629
1.36629
1.36629
1.36629
1.36628
1.36628
1.36628
1.36628
1.36628
1.36628
1.36628
1.36628
1.36628
1.36628
1.36628
1.36628
1.36628
1.36628
1.36628
1.36629
1.36629
1.36629
1.3663
1.3663
1.3663
1.36631
1.36631
1.36632
1.36633
1.36633
1.36634
1.36635
1.36636
1.36637
1.36638
1.36639
1.3664
1.36642
1.36643
1.36645
1.36646
1.36648
1.3665
1.36651
1.36653
1.36655
1.36657
1.36659
1.36662
1.36664
1.36666
1.36669
1.36671
1.36674
1.36676
1.36679
1.36681
1.36683
1.36686
1.36688
1.36691
1.36693
1.36695
1.36697
1.36699
1.367
1.36702
1.36703
1.36704
1.36704
1.36705
1.36705
1.36704
1.36703
1.36702
1.367
1.36698
1.36695
1.36691
1.36687
1.36683
1.36678
1.36672
1.36666
1.36659
1.36651
1.36643
1.36635
1.36626
1.36616
1.36606
1.36595
1.36584
1.36573
1.36561
1.36548
1.36535
1.36522
1.36508
1.36494
1.3648
1.36465
1.36449
1.36433
1.36417
1.364
1.36382
1.36363
1.36344
1.36323
1.36302
1.36279
1.36254
1.36229
1.36201
1.36171
1.3614
1.36106
1.3607
1.36031
1.3599
1.35946
1.35898
1.35848
1.35795
1.35738
1.35679
1.35616
1.3555
1.35481
1.35409
1.35335
1.35258
1.35178
1.35097
1.35013
1.34927
1.3484
1.34752
1.34662
1.34572
1.34481
1.3439
1.34299
1.34207
1.34116
1.34025
1.33935
1.33845
1.33757
1.33669
1.33582
1.33497
1.33412
1.33329
1.33248
1.33168
1.3309
1.33013
1.32937
1.32864
1.32791
1.32721
1.32652
1.32585
1.3252
1.32456
1.32393
1.32333
1.32274
1.32216
1.3216
1.32106
1.32053
1.32002
1.31952
1.31903
1.31856
1.3181
1.31766
1.31723
1.31681
1.31641
1.31602
1.31564
1.31527
1.31492
1.31457
1.31424
1.31392
1.31361
1.31331
1.31303
1.31275
1.31248
1.31223
1.31198
1.31174
1.31152
1.3113
1.31109
1.31089
1.3107
1.31052
1.31035
1.31019
1.31003
1.30989
1.30975
1.30962
1.3095
1.30939
1.30928
1.30919
1.30911
1.30903
1.30894
1.30891
1.30887
1.30877
1.30872
1.30883
1.30875
1.30846
1.3087
1.30909
1.30823
1.30764
1.30949
1.30915
1.30437
1.30635
1.31318
1.30082
1.28869
1.33649
1.33656
1.33643
1.33617
1.33564
1.33497
1.33449
1.33391
1.33324
1.33263
1.33203
1.33139
1.33078
1.33018
1.32959
1.32901
1.32845
1.3279
1.32738
1.32687
1.32638
1.32591
1.32546
1.32503
1.32462
1.32423
1.32386
1.32351
1.32318
1.32286
1.32257
1.32229
1.32204
1.3218
1.32158
1.32137
1.32118
1.32101
1.32086
1.32072
1.3206
1.32049
1.3204
1.32033
1.32027
1.32023
1.3202
1.32019
1.32019
1.32021
1.32025
1.3203
1.32037
1.32046
1.32057
1.32069
1.32083
1.32099
1.32116
1.32136
1.32158
1.32181
1.32207
1.32235
1.32265
1.32298
1.32333
1.3237
1.3241
1.32452
1.32497
1.32544
1.32594
1.32647
1.32702
1.32761
1.32822
1.32886
1.32952
1.33021
1.33093
1.33168
1.33246
1.33325
1.33408
1.33492
1.33579
1.33668
1.33759
1.33851
1.33945
1.34041
1.34137
1.34234
1.34332
1.3443
1.34528
1.34626
1.34724
1.34821
1.34917
1.35011
1.35104
1.35196
1.35285
1.35372
1.35456
1.35538
1.35617
1.35693
1.35766
1.35835
1.35901
1.35964
1.36023
1.36078
1.3613
1.36179
1.36224
1.36266
1.36304
1.3634
1.36372
1.36402
1.36429
1.36454
1.36476
1.36496
1.36514
1.3653
1.36544
1.36556
1.36567
1.36577
1.36586
1.36593
1.366
1.36605
1.3661
1.36614
1.36618
1.36621
1.36623
1.36625
1.36627
1.36628
1.36629
1.3663
1.3663
1.36631
1.36631
1.36631
1.36631
1.36631
1.36631
1.36631
1.36631
1.36631
1.36631
1.3663
1.3663
1.3663
1.3663
1.36629
1.36629
1.36629
1.36629
1.36628
1.36628
1.36628
1.36628
1.36628
1.36628
1.36628
1.36628
1.36627
1.36627
1.36627
1.36627
1.36627
1.36628
1.36628
1.36628
1.36628
1.36628
1.36628
1.36629
1.36629
1.36629
1.3663
1.3663
1.36631
1.36631
1.36632
1.36633
1.36633
1.36634
1.36635
1.36636
1.36637
1.36638
1.36639
1.36641
1.36642
1.36643
1.36645
1.36647
1.36648
1.3665
1.36652
1.36654
1.36656
1.36658
1.3666
1.36662
1.36665
1.36667
1.36669
1.36672
1.36674
1.36677
1.36679
1.36682
1.36684
1.36686
1.36689
1.36691
1.36693
1.36695
1.36697
1.36698
1.367
1.36701
1.36702
1.36702
1.36703
1.36702
1.36702
1.36701
1.367
1.36698
1.36695
1.36693
1.36689
1.36685
1.36681
1.36676
1.3667
1.36664
1.36657
1.36649
1.36641
1.36633
1.36624
1.36614
1.36604
1.36593
1.36582
1.3657
1.36558
1.36545
1.36532
1.36519
1.36505
1.36491
1.36476
1.36461
1.36446
1.3643
1.36413
1.36396
1.36378
1.36359
1.36339
1.36319
1.36297
1.36274
1.36249
1.36224
1.36196
1.36166
1.36135
1.36101
1.36064
1.36026
1.35984
1.3594
1.35892
1.35842
1.35789
1.35732
1.35672
1.3561
1.35544
1.35475
1.35403
1.35328
1.35251
1.35172
1.3509
1.35006
1.34921
1.34834
1.34745
1.34656
1.34566
1.34475
1.34384
1.34293
1.34202
1.34111
1.3402
1.3393
1.33841
1.33753
1.33665
1.33579
1.33493
1.3341
1.33327
1.33246
1.33166
1.33088
1.33011
1.32936
1.32863
1.32791
1.32721
1.32652
1.32585
1.3252
1.32456
1.32394
1.32334
1.32275
1.32217
1.32162
1.32107
1.32054
1.32003
1.31953
1.31905
1.31858
1.31812
1.31768
1.31725
1.31683
1.31642
1.31603
1.31565
1.31529
1.31493
1.31459
1.31425
1.31393
1.31362
1.31332
1.31304
1.31276
1.31249
1.31223
1.31198
1.31175
1.31152
1.3113
1.31109
1.31089
1.3107
1.31052
1.31034
1.31018
1.31002
1.30987
1.30974
1.3096
1.30948
1.30937
1.30927
1.30916
1.30907
1.30901
1.30893
1.30883
1.3088
1.30882
1.3087
1.30857
1.30875
1.30882
1.30832
1.30834
1.30922
1.30861
1.30692
1.30856
1.31021
1.30548
1.30343
1.30879
1.30943
1.33727
1.33696
1.3368
1.33643
1.33569
1.33514
1.33466
1.33394
1.33328
1.33269
1.33204
1.33138
1.33078
1.33017
1.32956
1.32898
1.32842
1.32787
1.32734
1.32683
1.32634
1.32587
1.32542
1.32499
1.32458
1.32419
1.32382
1.32347
1.32314
1.32282
1.32253
1.32226
1.322
1.32176
1.32154
1.32134
1.32115
1.32098
1.32083
1.32069
1.32057
1.32046
1.32037
1.3203
1.32024
1.3202
1.32017
1.32016
1.32016
1.32018
1.32022
1.32027
1.32034
1.32043
1.32053
1.32065
1.32079
1.32094
1.32112
1.32131
1.32153
1.32176
1.32202
1.32229
1.32259
1.32291
1.32326
1.32363
1.32402
1.32444
1.32488
1.32535
1.32585
1.32637
1.32693
1.3275
1.32811
1.32875
1.32941
1.3301
1.33082
1.33156
1.33233
1.33313
1.33395
1.3348
1.33567
1.33656
1.33747
1.33839
1.33933
1.34029
1.34126
1.34223
1.34321
1.3442
1.34519
1.34617
1.34715
1.34813
1.34909
1.35005
1.35098
1.3519
1.3528
1.35368
1.35453
1.35536
1.35616
1.35692
1.35766
1.35836
1.35902
1.35965
1.36025
1.36081
1.36133
1.36182
1.36227
1.36269
1.36308
1.36343
1.36376
1.36406
1.36432
1.36457
1.36479
1.36499
1.36516
1.36532
1.36546
1.36559
1.36569
1.36579
1.36588
1.36595
1.36601
1.36607
1.36611
1.36615
1.36619
1.36621
1.36624
1.36626
1.36627
1.36628
1.36629
1.3663
1.36631
1.36631
1.36631
1.36631
1.36631
1.36631
1.36631
1.36631
1.36631
1.36631
1.3663
1.3663
1.3663
1.3663
1.36629
1.36629
1.36629
1.36629
1.36628
1.36628
1.36628
1.36628
1.36628
1.36628
1.36627
1.36627
1.36627
1.36627
1.36627
1.36627
1.36627
1.36627
1.36627
1.36627
1.36627
1.36627
1.36628
1.36628
1.36628
1.36628
1.36629
1.36629
1.3663
1.3663
1.36631
1.36631
1.36632
1.36633
1.36633
1.36634
1.36635
1.36636
1.36637
1.36638
1.3664
1.36641
1.36642
1.36644
1.36645
1.36647
1.36649
1.36651
1.36652
1.36654
1.36657
1.36659
1.36661
1.36663
1.36665
1.36668
1.3667
1.36673
1.36675
1.36677
1.3668
1.36682
1.36685
1.36687
1.36689
1.36691
1.36693
1.36695
1.36696
1.36698
1.36699
1.367
1.367
1.36701
1.36701
1.367
1.36699
1.36698
1.36696
1.36694
1.36691
1.36687
1.36683
1.36679
1.36674
1.36668
1.36662
1.36655
1.36647
1.36639
1.36631
1.36621
1.36612
1.36601
1.36591
1.36579
1.36568
1.36555
1.36543
1.3653
1.36516
1.36502
1.36488
1.36473
1.36458
1.36443
1.36426
1.3641
1.36392
1.36374
1.36355
1.36336
1.36315
1.36293
1.3627
1.36246
1.36219
1.36192
1.36162
1.3613
1.36096
1.36059
1.3602
1.35978
1.35934
1.35886
1.35835
1.35781
1.35724
1.35664
1.35601
1.35535
1.35465
1.35393
1.35318
1.35241
1.35161
1.35079
1.34995
1.34909
1.34822
1.34734
1.34645
1.34555
1.34464
1.34373
1.34282
1.34191
1.341
1.3401
1.3392
1.33831
1.33743
1.33656
1.3357
1.33485
1.33401
1.33319
1.33238
1.33159
1.33081
1.33005
1.32931
1.32858
1.32786
1.32717
1.32648
1.32582
1.32517
1.32454
1.32392
1.32332
1.32273
1.32216
1.32161
1.32107
1.32054
1.32003
1.31954
1.31905
1.31858
1.31813
1.31769
1.31726
1.31684
1.31644
1.31605
1.31567
1.3153
1.31495
1.3146
1.31427
1.31395
1.31364
1.31334
1.31305
1.31277
1.31251
1.31225
1.312
1.31176
1.31153
1.31132
1.31111
1.31091
1.31071
1.31053
1.31036
1.31019
1.31004
1.30989
1.30975
1.30962
1.3095
1.30938
1.30928
1.30919
1.30909
1.30901
1.30897
1.3089
1.3088
1.30881
1.30886
1.3087
1.30861
1.30894
1.30892
1.30829
1.30876
1.30977
1.30824
1.3073
1.31068
1.30999
1.30505
1.30839
1.31092
1.33818
1.33775
1.3372
1.33654
1.336
1.33541
1.33468
1.33399
1.33338
1.3327
1.33201
1.33138
1.33075
1.33011
1.32951
1.32892
1.32835
1.3278
1.32727
1.32675
1.32626
1.32579
1.32534
1.32491
1.3245
1.32411
1.32374
1.3234
1.32307
1.32276
1.32246
1.32219
1.32194
1.3217
1.32148
1.32128
1.32109
1.32093
1.32077
1.32064
1.32052
1.32041
1.32032
1.32025
1.32019
1.32015
1.32012
1.32011
1.32011
1.32013
1.32017
1.32022
1.32029
1.32037
1.32047
1.32059
1.32073
1.32088
1.32105
1.32124
1.32145
1.32168
1.32194
1.32221
1.3225
1.32282
1.32316
1.32353
1.32392
1.32433
1.32477
1.32523
1.32573
1.32625
1.32679
1.32737
1.32797
1.3286
1.32926
1.32995
1.33067
1.33141
1.33218
1.33297
1.3338
1.33464
1.33551
1.3364
1.33731
1.33824
1.33918
1.34014
1.34111
1.34209
1.34308
1.34407
1.34507
1.34606
1.34705
1.34803
1.34901
1.34997
1.35091
1.35184
1.35275
1.35364
1.3545
1.35534
1.35614
1.35692
1.35766
1.35837
1.35904
1.35968
1.36028
1.36084
1.36137
1.36186
1.36232
1.36274
1.36313
1.36348
1.36381
1.3641
1.36437
1.36461
1.36483
1.36503
1.3652
1.36536
1.36549
1.36562
1.36572
1.36582
1.3659
1.36597
1.36603
1.36608
1.36613
1.36617
1.3662
1.36622
1.36625
1.36626
1.36628
1.36629
1.3663
1.3663
1.36631
1.36631
1.36631
1.36631
1.36631
1.36631
1.36631
1.36631
1.36631
1.36631
1.3663
1.3663
1.3663
1.36629
1.36629
1.36629
1.36629
1.36628
1.36628
1.36628
1.36628
1.36628
1.36627
1.36627
1.36627
1.36627
1.36627
1.36627
1.36627
1.36627
1.36627
1.36627
1.36627
1.36627
1.36627
1.36627
1.36627
1.36627
1.36628
1.36628
1.36628
1.36629
1.36629
1.3663
1.3663
1.36631
1.36631
1.36632
1.36633
1.36634
1.36634
1.36635
1.36636
1.36638
1.36639
1.3664
1.36641
1.36643
1.36644
1.36646
1.36648
1.36649
1.36651
1.36653
1.36655
1.36657
1.36659
1.36662
1.36664
1.36666
1.36668
1.36671
1.36673
1.36676
1.36678
1.3668
1.36683
1.36685
1.36687
1.36689
1.36691
1.36693
1.36695
1.36696
1.36697
1.36698
1.36699
1.36699
1.36699
1.36698
1.36697
1.36696
1.36694
1.36692
1.36689
1.36686
1.36682
1.36677
1.36672
1.36666
1.3666
1.36653
1.36645
1.36637
1.36629
1.3662
1.3661
1.36599
1.36589
1.36577
1.36566
1.36553
1.36541
1.36528
1.36514
1.365
1.36486
1.36471
1.36456
1.3644
1.36424
1.36408
1.3639
1.36372
1.36353
1.36333
1.36312
1.3629
1.36267
1.36242
1.36216
1.36188
1.36158
1.36126
1.36091
1.36054
1.36015
1.35972
1.35927
1.35879
1.35827
1.35772
1.35715
1.35654
1.3559
1.35523
1.35452
1.35379
1.35304
1.35226
1.35145
1.35063
1.34979
1.34893
1.34805
1.34717
1.34627
1.34537
1.34446
1.34355
1.34264
1.34173
1.34083
1.33992
1.33903
1.33814
1.33726
1.3364
1.33554
1.3347
1.33387
1.33305
1.33225
1.33146
1.33069
1.32994
1.3292
1.32848
1.32777
1.32708
1.32641
1.32575
1.32511
1.32448
1.32387
1.32328
1.3227
1.32213
1.32158
1.32105
1.32053
1.32002
1.31953
1.31905
1.31858
1.31813
1.3177
1.31727
1.31686
1.31646
1.31607
1.31569
1.31533
1.31497
1.31463
1.3143
1.31398
1.31367
1.31337
1.31309
1.31281
1.31254
1.31229
1.31204
1.3118
1.31157
1.31136
1.31115
1.31095
1.31076
1.31058
1.3104
1.31024
1.31009
1.30994
1.3098
1.30968
1.30956
1.30945
1.30934
1.30926
1.30919
1.3091
1.30903
1.30903
1.309
1.30888
1.30893
1.30911
1.30894
1.30875
1.30933
1.30955
1.3086
1.30906
1.31089
1.30951
1.30782
1.31111
1.31292
1.30992
1.30959
1.33923
1.33841
1.33767
1.33692
1.33629
1.33553
1.33474
1.33408
1.33339
1.33265
1.33198
1.33133
1.33066
1.33002
1.32942
1.32882
1.32824
1.32768
1.32715
1.32664
1.32615
1.32568
1.32523
1.3248
1.32439
1.324
1.32364
1.32329
1.32297
1.32266
1.32237
1.3221
1.32185
1.32161
1.3214
1.3212
1.32102
1.32085
1.3207
1.32056
1.32045
1.32034
1.32025
1.32018
1.32012
1.32008
1.32005
1.32004
1.32005
1.32006
1.3201
1.32015
1.32021
1.3203
1.3204
1.32051
1.32064
1.3208
1.32097
1.32115
1.32136
1.32159
1.32184
1.3221
1.32239
1.32271
1.32304
1.3234
1.32379
1.3242
1.32463
1.32509
1.32558
1.32609
1.32663
1.32721
1.3278
1.32843
1.32909
1.32977
1.33048
1.33122
1.33199
1.33278
1.3336
1.33445
1.33532
1.33621
1.33712
1.33805
1.339
1.33997
1.34094
1.34193
1.34292
1.34392
1.34492
1.34592
1.34692
1.34791
1.3489
1.34987
1.35083
1.35177
1.35269
1.35359
1.35447
1.35531
1.35613
1.35692
1.35767
1.35839
1.35907
1.35971
1.36032
1.36089
1.36142
1.36191
1.36237
1.3628
1.36318
1.36354
1.36387
1.36416
1.36443
1.36467
1.36488
1.36507
1.36525
1.3654
1.36553
1.36565
1.36576
1.36585
1.36593
1.366
1.36605
1.3661
1.36615
1.36618
1.36621
1.36624
1.36626
1.36627
1.36629
1.3663
1.3663
1.36631
1.36631
1.36632
1.36632
1.36632
1.36632
1.36631
1.36631
1.36631
1.36631
1.36631
1.3663
1.3663
1.3663
1.36629
1.36629
1.36629
1.36628
1.36628
1.36628
1.36628
1.36628
1.36627
1.36627
1.36627
1.36627
1.36627
1.36627
1.36627
1.36626
1.36626
1.36626
1.36626
1.36626
1.36626
1.36627
1.36627
1.36627
1.36627
1.36627
1.36627
1.36628
1.36628
1.36629
1.36629
1.36629
1.3663
1.36631
1.36631
1.36632
1.36633
1.36634
1.36635
1.36636
1.36637
1.36638
1.36639
1.3664
1.36642
1.36643
1.36645
1.36646
1.36648
1.3665
1.36652
1.36654
1.36656
1.36658
1.3666
1.36662
1.36665
1.36667
1.36669
1.36672
1.36674
1.36676
1.36679
1.36681
1.36683
1.36685
1.36687
1.36689
1.36691
1.36693
1.36694
1.36695
1.36696
1.36697
1.36697
1.36697
1.36696
1.36695
1.36694
1.36692
1.3669
1.36687
1.36684
1.3668
1.36675
1.3667
1.36664
1.36658
1.36651
1.36644
1.36635
1.36627
1.36618
1.36608
1.36598
1.36587
1.36575
1.36564
1.36551
1.36539
1.36526
1.36512
1.36498
1.36484
1.3647
1.36454
1.36439
1.36423
1.36406
1.36388
1.36371
1.36352
1.36331
1.36311
1.36289
1.36265
1.3624
1.36213
1.36185
1.36154
1.36122
1.36087
1.36049
1.36009
1.35965
1.35919
1.3587
1.35817
1.35762
1.35703
1.35641
1.35576
1.35507
1.35436
1.35362
1.35286
1.35207
1.35125
1.35042
1.34957
1.34871
1.34783
1.34694
1.34604
1.34513
1.34423
1.34331
1.3424
1.34149
1.34059
1.33969
1.33879
1.33791
1.33704
1.33617
1.33532
1.33448
1.33366
1.33285
1.33206
1.33128
1.33052
1.32977
1.32904
1.32833
1.32763
1.32695
1.32629
1.32564
1.325
1.32439
1.32379
1.3232
1.32263
1.32208
1.32153
1.32101
1.3205
1.32
1.31951
1.31904
1.31858
1.31814
1.3177
1.31728
1.31687
1.31648
1.31609
1.31572
1.31536
1.31501
1.31467
1.31435
1.31403
1.31372
1.31343
1.31314
1.31287
1.31261
1.31235
1.31211
1.31187
1.31165
1.31143
1.31122
1.31103
1.31084
1.31066
1.31049
1.31033
1.31018
1.31004
1.30991
1.30979
1.30967
1.30958
1.30949
1.3094
1.30934
1.3093
1.30923
1.30919
1.30925
1.30925
1.30915
1.30929
1.30956
1.30936
1.30932
1.31016
1.31025
1.30942
1.31065
1.31215
1.31075
1.31097
1.31351
1.31377
1.31442
1.34026
1.339
1.33817
1.33734
1.33645
1.33562
1.33487
1.33412
1.33332
1.3326
1.33192
1.33121
1.33053
1.3299
1.32927
1.32866
1.32809
1.32753
1.32699
1.32648
1.32599
1.32552
1.32507
1.32465
1.32425
1.32386
1.3235
1.32316
1.32284
1.32253
1.32225
1.32198
1.32174
1.32151
1.32129
1.3211
1.32092
1.32075
1.3206
1.32047
1.32036
1.32025
1.32017
1.3201
1.32004
1.32
1.31997
1.31996
1.31996
1.31998
1.32001
1.32006
1.32013
1.32021
1.3203
1.32042
1.32055
1.3207
1.32086
1.32104
1.32125
1.32147
1.32171
1.32198
1.32226
1.32257
1.3229
1.32326
1.32363
1.32404
1.32446
1.32492
1.3254
1.32591
1.32645
1.32701
1.3276
1.32822
1.32888
1.32955
1.33026
1.331
1.33176
1.33256
1.33338
1.33422
1.33509
1.33599
1.3369
1.33783
1.33879
1.33975
1.34074
1.34173
1.34273
1.34374
1.34475
1.34576
1.34677
1.34777
1.34877
1.34975
1.35073
1.35168
1.35262
1.35353
1.35442
1.35528
1.35611
1.35691
1.35767
1.3584
1.35909
1.35975
1.36036
1.36094
1.36148
1.36198
1.36244
1.36286
1.36325
1.36361
1.36393
1.36423
1.36449
1.36473
1.36494
1.36513
1.3653
1.36545
1.36558
1.36569
1.36579
1.36588
1.36596
1.36602
1.36608
1.36613
1.36617
1.3662
1.36623
1.36625
1.36627
1.36628
1.3663
1.3663
1.36631
1.36631
1.36632
1.36632
1.36632
1.36632
1.36632
1.36632
1.36631
1.36631
1.36631
1.3663
1.3663
1.3663
1.3663
1.36629
1.36629
1.36629
1.36628
1.36628
1.36628
1.36628
1.36627
1.36627
1.36627
1.36627
1.36627
1.36627
1.36626
1.36626
1.36626
1.36626
1.36626
1.36626
1.36626
1.36626
1.36626
1.36626
1.36626
1.36627
1.36627
1.36627
1.36627
1.36628
1.36628
1.36628
1.36629
1.36629
1.3663
1.36631
1.36631
1.36632
1.36633
1.36634
1.36635
1.36636
1.36637
1.36638
1.36639
1.36641
1.36642
1.36644
1.36645
1.36647
1.36649
1.36651
1.36653
1.36655
1.36657
1.36659
1.36661
1.36663
1.36665
1.36668
1.3667
1.36672
1.36675
1.36677
1.36679
1.36682
1.36684
1.36686
1.36688
1.36689
1.36691
1.36692
1.36693
1.36694
1.36695
1.36695
1.36695
1.36694
1.36693
1.36692
1.3669
1.36688
1.36685
1.36682
1.36678
1.36673
1.36668
1.36662
1.36656
1.36649
1.36642
1.36633
1.36625
1.36616
1.36606
1.36596
1.36585
1.36574
1.36562
1.3655
1.36537
1.36524
1.36511
1.36497
1.36483
1.36468
1.36453
1.36438
1.36422
1.36405
1.36388
1.3637
1.3635
1.36331
1.3631
1.36287
1.36264
1.36239
1.36211
1.36182
1.36151
1.36118
1.36082
1.36044
1.36003
1.35958
1.35911
1.3586
1.35807
1.3575
1.35689
1.35626
1.35559
1.35489
1.35417
1.35342
1.35264
1.35183
1.35101
1.35017
1.34931
1.34844
1.34755
1.34666
1.34575
1.34484
1.34393
1.34302
1.34211
1.3412
1.34029
1.33939
1.3385
1.33762
1.33675
1.33589
1.33504
1.33421
1.33339
1.33259
1.3318
1.33103
1.33028
1.32955
1.32882
1.32812
1.32744
1.32677
1.32612
1.32548
1.32486
1.32426
1.32367
1.3231
1.32254
1.32199
1.32146
1.32095
1.32045
1.31996
1.31948
1.31902
1.31857
1.31814
1.31771
1.3173
1.3169
1.31651
1.31613
1.31577
1.31541
1.31507
1.31474
1.31441
1.3141
1.3138
1.31351
1.31323
1.31296
1.3127
1.31245
1.31221
1.31198
1.31175
1.31154
1.31134
1.31115
1.31096
1.31079
1.31063
1.31047
1.31033
1.31019
1.31007
1.30996
1.30985
1.30976
1.30969
1.30963
1.30956
1.30953
1.30955
1.3095
1.30949
1.30964
1.30971
1.3096
1.30987
1.31034
1.31011
1.31012
1.31138
1.31164
1.31076
1.31221
1.31432
1.31376
1.31376
1.31656
1.3186
1.34109
1.3396
1.3386
1.3376
1.33661
1.33574
1.33491
1.33405
1.33325
1.33252
1.33177
1.33104
1.33038
1.32972
1.32908
1.32847
1.32789
1.32733
1.32679
1.32629
1.3258
1.32533
1.32489
1.32447
1.32407
1.32369
1.32334
1.323
1.32268
1.32238
1.32211
1.32184
1.3216
1.32138
1.32117
1.32097
1.3208
1.32064
1.32049
1.32036
1.32025
1.32015
1.32007
1.32
1.31994
1.3199
1.31987
1.31986
1.31986
1.31988
1.31991
1.31996
1.32002
1.3201
1.3202
1.32031
1.32043
1.32058
1.32074
1.32092
1.32112
1.32134
1.32157
1.32183
1.32211
1.32241
1.32274
1.32309
1.32346
1.32385
1.32428
1.32472
1.32519
1.3257
1.32623
1.32678
1.32737
1.32799
1.32863
1.32931
1.33001
1.33074
1.33151
1.3323
1.33311
1.33396
1.33483
1.33572
1.33664
1.33758
1.33853
1.33951
1.3405
1.34149
1.3425
1.34352
1.34454
1.34556
1.34659
1.3476
1.34861
1.34961
1.3506
1.35157
1.35252
1.35345
1.35435
1.35523
1.35608
1.35689
1.35767
1.35841
1.35912
1.35978
1.36041
1.36099
1.36154
1.36204
1.36251
1.36293
1.36333
1.36368
1.364
1.3643
1.36456
1.36479
1.365
1.36519
1.36535
1.3655
1.36563
1.36574
1.36583
1.36592
1.36599
1.36605
1.36611
1.36615
1.36619
1.36622
1.36624
1.36627
1.36628
1.36629
1.3663
1.36631
1.36632
1.36632
1.36632
1.36632
1.36632
1.36632
1.36632
1.36632
1.36631
1.36631
1.36631
1.3663
1.3663
1.3663
1.36629
1.36629
1.36629
1.36629
1.36628
1.36628
1.36628
1.36627
1.36627
1.36627
1.36627
1.36627
1.36627
1.36626
1.36626
1.36626
1.36626
1.36626
1.36626
1.36626
1.36626
1.36626
1.36626
1.36626
1.36626
1.36626
1.36627
1.36627
1.36627
1.36627
1.36628
1.36628
1.36629
1.36629
1.3663
1.3663
1.36631
1.36632
1.36632
1.36633
1.36634
1.36635
1.36636
1.36637
1.36639
1.3664
1.36641
1.36643
1.36644
1.36646
1.36648
1.3665
1.36651
1.36653
1.36655
1.36657
1.3666
1.36662
1.36664
1.36666
1.36669
1.36671
1.36673
1.36675
1.36678
1.3668
1.36682
1.36684
1.36686
1.36687
1.36689
1.3669
1.36691
1.36692
1.36693
1.36693
1.36693
1.36692
1.36691
1.3669
1.36688
1.36686
1.36683
1.36679
1.36675
1.36671
1.36666
1.3666
1.36654
1.36647
1.36639
1.36631
1.36623
1.36613
1.36604
1.36593
1.36583
1.36572
1.3656
1.36548
1.36536
1.36523
1.36509
1.36496
1.36482
1.36467
1.36453
1.36437
1.36421
1.36405
1.36387
1.36369
1.3635
1.36331
1.36309
1.36287
1.36263
1.36237
1.3621
1.36181
1.36149
1.36115
1.36078
1.36039
1.35996
1.35951
1.35902
1.3585
1.35795
1.35736
1.35674
1.35609
1.3554
1.35469
1.35395
1.35318
1.35238
1.35157
1.35073
1.34988
1.34901
1.34813
1.34723
1.34633
1.34542
1.34451
1.34359
1.34268
1.34176
1.34085
1.33994
1.33905
1.33816
1.33728
1.33641
1.33555
1.33471
1.33389
1.33307
1.33228
1.3315
1.33074
1.33
1.32928
1.32857
1.32787
1.32721
1.32655
1.32591
1.32529
1.32468
1.32409
1.32352
1.32296
1.32242
1.32188
1.32137
1.32087
1.32038
1.3199
1.31944
1.31899
1.31856
1.31813
1.31772
1.31732
1.31693
1.31655
1.31618
1.31582
1.31547
1.31514
1.31481
1.3145
1.31419
1.3139
1.31362
1.31334
1.31308
1.31282
1.31258
1.31234
1.31212
1.3119
1.31169
1.3115
1.31131
1.31113
1.31097
1.31081
1.31066
1.31053
1.3104
1.31028
1.31018
1.3101
1.31001
1.30995
1.30991
1.30988
1.30984
1.30987
1.30994
1.30993
1.30998
1.31025
1.31036
1.31031
1.31079
1.31136
1.31117
1.31155
1.31294
1.31322
1.31314
1.31471
1.31625
1.31707
1.31839
1.31997
1.34168
1.34004
1.3389
1.33775
1.33673
1.33578
1.33482
1.33395
1.33314
1.33234
1.33156
1.33085
1.33016
1.32948
1.32884
1.32824
1.32765
1.32709
1.32656
1.32605
1.32557
1.32511
1.32467
1.32426
1.32387
1.3235
1.32314
1.32281
1.3225
1.32221
1.32194
1.32168
1.32145
1.32123
1.32102
1.32084
1.32066
1.32051
1.32037
1.32024
1.32013
1.32003
1.31995
1.31988
1.31983
1.31979
1.31976
1.31975
1.31975
1.31977
1.3198
1.31985
1.31991
1.31998
1.32008
1.32018
1.32031
1.32045
1.32061
1.32078
1.32097
1.32119
1.32142
1.32167
1.32194
1.32224
1.32256
1.3229
1.32326
1.32365
1.32406
1.3245
1.32497
1.32546
1.32598
1.32653
1.32712
1.32772
1.32836
1.32903
1.32973
1.33046
1.33122
1.332
1.33282
1.33366
1.33453
1.33542
1.33635
1.33728
1.33824
1.33922
1.34022
1.34122
1.34224
1.34327
1.3443
1.34533
1.34636
1.34739
1.34842
1.34943
1.35044
1.35143
1.35239
1.35334
1.35427
1.35516
1.35602
1.35686
1.35766
1.35841
1.35913
1.35981
1.36045
1.36104
1.36159
1.36211
1.36258
1.36301
1.3634
1.36376
1.36408
1.36437
1.36463
1.36486
1.36507
1.36525
1.36542
1.36555
1.36568
1.36579
1.36588
1.36596
1.36603
1.36609
1.36613
1.36617
1.36621
1.36624
1.36626
1.36628
1.3663
1.36631
1.36631
1.36632
1.36632
1.36633
1.36633
1.36633
1.36633
1.36632
1.36632
1.36632
1.36632
1.36631
1.36631
1.36631
1.3663
1.3663
1.36629
1.36629
1.36629
1.36628
1.36628
1.36628
1.36628
1.36627
1.36627
1.36627
1.36627
1.36627
1.36626
1.36626
1.36626
1.36626
1.36626
1.36626
1.36626
1.36626
1.36626
1.36626
1.36626
1.36626