# vtk DataFile Version 2.0
LBE two cylinders
ASCII
DATASET STRUCTURED_POINTS
DIMENSIONS 400 100 1
ASPECT_RATIO 1 1 1
ORIGIN 0 0 0
POINT_DATA 40000
SCALARS rho double 1
LOOKUP_TABLE default
1.33833
1.33558
1.33585
1.33587
1.33493
1.3344
1.33406
1.33338
1.33275
1.3322
1.33159
1.33096
1.33038
1.32979
1.32921
1.32864
1.3281
1.32756
1.32704
1.32654
1.32606
1.3256
1.32516
1.32474
1.32434
1.32396
1.32359
1.32325
1.32292
1.32262
1.32233
1.32206
1.32181
1.32157
1.32136
1.32116
1.32097
1.32081
1.32065
1.32052
1.3204
1.3203
1.32021
1.32014
1.32008
1.32004
1.32001
1.32
1.32
1.32002
1.32006
1.32011
1.32018
1.32026
1.32037
1.32049
1.32062
1.32078
1.32096
1.32115
1.32137
1.3216
1.32186
1.32214
1.32244
1.32276
1.32311
1.32348
1.32388
1.3243
1.32475
1.32522
1.32572
1.32625
1.32681
1.32739
1.328
1.32864
1.32931
1.33
1.33073
1.33148
1.33225
1.33305
1.33387
1.33472
1.33559
1.33648
1.33739
1.33831
1.33925
1.3402
1.34117
1.34214
1.34311
1.34409
1.34507
1.34605
1.34703
1.34799
1.34895
1.34989
1.35082
1.35173
1.35262
1.35349
1.35433
1.35515
1.35593
1.35669
1.35742
1.35811
1.35877
1.35939
1.35999
1.36054
1.36107
1.36155
1.36201
1.36243
1.36283
1.36319
1.36352
1.36383
1.36411
1.36436
1.3646
1.36481
1.365
1.36517
1.36532
1.36546
1.36559
1.3657
1.3658
1.36589
1.36597
1.36604
1.3661
1.36616
1.36621
1.36625
1.36629
1.36633
1.36636
1.36639
1.36642
1.36644
1.36646
1.36648
1.3665
1.36652
1.36654
1.36655
1.36657
1.36658
1.3666
1.36661
1.36662
1.36664
1.36665
1.36666
1.36667
1.36668
1.36669
1.36671
1.36672
1.36673
1.36674
1.36675
1.36676
1.36677
1.36678
1.36679
1.3668
1.36681
1.36682
1.36683
1.36684
1.36684
1.36685
1.36686
1.36687
1.36688
1.36689
1.3669
1.3669
1.36691
1.36692
1.36693
1.36694
1.36695
1.36696
1.36697
1.36698
1.36699
1.367
1.36701
1.36703
1.36704
1.36705
1.36707
1.36708
1.36709
1.36711
1.36712
1.36714
1.36715
1.36717
1.36719
1.36721
1.36722
1.36724
1.36726
1.36727
1.36729
1.36731
1.36733
1.36734
1.36736
1.36737
1.36739
1.3674
1.36742
1.36743
1.36744
1.36745
1.36745
1.36746
1.36746
1.36746
1.36746
1.36745
1.36744
1.36743
1.36742
1.3674
1.36737
1.36735
1.36732
1.36728
1.36724
1.36719
1.36714
1.36709
1.36703
1.36697
1.3669
1.36682
1.36674
1.36666
1.36657
1.36648
1.36638
1.36628
1.36617
1.36607
1.36595
1.36583
1.36571
1.36559
1.36546
1.36533
1.36519
1.36505
1.36491
1.36476
1.3646
1.36444
1.36428
1.36411
1.36393
1.36374
1.36354
1.36334
1.36312
1.36289
1.36264
1.36238
1.36209
1.36179
1.36147
1.36113
1.36076
1.36036
1.35994
1.35949
1.35901
1.35849
1.35795
1.35737
1.35677
1.35613
1.35546
1.35475
1.35402
1.35327
1.35248
1.35167
1.35084
1.34999
1.34913
1.34824
1.34735
1.34644
1.34553
1.34461
1.34369
1.34276
1.34184
1.34092
1.34001
1.3391
1.3382
1.3373
1.33642
1.33555
1.33469
1.33385
1.33302
1.33221
1.33141
1.33062
1.32985
1.3291
1.32837
1.32765
1.32695
1.32627
1.3256
1.32495
1.32432
1.3237
1.3231
1.32252
1.32195
1.3214
1.32086
1.32034
1.31983
1.31933
1.31885
1.31839
1.31794
1.3175
1.31707
1.31666
1.31626
1.31588
1.3155
1.31514
1.31479
1.31445
1.31412
1.3138
1.31349
1.31319
1.31291
1.31263
1.31237
1.31211
1.31187
1.31163
1.3114
1.31119
1.31098
1.31078
1.31059
1.31041
1.31024
1.31008
1.30993
1.30979
1.30965
1.30953
1.30941
1.3093
1.30921
1.30912
1.30904
1.30898
1.30894
1.30887
1.30884
1.30887
1.30883
1.30874
1.30888
1.30906
1.30872
1.3086
1.30955
1.30944
1.30739
1.30837
1.31227
1.30766
1.29894
1.30949
1.31854
1.33645
1.33658
1.33608
1.3354
1.33509
1.3346
1.334
1.33341
1.33286
1.33224
1.33162
1.33103
1.33043
1.32984
1.32926
1.3287
1.32814
1.32761
1.32709
1.32659
1.32611
1.32565
1.3252
1.32478
1.32438
1.32399
1.32363
1.32329
1.32296
1.32265
1.32236
1.32209
1.32184
1.32161
1.32139
1.32119
1.321
1.32084
1.32068
1.32055
1.32043
1.32032
1.32024
1.32016
1.3201
1.32006
1.32003
1.32002
1.32003
1.32005
1.32008
1.32013
1.3202
1.32028
1.32039
1.32051
1.32064
1.3208
1.32097
1.32117
1.32138
1.32162
1.32187
1.32215
1.32245
1.32277
1.32312
1.32349
1.32388
1.3243
1.32475
1.32522
1.32572
1.32625
1.3268
1.32738
1.32799
1.32863
1.32929
1.32999
1.33071
1.33145
1.33222
1.33302
1.33384
1.33469
1.33555
1.33644
1.33734
1.33827
1.3392
1.34015
1.34111
1.34208
1.34306
1.34404
1.34501
1.34599
1.34696
1.34793
1.34888
1.34983
1.35076
1.35167
1.35256
1.35342
1.35427
1.35508
1.35587
1.35663
1.35736
1.35805
1.35872
1.35934
1.35994
1.3605
1.36102
1.36151
1.36197
1.3624
1.36279
1.36316
1.36349
1.3638
1.36408
1.36434
1.36457
1.36479
1.36498
1.36515
1.36531
1.36545
1.36558
1.36569
1.36579
1.36588
1.36596
1.36603
1.3661
1.36615
1.3662
1.36625
1.36629
1.36633
1.36636
1.36639
1.36642
1.36644
1.36646
1.36648
1.3665
1.36652
1.36654
1.36655
1.36657
1.36658
1.36659
1.36661
1.36662
1.36663
1.36664
1.36666
1.36667
1.36668
1.36669
1.3667
1.36671
1.36672
1.36673
1.36675
1.36676
1.36677
1.36678
1.36678
1.36679
1.3668
1.36681
1.36682
1.36683
1.36684
1.36685
1.36686
1.36686
1.36687
1.36688
1.36689
1.3669
1.36691
1.36692
1.36693
1.36693
1.36694
1.36695
1.36696
1.36697
1.36698
1.367
1.36701
1.36702
1.36703
1.36704
1.36706
1.36707
1.36708
1.3671
1.36711
1.36713
1.36714
1.36716
1.36718
1.36719
1.36721
1.36723
1.36724
1.36726
1.36728
1.36729
1.36731
1.36733
1.36734
1.36736
1.36737
1.36739
1.3674
1.36741
1.36742
1.36743
1.36743
1.36744
1.36744
1.36744
1.36744
1.36743
1.36742
1.36741
1.36739
1.36737
1.36735
1.36732
1.36729
1.36726
1.36722
1.36717
1.36712
1.36707
1.36701
1.36694
1.36687
1.3668
1.36672
1.36663
1.36655
1.36645
1.36635
1.36625
1.36615
1.36603
1.36592
1.3658
1.36568
1.36555
1.36542
1.36529
1.36515
1.36501
1.36486
1.36471
1.36456
1.36439
1.36423
1.36405
1.36387
1.36368
1.36348
1.36327
1.36305
1.36282
1.36257
1.3623
1.36202
1.36172
1.36139
1.36105
1.36068
1.36028
1.35986
1.35941
1.35893
1.35842
1.35787
1.3573
1.3567
1.35606
1.35539
1.35469
1.35397
1.35321
1.35243
1.35163
1.35081
1.34996
1.3491
1.34822
1.34733
1.34643
1.34552
1.34461
1.34369
1.34277
1.34185
1.34093
1.34002
1.33912
1.33822
1.33733
1.33645
1.33559
1.33473
1.33389
1.33306
1.33225
1.33145
1.33067
1.3299
1.32915
1.32842
1.3277
1.327
1.32632
1.32565
1.325
1.32437
1.32375
1.32315
1.32257
1.322
1.32144
1.3209
1.32038
1.31987
1.31938
1.3189
1.31843
1.31798
1.31754
1.31711
1.3167
1.3163
1.31591
1.31553
1.31517
1.31481
1.31447
1.31414
1.31382
1.31351
1.31321
1.31293
1.31265
1.31238
1.31212
1.31188
1.31164
1.31141
1.31119
1.31098
1.31078
1.31059
1.31041
1.31023
1.31007
1.30991
1.30977
1.30963
1.3095
1.30938
1.30927
1.30917
1.30908
1.30899
1.30891
1.30885
1.30881
1.30875
1.30869
1.30872
1.30873
1.3086
1.3086
1.30886
1.30869
1.3082
1.30863
1.30931
1.3076
1.30613
1.30878
1.30823
1.29838
1.29292
1.33577
1.33675
1.33603
1.33531
1.33529
1.33471
1.33399
1.3335
1.33294
1.33227
1.33167
1.33109
1.33047
1.32987
1.3293
1.32873
1.32817
1.32763
1.32712
1.32661
1.32613
1.32567
1.32522
1.3248
1.3244
1.32401
1.32365
1.3233
1.32298
1.32267
1.32238
1.32211
1.32185
1.32162
1.3214
1.3212
1.32102
1.32085
1.3207
1.32056
1.32044
1.32034
1.32025
1.32017
1.32011
1.32007
1.32004
1.32003
1.32003
1.32005
1.32009
1.32014
1.32021
1.32029
1.32039
1.32051
1.32065
1.3208
1.32097
1.32117
1.32138
1.32161
1.32187
1.32214
1.32244
1.32276
1.32311
1.32347
1.32387
1.32428
1.32473
1.3252
1.32569
1.32622
1.32677
1.32735
1.32795
1.32859
1.32925
1.32994
1.33066
1.3314
1.33217
1.33296
1.33378
1.33463
1.33549
1.33638
1.33728
1.3382
1.33914
1.34009
1.34104
1.34201
1.34299
1.34397
1.34495
1.34593
1.3469
1.34787
1.34882
1.34977
1.3507
1.35161
1.3525
1.35338
1.35422
1.35504
1.35583
1.3566
1.35733
1.35803
1.35869
1.35932
1.35992
1.36048
1.36101
1.3615
1.36196
1.36239
1.36279
1.36315
1.36349
1.3638
1.36408
1.36434
1.36458
1.36479
1.36498
1.36516
1.36531
1.36545
1.36558
1.36569
1.36579
1.36589
1.36596
1.36604
1.3661
1.36616
1.36621
1.36625
1.36629
1.36633
1.36636
1.36639
1.36642
1.36644
1.36646
1.36648
1.3665
1.36652
1.36654
1.36655
1.36657
1.36658
1.36659
1.36661
1.36662
1.36663
1.36664
1.36666
1.36667
1.36668
1.36669
1.3667
1.36671
1.36672
1.36673
1.36674
1.36675
1.36676
1.36677
1.36678
1.36679
1.3668
1.36681
1.36682
1.36683
1.36684
1.36684
1.36685
1.36686
1.36687
1.36688
1.36689
1.36689
1.3669
1.36691
1.36692
1.36693
1.36694
1.36695
1.36696
1.36697
1.36698
1.36699
1.367
1.36701
1.36702
1.36704
1.36705
1.36706
1.36708
1.36709
1.36711
1.36712
1.36714
1.36715
1.36717
1.36718
1.3672
1.36722
1.36723
1.36725
1.36727
1.36728
1.3673
1.36731
1.36733
1.36734
1.36736
1.36737
1.36738
1.36739
1.3674
1.36741
1.36742
1.36742
1.36742
1.36742
1.36742
1.36741
1.3674
1.36739
1.36737
1.36736
1.36733
1.3673
1.36727
1.36724
1.3672
1.36715
1.3671
1.36705
1.36699
1.36692
1.36685
1.36678
1.3667
1.36661
1.36652
1.36643
1.36633
1.36623
1.36612
1.36601
1.36589
1.36577
1.36565
1.36552
1.36539
1.36525
1.36511
1.36497
1.36482
1.36467
1.36451
1.36435
1.36418
1.36401
1.36382
1.36363
1.36343
1.36322
1.363
1.36276
1.36251
1.36224
1.36196
1.36166
1.36133
1.36099
1.36062
1.36022
1.3598
1.35935
1.35887
1.35836
1.35782
1.35724
1.35664
1.356
1.35534
1.35464
1.35392
1.35317
1.35239
1.35159
1.35077
1.34992
1.34906
1.34819
1.3473
1.3464
1.3455
1.34459
1.34367
1.34276
1.34184
1.34093
1.34002
1.33912
1.33822
1.33734
1.33646
1.3356
1.33474
1.3339
1.33308
1.33227
1.33147
1.33069
1.32993
1.32918
1.32845
1.32773
1.32703
1.32635
1.32568
1.32503
1.3244
1.32378
1.32318
1.3226
1.32203
1.32147
1.32094
1.32041
1.3199
1.31941
1.31893
1.31846
1.318
1.31756
1.31714
1.31672
1.31632
1.31593
1.31555
1.31519
1.31483
1.31449
1.31416
1.31383
1.31352
1.31322
1.31294
1.31266
1.31239
1.31213
1.31188
1.31164
1.31141
1.31119
1.31098
1.31077
1.31058
1.3104
1.31022
1.31005
1.3099
1.30975
1.3096
1.30947
1.30935
1.30923
1.30912
1.30903
1.30895
1.30886
1.30877
1.30873
1.3087
1.30859
1.30855
1.30866
1.30858
1.30828
1.30853
1.30892
1.30806
1.30748
1.30933
1.309
1.30422
1.30621
1.31304
1.30069
1.28856
1.33619
1.33626
1.33612
1.33587
1.33533
1.33467
1.33419
1.33361
1.33294
1.33233
1.33174
1.3311
1.33049
1.3299
1.32931
1.32873
1.32818
1.32764
1.32711
1.32661
1.32613
1.32566
1.32522
1.32479
1.32439
1.324
1.32364
1.32329
1.32297
1.32266
1.32237
1.3221
1.32185
1.32161
1.32139
1.32119
1.32101
1.32084
1.32069
1.32055
1.32043
1.32033
1.32024
1.32017
1.32011
1.32006
1.32004
1.32002
1.32003
1.32004
1.32008
1.32013
1.32019
1.32028
1.32038
1.32049
1.32063
1.32078
1.32095
1.32114
1.32135
1.32159
1.32184
1.32211
1.32241
1.32272
1.32307
1.32343
1.32382
1.32424
1.32468
1.32514
1.32564
1.32616
1.3267
1.32728
1.32788
1.32852
1.32917
1.32986
1.33057
1.33132
1.33208
1.33288
1.33369
1.33454
1.3354
1.33628
1.33719
1.33811
1.33905
1.34
1.34096
1.34193
1.3429
1.34389
1.34487
1.34585
1.34683
1.3478
1.34876
1.34971
1.35064
1.35156
1.35246
1.35334
1.35419
1.35502
1.35581
1.35658
1.35731
1.35802
1.35869
1.35932
1.35992
1.36049
1.36102
1.36152
1.36198
1.36241
1.36281
1.36317
1.36351
1.36382
1.3641
1.36436
1.3646
1.36481
1.365
1.36517
1.36533
1.36547
1.3656
1.36571
1.36581
1.3659
1.36598
1.36605
1.36611
1.36617
1.36622
1.36626
1.3663
1.36633
1.36637
1.36639
1.36642
1.36644
1.36647
1.36649
1.3665
1.36652
1.36654
1.36655
1.36657
1.36658
1.36659
1.36661
1.36662
1.36663
1.36664
1.36666
1.36667
1.36668
1.36669
1.3667
1.36671
1.36672
1.36673
1.36674
1.36675
1.36676
1.36677
1.36678
1.36679
1.3668
1.36681
1.36682
1.36683
1.36683
1.36684
1.36685
1.36686
1.36687
1.36688
1.36688
1.36689
1.3669
1.36691
1.36692
1.36693
1.36694
1.36695
1.36696
1.36696
1.36698
1.36699
1.367
1.36701
1.36702
1.36703
1.36704
1.36706
1.36707
1.36708
1.3671
1.36711
1.36713
1.36714
1.36716
1.36717
1.36719
1.36721
1.36722
1.36724
1.36726
1.36727
1.36729
1.3673
1.36732
1.36733
1.36735
1.36736
1.36737
1.36738
1.36739
1.3674
1.3674
1.36741
1.36741
1.36741
1.3674
1.3674
1.36739
1.36738
1.36736
1.36734
1.36732
1.36729
1.36726
1.36722
1.36718
1.36714
1.36709
1.36703
1.36697
1.36691
1.36684
1.36676
1.36668
1.3666
1.36651
1.36641
1.36631
1.36621
1.3661
1.36599
1.36587
1.36575
1.36562
1.3655
1.36536
1.36523
1.36509
1.36494
1.36479
1.36464
1.36448
1.36432
1.36414
1.36397
1.36378
1.36359
1.36339
1.36318
1.36295
1.36272
1.36246
1.3622
1.36191
1.36161
1.36128
1.36094
1.36056
1.36017
1.35974
1.35929
1.35881
1.3583
1.35776
1.35718
1.35658
1.35594
1.35528
1.35458
1.35386
1.3531
1.35233
1.35152
1.3507
1.34986
1.349
1.34813
1.34724
1.34634
1.34544
1.34453
1.34362
1.3427
1.34179
1.34088
1.33997
1.33907
1.33818
1.3373
1.33642
1.33556
1.33471
1.33388
1.33305
1.33225
1.33145
1.33068
1.32991
1.32917
1.32844
1.32773
1.32703
1.32635
1.32569
1.32504
1.32441
1.32379
1.32319
1.32261
1.32204
1.32149
1.32095
1.32043
1.31992
1.31942
1.31894
1.31848
1.31802
1.31758
1.31715
1.31674
1.31634
1.31595
1.31557
1.3152
1.31485
1.3145
1.31417
1.31385
1.31354
1.31324
1.31295
1.31267
1.3124
1.31214
1.31189
1.31165
1.31142
1.31119
1.31098
1.31078
1.31058
1.3104
1.31022
1.31005
1.30989
1.30974
1.3096
1.30946
1.30933
1.30922
1.30911
1.309
1.30891
1.30884
1.30877
1.30867
1.30863
1.30865
1.30853
1.3084
1.30858
1.30865
1.30815
1.30817
1.30906
1.30844
1.30676
1.3084
1.31006
1.30533
1.30328
1.30865
1.30928
1.33697
1.33666
1.3365
1.33613
1.33539
1.33483
1.33436
1.33364
1.33298
1.3324
1.33175
1.33109
1.33049
1.32989
1.32928
1.32871
1.32815
1.3276
1.32708
1.32658
1.32609
1.32562
1.32518
1.32476
1.32435
1.32397
1.3236
1.32326
1.32293
1.32263
1.32234
1.32207
1.32182
1.32158
1.32136
1.32117
1.32098
1.32081
1.32066
1.32053
1.32041
1.3203
1.32022
1.32014
1.32008
1.32004
1.32001
1.32
1.32
1.32002
1.32005
1.3201
1.32016
1.32025
1.32034
1.32046
1.32059
1.32074
1.32091
1.3211
1.32131
1.32154
1.32179
1.32206
1.32235
1.32266
1.323
1.32336
1.32375
1.32416
1.3246
1.32506
1.32555
1.32607
1.32661
1.32718
1.32778
1.32841
1.32906
1.32975
1.33046
1.3312
1.33196
1.33276
1.33357
1.33441
1.33528
1.33616
1.33707
1.33799
1.33893
1.33988
1.34085
1.34182
1.3428
1.34379
1.34477
1.34576
1.34674
1.34772
1.34869
1.34965
1.35059
1.35151
1.35242
1.3533
1.35416
1.35499
1.3558
1.35657
1.35732
1.35803
1.3587
1.35934
1.35994
1.36052
1.36105
1.36155
1.36201
1.36244
1.36284
1.36321
1.36355
1.36386
1.36414
1.3644
1.36463
1.36484
1.36503
1.3652
1.36536
1.3655
1.36562
1.36573
1.36583
1.36592
1.36599
1.36606
1.36612
1.36618
1.36623
1.36627
1.36631
1.36634
1.36638
1.3664
1.36643
1.36645
1.36647
1.36649
1.36651
1.36653
1.36654
1.36656
1.36657
1.36658
1.3666
1.36661
1.36662
1.36663
1.36665
1.36666
1.36667
1.36668
1.36669
1.3667
1.36671
1.36672
1.36673
1.36674
1.36675
1.36676
1.36677
1.36678
1.36679
1.3668
1.36681
1.36682
1.36683
1.36684
1.36684
1.36685
1.36686
1.36687
1.36688
1.36688
1.36689
1.3669
1.36691
1.36692
1.36693
1.36693
1.36694
1.36695
1.36696
1.36697
1.36698
1.36699
1.367
1.36702
1.36703
1.36704
1.36705
1.36707
1.36708
1.36709
1.36711
1.36712
1.36714
1.36715
1.36717
1.36718
1.3672
1.36721
1.36723
1.36725
1.36726
1.36728
1.36729
1.36731
1.36732
1.36733
1.36735
1.36736
1.36737
1.36738
1.36738
1.36739
1.36739
1.3674
1.36739
1.36739
1.36738
1.36738
1.36736
1.36735
1.36733
1.3673
1.36728
1.36725
1.36721
1.36717
1.36712
1.36707
1.36702
1.36696
1.36689
1.36682
1.36675
1.36667
1.36658
1.36649
1.3664
1.3663
1.36619
1.36608
1.36597
1.36585
1.36573
1.36561
1.36548
1.36534
1.36521
1.36506
1.36492
1.36477
1.36461
1.36445
1.36429
1.36412
1.36394
1.36375
1.36356
1.36336
1.36315
1.36292
1.36268
1.36243
1.36216
1.36187
1.36157
1.36124
1.36089
1.36052
1.36012
1.35969
1.35923
1.35875
1.35823
1.35769
1.35711
1.3565
1.35586
1.35519
1.35449
1.35376
1.353
1.35222
1.35142
1.3506
1.34975
1.34889
1.34802
1.34713
1.34623
1.34533
1.34442
1.34351
1.34259
1.34168
1.34077
1.33987
1.33897
1.33808
1.3372
1.33633
1.33547
1.33463
1.3338
1.33298
1.33218
1.33139
1.33061
1.32986
1.32912
1.32839
1.32768
1.32699
1.32632
1.32566
1.32501
1.32439
1.32378
1.32318
1.3226
1.32203
1.32149
1.32095
1.32043
1.31992
1.31943
1.31895
1.31849
1.31803
1.3176
1.31717
1.31676
1.31635
1.31597
1.31559
1.31522
1.31487
1.31452
1.31419
1.31387
1.31356
1.31326
1.31297
1.31269
1.31242
1.31216
1.31191
1.31167
1.31144
1.31121
1.311
1.3108
1.3106
1.31042
1.31024
1.31007
1.30991
1.30976
1.30961
1.30948
1.30935
1.30923
1.30913
1.30904
1.30893
1.30885
1.30881
1.30874
1.30864
1.30864
1.30869
1.30853
1.30844
1.30877
1.30875
1.30812
1.3086
1.30961
1.30808
1.30715
1.31053
1.30984
1.30491
1.30824
1.31077
1.33787
1.33744
1.33689
1.33624
1.33569
1.33511
1.33438
1.33368
1.33308
1.3324
1.33172
1.33109
1.33046
1.32983
1.32923
1.32865
1.32808
1.32754
1.32701
1.3265
1.32602
1.32555
1.32511
1.32468
1.32428
1.3239
1.32353
1.32319
1.32287
1.32256
1.32228
1.32201
1.32176
1.32153
1.32131
1.32111
1.32093
1.32077
1.32062
1.32048
1.32036
1.32026
1.32017
1.3201
1.32004
1.32
1.31997
1.31996
1.31996
1.31997
1.32001
1.32005
1.32012
1.3202
1.32029
1.32041
1.32054
1.32069
1.32085
1.32104
1.32124
1.32147
1.32171
1.32198
1.32227
1.32258
1.32291
1.32327
1.32365
1.32406
1.32449
1.32495
1.32543
1.32595
1.32648
1.32705
1.32765
1.32827
1.32892
1.32961
1.33031
1.33105
1.33181
1.3326
1.33342
1.33426
1.33512
1.33601
1.33692
1.33784
1.33878
1.33974
1.34071
1.34168
1.34267
1.34366
1.34466
1.34565
1.34664
1.34763
1.3486
1.34957
1.35052
1.35146
1.35237
1.35326
1.35413
1.35498
1.35579
1.35657
1.35732
1.35804
1.35872
1.35937
1.35998
1.36056
1.36109
1.3616
1.36206
1.3625
1.3629
1.36326
1.3636
1.36391
1.36419
1.36445
1.36468
1.36489
1.36508
1.36524
1.36539
1.36553
1.36565
1.36576
1.36586
1.36594
1.36602
1.36609
1.36615
1.3662
1.36624
1.36629
1.36632
1.36636
1.36639
1.36641
1.36644
1.36646
1.36648
1.3665
1.36652
1.36653
1.36655
1.36656
1.36658
1.36659
1.3666
1.36661
1.36663
1.36664
1.36665
1.36666
1.36667
1.36668
1.36669
1.3667
1.36671
1.36673
1.36674
1.36675
1.36676
1.36677
1.36677
1.36678
1.36679
1.3668
1.36681
1.36682
1.36683
1.36684
1.36684
1.36685
1.36686
1.36687
1.36688
1.36689
1.36689
1.3669
1.36691
1.36692
1.36693
1.36694
1.36694
1.36695
1.36696
1.36697
1.36698
1.36699
1.367
1.36701
1.36703
1.36704
1.36705
1.36706
1.36708
1.36709
1.3671
1.36712
1.36713
1.36715
1.36716
1.36718
1.36719
1.36721
1.36722
1.36724
1.36725
1.36727
1.36728
1.3673
1.36731
1.36732
1.36734
1.36735
1.36736
1.36737
1.36737
1.36738
1.36738
1.36738
1.36738
1.36738
1.36737
1.36737
1.36735
1.36734
1.36732
1.36729
1.36727
1.36723
1.3672
1.36716
1.36711
1.36706
1.36701
1.36695
1.36688
1.36681
1.36674
1.36666
1.36657
1.36648
1.36638
1.36628
1.36618
1.36607
1.36596
1.36584
1.36572
1.36559
1.36546
1.36533
1.36519
1.36505
1.3649
1.36475
1.3646
1.36444
1.36427
1.3641
1.36392
1.36374
1.36354
1.36334
1.36312
1.3629
1.36266
1.3624
1.36213
1.36184
1.36153
1.3612
1.36085
1.36047
1.36007
1.35963
1.35917
1.35868
1.35816
1.3576
1.35702
1.3564
1.35575
1.35507
1.35437
1.35363
1.35287
1.35208
1.35127
1.35044
1.34959
1.34873
1.34785
1.34696
1.34606
1.34515
1.34424
1.34333
1.34242
1.34151
1.3406
1.3397
1.3388
1.33792
1.33704
1.33618
1.33532
1.33448
1.33365
1.33284
1.33204
1.33126
1.3305
1.32975
1.32901
1.32829
1.32759
1.32691
1.32624
1.32559
1.32495
1.32433
1.32373
1.32314
1.32257
1.32201
1.32146
1.32093
1.32042
1.31992
1.31943
1.31895
1.31849
1.31804
1.31761
1.31719
1.31678
1.31638
1.31599
1.31562
1.31525
1.3149
1.31456
1.31423
1.31391
1.3136
1.3133
1.31301
1.31273
1.31246
1.3122
1.31195
1.31171
1.31148
1.31126
1.31105
1.31085
1.31065
1.31047
1.31029
1.31012
1.30997
1.30982
1.30967
1.30954
1.30942
1.30931
1.3092
1.30911
1.30904
1.30895
1.30888
1.30887
1.30884
1.30872
1.30876
1.30894
1.30877
1.30859
1.30917
1.30939
1.30844
1.30891
1.31074
1.30936
1.30767
1.31097
1.31278
1.30978
1.30945
1.33891
1.3381
1.33736
1.33661
1.33598
1.33522
1.33444
1.33378
1.3331
1.33235
1.33169
1.33105
1.33038
1.32975
1.32915
1.32855
1.32798
1.32743
1.3269
1.32639
1.32591
1.32544
1.325
1.32458
1.32418
1.3238
1.32343
1.3231
1.32277
1.32247
1.32219
1.32192
1.32168
1.32145
1.32124
1.32104
1.32086
1.3207
1.32055
1.32042
1.3203
1.3202
1.32011
1.32004
1.31998
1.31994
1.31991
1.3199
1.3199
1.31991
1.31995
1.31999
1.32005
1.32013
1.32023
1.32034
1.32047
1.32061
1.32077
1.32096
1.32116
1.32138
1.32162
1.32188
1.32216
1.32247
1.3228
1.32315
1.32353
1.32393
1.32436
1.32481
1.32529
1.3258
1.32633
1.32689
1.32748
1.3281
1.32875
1.32943
1.33013
1.33087
1.33163
1.33242
1.33323
1.33407
1.33494
1.33582
1.33673
1.33766
1.3386
1.33957
1.34054
1.34152
1.34252
1.34351
1.34452
1.34552
1.34652
1.34751
1.3485
1.34948
1.35044
1.35139
1.35231
1.35322
1.3541
1.35495
1.35578
1.35657
1.35733
1.35806
1.35875
1.35941
1.36002
1.3606
1.36115
1.36165
1.36212
1.36256
1.36296
1.36333
1.36366
1.36397
1.36425
1.36451
1.36473
1.36494
1.36512
1.36529
1.36544
1.36557
1.36569
1.3658
1.36589
1.36597
1.36605
1.36611
1.36617
1.36622
1.36626
1.36631
1.36634
1.36637
1.3664
1.36643
1.36645
1.36647
1.36649
1.36651
1.36652
1.36654
1.36655
1.36657
1.36658
1.36659
1.36661
1.36662
1.36663
1.36664
1.36665
1.36667
1.36668
1.36669
1.3667
1.36671
1.36672
1.36673
1.36674
1.36675
1.36676
1.36677
1.36678
1.36679
1.3668
1.36681
1.36681
1.36682
1.36683
1.36684
1.36685
1.36686
1.36686
1.36687
1.36688
1.36689
1.3669
1.3669
1.36691
1.36692
1.36693
1.36694
1.36694
1.36695
1.36696
1.36697
1.36698
1.36699
1.367
1.36701
1.36702
1.36704
1.36705
1.36706
1.36707
1.36709
1.3671
1.36711
1.36713
1.36714
1.36716
1.36717
1.36719
1.3672
1.36722
1.36723
1.36725
1.36726
1.36728
1.36729
1.3673
1.36732
1.36733
1.36734
1.36735
1.36736
1.36736
1.36737
1.36737
1.36738
1.36737
1.36737
1.36736
1.36736
1.36734
1.36733
1.36731
1.36728
1.36726
1.36723
1.36719
1.36715
1.3671
1.36705
1.367
1.36694
1.36687
1.3668
1.36673
1.36665
1.36656
1.36647
1.36637
1.36627
1.36617
1.36606
1.36595
1.36583
1.36571
1.36558
1.36545
1.36532
1.36518
1.36504
1.36489
1.36474
1.36459
1.36443
1.36427
1.36409
1.36391
1.36373
1.36353
1.36333
1.36311
1.36288
1.36264
1.36238
1.36211
1.36182
1.3615
1.36117
1.36081
1.36042
1.36001
1.35957
1.3591
1.3586
1.35807
1.3575
1.35691
1.35628
1.35562
1.35493
1.35421
1.35346
1.35269
1.35189
1.35107
1.35024
1.34938
1.34851
1.34762
1.34673
1.34583
1.34492
1.34401
1.34309
1.34218
1.34127
1.34036
1.33946
1.33857
1.33769
1.33681
1.33595
1.3351
1.33427
1.33345
1.33264
1.33185
1.33108
1.33032
1.32958
1.32886
1.32815
1.32745
1.32678
1.32612
1.32548
1.32485
1.32425
1.32365
1.32307
1.32251
1.32196
1.32142
1.3209
1.32039
1.3199
1.31942
1.31895
1.3185
1.31805
1.31762
1.31721
1.3168
1.31641
1.31602
1.31565
1.31529
1.31495
1.31461
1.31428
1.31396
1.31366
1.31336
1.31307
1.3128
1.31253
1.31227
1.31203
1.31179
1.31156
1.31134
1.31113
1.31093
1.31074
1.31056
1.31039
1.31022
1.31007
1.30992
1.30979
1.30966
1.30954
1.30944
1.30935
1.30926
1.30919
1.30915
1.30908
1.30904
1.30909
1.30909
1.30899
1.30913
1.3094
1.3092
1.30917
1.31001
1.3101
1.30928
1.31051
1.312
1.31061
1.31083
1.31338
1.31364
1.3143
1.33993
1.33868
1.33785
1.33703
1.33614
1.33531
1.33457
1.33382
1.33303
1.33231
1.33163
1.33093
1.33026
1.32963
1.32901
1.3284
1.32783
1.32728
1.32675
1.32624
1.32576
1.3253
1.32485
1.32444
1.32404
1.32366
1.32331
1.32297
1.32265
1.32236
1.32208
1.32182
1.32157
1.32135
1.32114
1.32095
1.32077
1.32061
1.32046
1.32033
1.32022
1.32012
1.32003
1.31996
1.31991
1.31986
1.31984
1.31982
1.31982
1.31984
1.31987
1.31991
1.31997
1.32005
1.32014
1.32025
1.32038
1.32052
1.32068
1.32086
1.32105
1.32127
1.32151
1.32176
1.32204
1.32234
1.32266
1.32301
1.32338
1.32378
1.3242
1.32465
1.32512
1.32562
1.32615
1.32671
1.32729
1.32791
1.32855
1.32922
1.32992
1.33065
1.33141
1.3322
1.33301
1.33385
1.33472
1.33561
1.33651
1.33745
1.33839
1.33936
1.34034
1.34133
1.34233
1.34334
1.34435
1.34536
1.34637
1.34738
1.34837
1.34936
1.35034
1.3513
1.35224
1.35316
1.35405
1.35492
1.35576
1.35657
1.35734
1.35808
1.35878
1.35945
1.36007
1.36066
1.36121
1.36172
1.36219
1.36263
1.36303
1.3634
1.36373
1.36404
1.36432
1.36457
1.3648
1.365
1.36518
1.36535
1.36549
1.36562
1.36573
1.36584
1.36593
1.36601
1.36608
1.36614
1.36619
1.36624
1.36629
1.36633
1.36636
1.36639
1.36642
1.36644
1.36646
1.36648
1.3665
1.36652
1.36653
1.36655
1.36656
1.36658
1.36659
1.3666
1.36661
1.36663
1.36664
1.36665
1.36666
1.36667
1.36668
1.36669
1.3667
1.36671
1.36672
1.36673
1.36674
1.36675
1.36676
1.36677
1.36678
1.36679
1.3668
1.36681
1.36682
1.36683
1.36684
1.36684
1.36685
1.36686
1.36687
1.36688
1.36688
1.36689
1.3669
1.36691
1.36691
1.36692
1.36693
1.36694
1.36695
1.36696
1.36696
1.36697
1.36698
1.36699
1.367
1.36701
1.36702
1.36704
1.36705
1.36706
1.36707
1.36708
1.3671
1.36711
1.36712
1.36714
1.36715
1.36717
1.36718
1.3672
1.36721
1.36723
1.36724
1.36726
1.36727
1.36728
1.3673
1.36731
1.36732
1.36733
1.36734
1.36735
1.36736
1.36736
1.36737
1.36737
1.36737
1.36736
1.36736
1.36735
1.36733
1.36732
1.3673
1.36727
1.36725
1.36722
1.36718
1.36714
1.36709
1.36704
1.36699
1.36693
1.36686
1.36679
1.36672
1.36663
1.36655
1.36646
1.36636
1.36626
1.36616
1.36605
1.36594
1.36582
1.3657
1.36557
1.36545
1.36531
1.36518
1.36504
1.36489
1.36474
1.36459
1.36443
1.36426
1.36409
1.36391
1.36373
1.36353
1.36332
1.36311
1.36288
1.36263
1.36237
1.36209
1.3618
1.36148
1.36114
1.36077
1.36038
1.35996
1.35951
1.35902
1.35851
1.35797
1.35739
1.35677
1.35613
1.35546
1.35475
1.35402
1.35326
1.35247
1.35166
1.35084
1.34999
1.34912
1.34824
1.34735
1.34645
1.34555
1.34463
1.34372
1.3428
1.34189
1.34097
1.34007
1.33917
1.33828
1.3374
1.33653
1.33567
1.33483
1.334
1.33318
1.33239
1.3316
1.33084
1.33009
1.32936
1.32864
1.32795
1.32727
1.3266
1.32596
1.32533
1.32472
1.32412
1.32354
1.32297
1.32242
1.32188
1.32136
1.32084
1.32035
1.31987
1.31939
1.31894
1.31849
1.31806
1.31764
1.31723
1.31683
1.31645
1.31607
1.31571
1.31535
1.31501
1.31468
1.31435
1.31404
1.31374
1.31345
1.31317
1.3129
1.31263
1.31238
1.31214
1.3119
1.31168
1.31146
1.31126
1.31106
1.31087
1.3107
1.31053
1.31037
1.31022
1.31008
1.30996
1.30984
1.30973
1.30963
1.30956
1.30949
1.30942
1.30939
1.3094
1.30936
1.30934
1.30949
1.30956
1.30945
1.30972
1.3102
1.30996
1.30998
1.31124
1.3115
1.31062
1.31208
1.3142
1.31363
1.31364
1.31645
1.31849
1.34076
1.33927
1.33828
1.33728
1.3363
1.33544
1.3346
1.33375
1.33296
1.33223
1.33149
1.33077
1.3301
1.32945
1.32882
1.32822
1.32764
1.32709
1.32656
1.32606
1.32557
1.32511
1.32468
1.32426
1.32387
1.3235
1.32315
1.32282
1.32251
1.32222
1.32194
1.32169
1.32145
1.32123
1.32102
1.32083
1.32066
1.32051
1.32036
1.32024
1.32012
1.32003
1.31994
1.31987
1.31982
1.31978
1.31975
1.31974
1.31974
1.31975
1.31978
1.31982
1.31988
1.31996
1.32005
1.32015
1.32027
1.32041
1.32057
1.32074
1.32094
1.32115
1.32138
1.32163
1.3219
1.32219
1.32251
1.32285
1.32321
1.3236
1.32402
1.32446
1.32492
1.32542
1.32594
1.32649
1.32707
1.32768
1.32831
1.32898
1.32968
1.3304
1.33116
1.33195
1.33275
1.33359
1.33446
1.33535
1.33626
1.3372
1.33815
1.33912
1.3401
1.3411
1.34211
1.34313
1.34414
1.34517
1.34619
1.34721
1.34822
1.34922
1.35021
1.35119
1.35214
1.35308
1.35399
1.35487
1.35573
1.35655
1.35734
1.35809
1.35881
1.35948
1.36012
1.36071
1.36127
1.36179
1.36226
1.3627
1.36311
1.36348
1.36381
1.36412
1.36439
1.36464
1.36486
1.36507
1.36524
1.3654
1.36555
1.36567
1.36578
1.36588
1.36597
1.36604
1.36611
1.36617
1.36622
1.36627
1.36631
1.36635
1.36638
1.36641
1.36643
1.36646
1.36648
1.3665
1.36651
1.36653
1.36655
1.36656
1.36657
1.36659
1.3666
1.36661
1.36662
1.36663
1.36664
1.36666
1.36667
1.36668
1.36669
1.3667
1.36671
1.36672
1.36673
1.36674
1.36675
1.36676
1.36677
1.36678
1.36679
1.3668
1.36681
1.36681
1.36682
1.36683
1.36684
1.36685
1.36686
1.36686
1.36687
1.36688
1.36689
1.36689
1.3669
1.36691
1.36692
1.36693
1.36693
1.36694
1.36695
1.36696
1.36697
1.36698
1.36699
1.367
1.36701
1.36702
1.36703
1.36704
1.36705
1.36706
1.36707
1.36708
1.3671
1.36711
1.36712
1.36714
1.36715
1.36717
1.36718
1.36719
1.36721
1.36722
1.36724
1.36725
1.36726
1.36728
1.36729
1.3673
1.36731
1.36733
1.36733
1.36734
1.36735
1.36735
1.36736
1.36736
1.36736
1.36735
1.36735
1.36734
1.36732
1.36731
1.36729
1.36726
1.36724
1.3672
1.36717
1.36713
1.36708
1.36703
1.36698
1.36692
1.36685
1.36678
1.3667
1.36662
1.36654
1.36645
1.36635
1.36625
1.36615
1.36604
1.36593
1.36581
1.36569
1.36557
1.36544
1.36531
1.36517
1.36503
1.36489
1.36474
1.36459
1.36443
1.36426
1.3641
1.36392
1.36373
1.36354
1.36333
1.36311
1.36288
1.36263
1.36237
1.36208
1.36178
1.36146
1.36111
1.36073
1.36033
1.3599
1.35944
1.35894
1.35841
1.35785
1.35725
1.35663
1.35597
1.35527
1.35455
1.3538
1.35303
1.35222
1.3514
1.35056
1.3497
1.34882
1.34794
1.34704
1.34613
1.34522
1.3443
1.34338
1.34246
1.34155
1.34063
1.33972
1.33883
1.33794
1.33706
1.33619
1.33534
1.3345
1.33368
1.33287
1.33208
1.33131
1.33055
1.32981
1.32909
1.32839
1.3277
1.32704
1.32639
1.32576
1.32514
1.32454
1.32396
1.32339
1.32284
1.3223
1.32178
1.32127
1.32077
1.32029
1.31982
1.31936
1.31892
1.31848
1.31806
1.31765
1.31725
1.31687
1.31649
1.31612
1.31577
1.31542
1.31509
1.31476
1.31445
1.31414
1.31385
1.31356
1.31329
1.31302
1.31277
1.31252
1.31228
1.31205
1.31183
1.31162
1.31142
1.31123
1.31105
1.31088
1.31072
1.31057
1.31043
1.3103
1.31018
1.31007
1.30998
1.3099
1.30983
1.30979
1.30975
1.30971
1.30974
1.3098
1.30979
1.30984
1.31011
1.31022
1.31017
1.31065
1.31122
1.31104
1.31142
1.31281
1.3131
1.31302
1.31459
1.31614
1.31697
1.31829
1.31988
1.34134
1.33971
1.33857
1.33743
1.33641
1.33547
1.33452
1.33365
1.33285
1.33206
1.33128
1.33058
1.32989
1.32922
1.32859
1.32799
1.32741
1.32686
1.32633
1.32583
1.32535
1.3249
1.32447
1.32406
1.32368
1.32331
1.32297
1.32264
1.32234
1.32205
1.32179
1.32154
1.3213
1.32109
1.32089
1.32071
1.32054
1.32039
1.32025
1.32012
1.32001
1.31992
1.31984
1.31977
1.31972
1.31968
1.31965
1.31964
1.31964
1.31965
1.31968
1.31972
1.31978
1.31985
1.31994
1.32004
1.32016
1.32029
1.32044
1.32061
1.3208
1.32101
1.32123
1.32148
1.32174
1.32203
1.32234
1.32267
1.32303
1.32341
1.32382
1.32424
1.32471
1.32519
1.3257
1.32625
1.32682
1.32742
1.32805
1.32871
1.3294
1.33012
1.33088
1.33166
1.33246
1.3333
1.33417
1.33506
1.33597
1.33691
1.33786
1.33884
1.33983
1.34083
1.34185
1.34288
1.3439
1.34494
1.34597
1.34701
1.34803
1.34905
1.35006
1.35105
1.35202
1.35298
1.35391
1.35481
1.35568
1.35652
1.35733
1.3581
1.35883
1.35952
1.36016
1.36077
1.36133
1.36186
1.36234
1.36278
1.36319
1.36356
1.36389
1.36419
1.36447
1.36472
1.36493
1.36513
1.36531
1.36546
1.3656
1.36573
1.36583
1.36592
1.36601
1.36609
1.36615
1.3662
1.36626
1.3663
1.36634
1.36637
1.3664
1.36643
1.36645
1.36647
1.36649
1.36651
1.36653
1.36654
1.36656
1.36657
1.36658
1.3666
1.36661
1.36662
1.36663
1.36664
1.36665
1.36666
1.36667
1.36668
1.36669
1.3667
1.36671
1.36672
1.36673
1.36674
1.36675
1.36676
1.36677
1.36678
1.36679
1.3668
1.36681
1.36682
1.36683
1.36684
1.36684
1.36685