# vtk DataFile Version 2.0
LBE two cylinders
ASCII
DATASET STRUCTURED_POINTS
DIMENSIONS 400 100 1
ASPECT_RATIO 1 1 1
ORIGIN 0 0 0
POINT_DATA 40000
SCALARS rho double 1
LOOKUP_TABLE default
1.33863
1.33591
1.33618
1.3362
1.33526
1.33473
1.33439
1.33371
1.33307
1.33253
1.33191
1.33128
1.33069
1.3301
1.32951
1.32894
1.32839
1.32785
1.32732
1.32682
1.32633
1.32586
1.32542
1.32499
1.32458
1.32419
1.32382
1.32347
1.32314
1.32283
1.32253
1.32226
1.322
1.32176
1.32154
1.32134
1.32115
1.32098
1.32082
1.32069
1.32056
1.32046
1.32037
1.3203
1.32024
1.3202
1.32017
1.32016
1.32016
1.32019
1.32022
1.32028
1.32035
1.32044
1.32055
1.32067
1.32081
1.32097
1.32115
1.32135
1.32157
1.32182
1.32208
1.32236
1.32267
1.323
1.32335
1.32373
1.32413
1.32456
1.32502
1.3255
1.32601
1.32654
1.3271
1.32769
1.32831
1.32896
1.32963
1.33033
1.33106
1.33182
1.3326
1.3334
1.33423
1.33509
1.33596
1.33685
1.33776
1.33869
1.33963
1.34059
1.34155
1.34253
1.3435
1.34448
1.34546
1.34644
1.34741
1.34837
1.34933
1.35027
1.35119
1.35209
1.35298
1.35384
1.35467
1.35548
1.35626
1.35701
1.35773
1.35841
1.35906
1.35967
1.36026
1.3608
1.36131
1.36179
1.36224
1.36265
1.36303
1.36338
1.3637
1.36399
1.36426
1.3645
1.36472
1.36492
1.36509
1.36525
1.36539
1.36551
1.36562
1.36572
1.3658
1.36588
1.36594
1.36599
1.36604
1.36608
1.36611
1.36614
1.36616
1.36618
1.36619
1.3662
1.36621
1.36622
1.36622
1.36622
1.36622
1.36622
1.36622
1.36621
1.36621
1.3662
1.3662
1.36619
1.36619
1.36618
1.36618
1.36617
1.36617
1.36616
1.36616
1.36615
1.36615
1.36614
1.36614
1.36613
1.36613
1.36613
1.36612
1.36612
1.36612
1.36612
1.36611
1.36611
1.36611
1.36611
1.36611
1.36611
1.36612
1.36612
1.36612
1.36612
1.36613
1.36613
1.36614
1.36614
1.36615
1.36616
1.36616
1.36617
1.36618
1.36619
1.3662
1.36621
1.36623
1.36624
1.36626
1.36627
1.36629
1.3663
1.36632
1.36634
1.36636
1.36638
1.3664
1.36643
1.36645
1.36647
1.3665
1.36653
1.36655
1.36658
1.36661
1.36664
1.36667
1.36669
1.36672
1.36675
1.36678
1.36681
1.36684
1.36687
1.36689
1.36692
1.36694
1.36696
1.36698
1.367
1.36702
1.36703
1.36704
1.36705
1.36705
1.36705
1.36704
1.36703
1.36701
1.36699
1.36696
1.36693
1.36689
1.36685
1.3668
1.36674
1.36668
1.36661
1.36654
1.36646
1.36637
1.36628
1.36618
1.36608
1.36597
1.36586
1.36575
1.36562
1.3655
1.36537
1.36524
1.3651
1.36496
1.36481
1.36467
1.36451
1.36435
1.36419
1.36402
1.36384
1.36366
1.36347
1.36326
1.36305
1.36282
1.36258
1.36232
1.36205
1.36175
1.36144
1.3611
1.36074
1.36035
1.35994
1.35949
1.35902
1.35852
1.35798
1.35741
1.35681
1.35618
1.35551
1.35482
1.3541
1.35334
1.35257
1.35177
1.35094
1.3501
1.34924
1.34836
1.34747
1.34657
1.34566
1.34474
1.34383
1.3429
1.34198
1.34107
1.34015
1.33925
1.33835
1.33746
1.33657
1.3357
1.33485
1.334
1.33317
1.33235
1.33155
1.33076
1.32999
1.32924
1.3285
1.32778
1.32708
1.32639
1.32572
1.32507
1.32443
1.32381
1.3232
1.32261
1.32204
1.32149
1.32094
1.32042
1.31991
1.31941
1.31893
1.31846
1.31801
1.31757
1.31714
1.31673
1.31633
1.31594
1.31556
1.3152
1.31485
1.31451
1.31418
1.31386
1.31355
1.31326
1.31297
1.3127
1.31244
1.31218
1.31194
1.31171
1.31148
1.31127
1.31107
1.31087
1.31068
1.31051
1.31034
1.31018
1.31003
1.30989
1.30976
1.30964
1.30953
1.30942
1.30933
1.30925
1.30917
1.30911
1.30907
1.309
1.30897
1.30901
1.30896
1.30887
1.30901
1.30918
1.30885
1.30872
1.30966
1.30955
1.3075
1.30846
1.31235
1.30774
1.29901
1.30954
1.31859
1.33676
1.3369
1.33641
1.33573
1.33542
1.33493
1.33433
1.33374
1.33319
1.33256
1.33194
1.33135
1.33074
1.33014
1.32956
1.32899
1.32843
1.32789
1.32737
1.32686
1.32638
1.32591
1.32546
1.32503
1.32462
1.32423
1.32386
1.32351
1.32318
1.32286
1.32257
1.32229
1.32203
1.32179
1.32157
1.32137
1.32118
1.32101
1.32085
1.32071
1.32059
1.32049
1.3204
1.32032
1.32026
1.32022
1.32019
1.32018
1.32019
1.32021
1.32025
1.3203
1.32037
1.32046
1.32057
1.32069
1.32083
1.32099
1.32117
1.32137
1.32159
1.32183
1.32209
1.32237
1.32268
1.32301
1.32336
1.32374
1.32414
1.32457
1.32502
1.3255
1.326
1.32654
1.3271
1.32769
1.3283
1.32895
1.32962
1.33032
1.33104
1.33179
1.33257
1.33337
1.3342
1.33505
1.33592
1.33681
1.33772
1.33865
1.33959
1.34054
1.3415
1.34247
1.34344
1.34442
1.3454
1.34638
1.34735
1.34831
1.34926
1.3502
1.35112
1.35203
1.35291
1.35377
1.35461
1.35542
1.3562
1.35695
1.35767
1.35835
1.35901
1.35962
1.36021
1.36075
1.36127
1.36175
1.3622
1.36261
1.36299
1.36335
1.36367
1.36396
1.36423
1.36448
1.3647
1.3649
1.36507
1.36523
1.36538
1.3655
1.36561
1.36571
1.36579
1.36587
1.36593
1.36599
1.36603
1.36607
1.36611
1.36613
1.36616
1.36617
1.36619
1.3662
1.36621
1.36621
1.36622
1.36622
1.36622
1.36622
1.36621
1.36621
1.36621
1.3662
1.3662
1.36619
1.36618
1.36618
1.36617
1.36617
1.36616
1.36616
1.36615
1.36615
1.36614
1.36614
1.36613
1.36613
1.36612
1.36612
1.36612
1.36612
1.36611
1.36611
1.36611
1.36611
1.36611
1.36611
1.36611
1.36611
1.36611
1.36611
1.36611
1.36612
1.36612
1.36613
1.36613
1.36614
1.36614
1.36615
1.36616
1.36616
1.36617
1.36618
1.36619
1.36621
1.36622
1.36623
1.36625
1.36626
1.36628
1.36629
1.36631
1.36633
1.36635
1.36637
1.36639
1.36641
1.36644
1.36646
1.36648
1.36651
1.36654
1.36656
1.36659
1.36662
1.36665
1.36667
1.3667
1.36673
1.36676
1.36679
1.36682
1.36684
1.36687
1.36689
1.36692
1.36694
1.36696
1.36698
1.36699
1.367
1.36701
1.36702
1.36702
1.36702
1.36701
1.367
1.36698
1.36696
1.36693
1.3669
1.36686
1.36682
1.36677
1.36671
1.36665
1.36658
1.36651
1.36643
1.36634
1.36625
1.36615
1.36605
1.36594
1.36583
1.36571
1.36559
1.36546
1.36533
1.3652
1.36506
1.36492
1.36477
1.36462
1.36446
1.3643
1.36414
1.36396
1.36378
1.3636
1.3634
1.3632
1.36298
1.36275
1.36251
1.36225
1.36197
1.36168
1.36136
1.36102
1.36066
1.36027
1.35986
1.35941
1.35894
1.35844
1.3579
1.35734
1.35674
1.35611
1.35545
1.35476
1.35404
1.35329
1.35252
1.35172
1.3509
1.35006
1.34921
1.34833
1.34745
1.34655
1.34565
1.34474
1.34382
1.34291
1.34199
1.34108
1.34017
1.33927
1.33837
1.33748
1.3366
1.33574
1.33488
1.33404
1.33321
1.33239
1.33159
1.33081
1.33004
1.32929
1.32855
1.32783
1.32713
1.32644
1.32577
1.32512
1.32448
1.32386
1.32325
1.32266
1.32209
1.32153
1.32099
1.32046
1.31995
1.31945
1.31897
1.3185
1.31805
1.3176
1.31718
1.31676
1.31636
1.31597
1.31559
1.31522
1.31487
1.31453
1.3142
1.31388
1.31357
1.31328
1.31299
1.31271
1.31245
1.31219
1.31195
1.31171
1.31149
1.31127
1.31106
1.31087
1.31068
1.3105
1.31033
1.31017
1.31002
1.30987
1.30974
1.30961
1.3095
1.30939
1.30929
1.3092
1.30912
1.30904
1.30898
1.30895
1.30889
1.30883
1.30886
1.30886
1.30873
1.30873
1.30898
1.30881
1.30832
1.30874
1.30941
1.3077
1.30621
1.30886
1.30831
1.29844
1.29297
1.33609
1.33707
1.33635
1.33564
1.33562
1.33504
1.33432
1.33383
1.33327
1.33259
1.33199
1.3314
1.33078
1.33018
1.3296
1.32902
1.32846
1.32792
1.32739
1.32689
1.3264
1.32593
1.32548
1.32505
1.32464
1.32425
1.32387
1.32352
1.32319
1.32288
1.32258
1.32231
1.32205
1.32181
1.32158
1.32138
1.32119
1.32102
1.32086
1.32072
1.3206
1.3205
1.32041
1.32033
1.32027
1.32023
1.3202
1.32019
1.32019
1.32022
1.32025
1.32031
1.32038
1.32046
1.32057
1.32069
1.32083
1.32099
1.32117
1.32137
1.32158
1.32182
1.32208
1.32236
1.32267
1.323
1.32335
1.32372
1.32412
1.32454
1.32499
1.32547
1.32598
1.32651
1.32706
1.32765
1.32826
1.3289
1.32957
1.33027
1.33099
1.33174
1.33252
1.33332
1.33414
1.33499
1.33586
1.33675
1.33765
1.33858
1.33952
1.34047
1.34143
1.3424
1.34338
1.34435
1.34533
1.34631
1.34728
1.34824
1.3492
1.35014
1.35107
1.35197
1.35286
1.35372
1.35456
1.35538
1.35616
1.35691
1.35763
1.35832
1.35898
1.3596
1.36019
1.36074
1.36125
1.36174
1.36219
1.3626
1.36299
1.36334
1.36367
1.36396
1.36423
1.36448
1.3647
1.3649
1.36508
1.36523
1.36538
1.3655
1.36561
1.36571
1.36579
1.36587
1.36593
1.36599
1.36603
1.36607
1.36611
1.36613
1.36616
1.36617
1.36619
1.3662
1.36621
1.36621
1.36621
1.36622
1.36621
1.36621
1.36621
1.36621
1.3662
1.3662
1.36619
1.36619
1.36618
1.36618
1.36617
1.36616
1.36616
1.36615
1.36615
1.36614
1.36614
1.36613
1.36613
1.36612
1.36612
1.36612
1.36611
1.36611
1.36611
1.36611
1.3661
1.3661
1.3661
1.3661
1.3661
1.3661
1.3661
1.36611
1.36611
1.36611
1.36611
1.36612
1.36612
1.36613
1.36613
1.36614
1.36615
1.36616
1.36616
1.36617
1.36618
1.3662
1.36621
1.36622
1.36623
1.36625
1.36626
1.36628
1.3663
1.36632
1.36634
1.36636
1.36638
1.3664
1.36642
1.36644
1.36647
1.36649
1.36652
1.36655
1.36657
1.3666
1.36663
1.36666
1.36668
1.36671
1.36674
1.36677
1.36679
1.36682
1.36685
1.36687
1.36689
1.36692
1.36693
1.36695
1.36697
1.36698
1.36699
1.36699
1.36699
1.36699
1.36699
1.36697
1.36696
1.36694
1.36691
1.36688
1.36684
1.36679
1.36674
1.36669
1.36663
1.36656
1.36648
1.3664
1.36632
1.36622
1.36612
1.36602
1.36591
1.3658
1.36568
1.36556
1.36543
1.3653
1.36516
1.36502
1.36488
1.36473
1.36458
1.36442
1.36426
1.36409
1.36391
1.36373
1.36355
1.36335
1.36314
1.36292
1.36269
1.36245
1.36219
1.36191
1.36161
1.3613
1.36096
1.3606
1.36021
1.35979
1.35935
1.35888
1.35837
1.35784
1.35728
1.35668
1.35605
1.35539
1.35471
1.35399
1.35324
1.35247
1.35168
1.35086
1.35002
1.34917
1.3483
1.34742
1.34653
1.34562
1.34472
1.34381
1.34289
1.34198
1.34107
1.34017
1.33926
1.33837
1.33749
1.33661
1.33574
1.33489
1.33405
1.33322
1.33241
1.33161
1.33083
1.33006
1.32931
1.32858
1.32786
1.32715
1.32647
1.3258
1.32514
1.32451
1.32389
1.32328
1.32269
1.32212
1.32156
1.32102
1.32049
1.31998
1.31948
1.319
1.31853
1.31807
1.31763
1.3172
1.31678
1.31638
1.31599
1.31561
1.31524
1.31489
1.31455
1.31421
1.31389
1.31358
1.31329
1.313
1.31272
1.31245
1.3122
1.31195
1.31171
1.31149
1.31127
1.31106
1.31086
1.31067
1.31049
1.31032
1.31015
1.31
1.30985
1.30971
1.30958
1.30946
1.30935
1.30924
1.30915
1.30907
1.30899
1.3089
1.30886
1.30883
1.30873
1.30868
1.30879
1.3087
1.30841
1.30865
1.30904
1.30817
1.30758
1.30943
1.3091
1.30431
1.30629
1.31312
1.30076
1.28863
1.33651
1.33659
1.33645
1.3362
1.33566
1.335
1.33452
1.33393
1.33327
1.33265
1.33205
1.33141
1.3308
1.3302
1.32961
1.32902
1.32846
1.32792
1.32739
1.32688
1.32639
1.32592
1.32547
1.32504
1.32463
1.32424
1.32386
1.32351
1.32318
1.32287
1.32257
1.32229
1.32204
1.3218
1.32157
1.32137
1.32118
1.32101
1.32085
1.32072
1.32059
1.32049
1.3204
1.32032
1.32026
1.32022
1.32019
1.32018
1.32018
1.3202
1.32024
1.32029
1.32036
1.32045
1.32055
1.32067
1.32081
1.32097
1.32115
1.32134
1.32156
1.32179
1.32205
1.32233
1.32263
1.32296
1.3233
1.32368
1.32407
1.32449
1.32494
1.32541
1.32592
1.32644
1.327
1.32758
1.32819
1.32883
1.32949
1.33019
1.33091
1.33165
1.33243
1.33323
1.33405
1.3349
1.33576
1.33665
1.33756
1.33848
1.33943
1.34038
1.34134
1.34231
1.34329
1.34427
1.34525
1.34623
1.34721
1.34818
1.34913
1.35008
1.35101
1.35192
1.35281
1.35368
1.35453
1.35535
1.35614
1.35689
1.35762
1.35831
1.35897
1.3596
1.36019
1.36074
1.36126
1.36175
1.3622
1.36262
1.363
1.36336
1.36368
1.36398
1.36425
1.36449
1.36472
1.36491
1.36509
1.36525
1.36539
1.36551
1.36562
1.36572
1.3658
1.36588
1.36594
1.36599
1.36604
1.36608
1.36611
1.36614
1.36616
1.36618
1.36619
1.3662
1.36621
1.36621
1.36621
1.36621
1.36621
1.36621
1.36621
1.36621
1.3662
1.3662
1.36619
1.36619
1.36618
1.36617
1.36617
1.36616
1.36616
1.36615
1.36614
1.36614
1.36613
1.36613
1.36612
1.36612
1.36612
1.36611
1.36611
1.36611
1.3661
1.3661
1.3661
1.3661
1.3661
1.3661
1.3661
1.3661
1.3661
1.3661
1.3661
1.3661
1.36611
1.36611
1.36612
1.36612
1.36613
1.36613
1.36614
1.36615
1.36616
1.36616
1.36617
1.36619
1.3662
1.36621
1.36622
1.36624
1.36625
1.36627
1.36628
1.3663
1.36632
1.36634
1.36636
1.36638
1.3664
1.36643
1.36645
1.36648
1.3665
1.36653
1.36655
1.36658
1.36661
1.36664
1.36666
1.36669
1.36672
1.36675
1.36677
1.3668
1.36682
1.36685
1.36687
1.36689
1.36691
1.36693
1.36694
1.36696
1.36696
1.36697
1.36697
1.36697
1.36696
1.36695
1.36694
1.36691
1.36689
1.36686
1.36682
1.36677
1.36672
1.36667
1.3666
1.36654
1.36646
1.36638
1.36629
1.3662
1.3661
1.366
1.36589
1.36577
1.36565
1.36553
1.3654
1.36527
1.36513
1.36499
1.36485
1.3647
1.36454
1.36438
1.36422
1.36405
1.36387
1.36369
1.3635
1.3633
1.3631
1.36288
1.36264
1.3624
1.36214
1.36186
1.36156
1.36124
1.3609
1.36054
1.36015
1.35974
1.35929
1.35882
1.35831
1.35778
1.35721
1.35662
1.35599
1.35533
1.35464
1.35392
1.35318
1.35241
1.35161
1.35079
1.34996
1.34911
1.34824
1.34736
1.34646
1.34556
1.34466
1.34375
1.34284
1.34193
1.34102
1.34012
1.33922
1.33833
1.33745
1.33657
1.33571
1.33486
1.33402
1.3332
1.33239
1.33159
1.33081
1.33005
1.3293
1.32857
1.32785
1.32715
1.32647
1.3258
1.32515
1.32451
1.32389
1.32329
1.3227
1.32213
1.32157
1.32103
1.32051
1.31999
1.3195
1.31901
1.31854
1.31809
1.31764
1.31721
1.3168
1.31639
1.316
1.31562
1.31526
1.3149
1.31456
1.31423
1.3139
1.31359
1.3133
1.31301
1.31273
1.31246
1.3122
1.31195
1.31172
1.31149
1.31127
1.31106
1.31086
1.31067
1.31048
1.31031
1.31015
1.30999
1.30984
1.3097
1.30957
1.30944
1.30933
1.30923
1.30912
1.30903
1.30897
1.30889
1.30879
1.30876
1.30877
1.30866
1.30853
1.30871
1.30878
1.30828
1.30829
1.30917
1.30855
1.30686
1.3085
1.31015
1.30542
1.30336
1.30872
1.30936
1.3373
1.33699
1.33683
1.33646
1.33572
1.33517
1.33469
1.33397
1.33331
1.33272
1.33207
1.33141
1.3308
1.33019
1.32958
1.329
1.32844
1.32788
1.32735
1.32684
1.32635
1.32588
1.32543
1.325
1.32459
1.32419
1.32382
1.32347
1.32314
1.32283
1.32253
1.32226
1.322
1.32176
1.32154
1.32134
1.32115
1.32098
1.32082
1.32069
1.32056
1.32046
1.32037
1.32029
1.32023
1.32019
1.32016
1.32015
1.32015
1.32017
1.32021
1.32026
1.32033
1.32041
1.32051
1.32063
1.32077
1.32093
1.3211
1.32129
1.32151
1.32174
1.322
1.32227
1.32257
1.32289
1.32324
1.3236
1.324
1.32441
1.32486
1.32533
1.32582
1.32635
1.3269
1.32748
1.32808
1.32872
1.32938
1.33007
1.33079
1.33153
1.33231
1.3331
1.33393
1.33477
1.33564
1.33653
1.33744
1.33836
1.33931
1.34026
1.34123
1.3422
1.34318
1.34417
1.34516
1.34614
1.34712
1.3481
1.34906
1.35001
1.35095
1.35187
1.35277
1.35365
1.3545
1.35532
1.35612
1.35689
1.35762
1.35832
1.35898
1.35961
1.36021
1.36077
1.36129
1.36178
1.36223
1.36265
1.36304
1.36339
1.36372
1.36401
1.36428
1.36453
1.36475
1.36494
1.36512
1.36528
1.36542
1.36554
1.36565
1.36574
1.36582
1.36589
1.36595
1.36601
1.36605
1.36609
1.36612
1.36614
1.36616
1.36618
1.36619
1.3662
1.36621
1.36621
1.36622
1.36622
1.36621
1.36621
1.36621
1.3662
1.3662
1.36619
1.36619
1.36618
1.36618
1.36617
1.36616
1.36616
1.36615
1.36615
1.36614
1.36614
1.36613
1.36613
1.36612
1.36612
1.36611
1.36611
1.3661
1.3661
1.3661
1.3661
1.36609
1.36609
1.36609
1.36609
1.36609
1.36609
1.36609
1.36609
1.36609
1.3661
1.3661
1.3661
1.36611
1.36611
1.36612
1.36612
1.36613
1.36614
1.36615
1.36615
1.36616
1.36617
1.36619
1.3662
1.36621
1.36622
1.36624
1.36626
1.36627
1.36629
1.36631
1.36633
1.36635
1.36637
1.36639
1.36641
1.36643
1.36646
1.36648
1.36651
1.36654
1.36656
1.36659
1.36662
1.36664
1.36667
1.3667
1.36673
1.36675
1.36678
1.3668
1.36683
1.36685
1.36687
1.36689
1.36691
1.36692
1.36693
1.36694
1.36695
1.36695
1.36695
1.36694
1.36693
1.36691
1.36689
1.36687
1.36683
1.3668
1.36675
1.3667
1.36665
1.36658
1.36651
1.36644
1.36636
1.36627
1.36618
1.36608
1.36597
1.36586
1.36575
1.36563
1.36551
1.36538
1.36524
1.3651
1.36496
1.36482
1.36467
1.36451
1.36435
1.36419
1.36402
1.36384
1.36366
1.36347
1.36327
1.36306
1.36284
1.36261
1.36236
1.36209
1.36181
1.36152
1.3612
1.36085
1.36049
1.3601
1.35968
1.35923
1.35875
1.35825
1.35771
1.35714
1.35654
1.3559
1.35524
1.35455
1.35382
1.35308
1.3523
1.3515
1.35069
1.34985
1.34899
1.34812
1.34724
1.34635
1.34545
1.34455
1.34364
1.34273
1.34182
1.34091
1.34001
1.33912
1.33823
1.33735
1.33648
1.33562
1.33478
1.33394
1.33312
1.33232
1.33153
1.33075
1.32999
1.32925
1.32852
1.32781
1.32711
1.32643
1.32577
1.32512
1.32449
1.32387
1.32328
1.32269
1.32212
1.32157
1.32103
1.3205
1.32
1.3195
1.31902
1.31855
1.3181
1.31765
1.31723
1.31681
1.31641
1.31602
1.31564
1.31527
1.31492
1.31457
1.31424
1.31392
1.31361
1.31331
1.31302
1.31275
1.31248
1.31222
1.31197
1.31173
1.31151
1.31129
1.31108
1.31087
1.31068
1.3105
1.31033
1.31016
1.31
1.30985
1.30972
1.30959
1.30946
1.30935
1.30924
1.30915
1.30905
1.30897
1.30893
1.30886
1.30876
1.30877
1.30881
1.30866
1.30857
1.3089
1.30887
1.30824
1.30871
1.30971
1.30818
1.30724
1.31062
1.30993
1.30499
1.30833
1.31086
1.33821
1.33778
1.33723
1.33658
1.33603
1.33544
1.33471
1.33401
1.3334
1.33272
1.33203
1.3314
1.33077
1.33013
1.32953
1.32894
1.32837
1.32781
1.32728
1.32677
1.32627
1.3258
1.32535
1.32492
1.32451
1.32412
1.32375
1.3234
1.32307
1.32276
1.32247
1.32219
1.32194
1.3217
1.32148
1.32128
1.32109
1.32092
1.32077
1.32063
1.32051
1.32041
1.32032
1.32024
1.32019
1.32014
1.32011
1.3201
1.3201
1.32012
1.32016
1.32021
1.32028
1.32036
1.32046
1.32058
1.32071
1.32086
1.32104
1.32123
1.32144
1.32167
1.32192
1.32219
1.32249
1.3228
1.32314
1.32351
1.32389
1.32431
1.32475
1.32521
1.3257
1.32622
1.32677
1.32734
1.32795
1.32858
1.32924
1.32992
1.33064
1.33138
1.33215
1.33295
1.33377
1.33462
1.33548
1.33637
1.33728
1.33821
1.33916
1.34012
1.34109
1.34207
1.34305
1.34405
1.34504
1.34603
1.34702
1.348
1.34897
1.34994
1.35088
1.35181
1.35272
1.35361
1.35447
1.3553
1.35611
1.35688
1.35763
1.35833
1.35901
1.35964
1.36024
1.3608
1.36133
1.36182
1.36228
1.3627
1.36309
1.36344
1.36377
1.36406
1.36433
1.36457
1.36479
1.36498
1.36516
1.36531
1.36545
1.36557
1.36567
1.36577
1.36585
1.36592
1.36597
1.36602
1.36607
1.3661
1.36613
1.36616
1.36617
1.36619
1.3662
1.36621
1.36621
1.36622
1.36622
1.36622
1.36622
1.36621
1.36621
1.3662
1.3662
1.36619
1.36619
1.36618
1.36617
1.36617
1.36616
1.36616
1.36615
1.36614
1.36614
1.36613
1.36613
1.36612
1.36612
1.36611
1.36611
1.3661
1.3661
1.3661
1.36609
1.36609
1.36609
1.36609
1.36609
1.36609
1.36608
1.36608
1.36609
1.36609
1.36609
1.36609
1.36609
1.3661
1.3661
1.3661
1.36611
1.36611
1.36612
1.36613
1.36614
1.36614
1.36615
1.36616
1.36618
1.36619
1.3662
1.36621
1.36623
1.36624
1.36626
1.36628
1.36629
1.36631
1.36633
1.36635
1.36637
1.3664
1.36642
1.36644
1.36647
1.36649
1.36652
1.36654
1.36657
1.3666
1.36662
1.36665
1.36668
1.3667
1.36673
1.36676
1.36678
1.36681
1.36683
1.36685
1.36687
1.36689
1.3669
1.36691
1.36692
1.36693
1.36693
1.36693
1.36692
1.36691
1.36689
1.36687
1.36685
1.36681
1.36678
1.36673
1.36668
1.36663
1.36656
1.36649
1.36642
1.36634
1.36625
1.36616
1.36606
1.36595
1.36584
1.36573
1.36561
1.36548
1.36535
1.36522
1.36508
1.36494
1.36479
1.36464
1.36449
1.36433
1.36417
1.364
1.36382
1.36363
1.36344
1.36324
1.36303
1.36281
1.36258
1.36233
1.36206
1.36178
1.36148
1.36115
1.36081
1.36044
1.36004
1.35962
1.35916
1.35868
1.35816
1.35762
1.35704
1.35643
1.35579
1.35512
1.35442
1.35369
1.35293
1.35215
1.35135
1.35053
1.34969
1.34883
1.34795
1.34707
1.34618
1.34528
1.34437
1.34346
1.34255
1.34165
1.34074
1.33984
1.33895
1.33806
1.33719
1.33632
1.33547
1.33463
1.3338
1.33298
1.33219
1.3314
1.33063
1.32988
1.32914
1.32842
1.32772
1.32703
1.32635
1.3257
1.32506
1.32443
1.32382
1.32323
1.32265
1.32209
1.32154
1.32101
1.32049
1.31998
1.31949
1.31902
1.31855
1.3181
1.31766
1.31724
1.31683
1.31643
1.31604
1.31566
1.3153
1.31495
1.3146
1.31427
1.31395
1.31365
1.31335
1.31306
1.31278
1.31252
1.31226
1.31201
1.31177
1.31155
1.31133
1.31112
1.31092
1.31073
1.31055
1.31037
1.31021
1.31006
1.30991
1.30977
1.30964
1.30953
1.30942
1.30931
1.30922
1.30916
1.30907
1.30899
1.30899
1.30896
1.30884
1.30889
1.30906
1.30889
1.30871
1.30928
1.3095
1.30855
1.30901
1.31084
1.30945
1.30776
1.31105
1.31286
1.30986
1.30953
1.33926
1.33845
1.3377
1.33695
1.33632
1.33556
1.33477
1.33411
1.33342
1.33267
1.332
1.33135
1.33068
1.33004
1.32944
1.32884
1.32826
1.3277
1.32717
1.32665
1.32616
1.32569
1.32524
1.32481
1.3244
1.32401
1.32365
1.3233
1.32297
1.32266
1.32237
1.3221
1.32185
1.32162
1.3214
1.3212
1.32102
1.32085
1.3207
1.32056
1.32044
1.32034
1.32025
1.32018
1.32012
1.32008
1.32005
1.32004
1.32004
1.32006
1.32009
1.32014
1.32021
1.32029
1.32038
1.3205
1.32063
1.32078
1.32095
1.32114
1.32134
1.32157
1.32182
1.32209
1.32238
1.32269
1.32302
1.32338
1.32377
1.32418
1.32461
1.32507
1.32556
1.32607
1.32661
1.32718
1.32778
1.3284
1.32906
1.32974
1.33046
1.3312
1.33196
1.33276
1.33358
1.33443
1.33529
1.33619
1.3371
1.33803
1.33898
1.33994
1.34092
1.3419
1.3429
1.34389
1.3449
1.3459
1.34689
1.34789
1.34887
1.34984
1.3508
1.35174
1.35266
1.35356
1.35443
1.35528
1.3561
1.35688
1.35763
1.35835
1.35903
1.35968
1.36028
1.36085
1.36138
1.36188
1.36234
1.36276
1.36315
1.3635
1.36383
1.36412
1.36439
1.36463
1.36484
1.36503
1.3652
1.36536
1.36549
1.36561
1.36571
1.3658
1.36587
1.36594
1.366
1.36604
1.36608
1.36612
1.36614
1.36617
1.36618
1.3662
1.36621
1.36621
1.36622
1.36622
1.36622
1.36622
1.36622
1.36621
1.36621
1.3662
1.3662
1.36619
1.36619
1.36618
1.36617
1.36617
1.36616
1.36615
1.36615
1.36614
1.36613
1.36613
1.36612
1.36612
1.36611
1.36611
1.3661
1.3661
1.3661
1.36609
1.36609
1.36609
1.36608
1.36608
1.36608
1.36608
1.36608
1.36608
1.36608
1.36608
1.36608
1.36608
1.36609
1.36609
1.36609
1.3661
1.3661
1.36611
1.36611
1.36612
1.36613
1.36614
1.36614
1.36615
1.36616
1.36618
1.36619
1.3662
1.36621
1.36623
1.36625
1.36626
1.36628
1.3663
1.36632
1.36634
1.36636
1.36638
1.3664
1.36643
1.36645
1.36647
1.3665
1.36652
1.36655
1.36658
1.3666
1.36663
1.36666
1.36668
1.36671
1.36674
1.36676
1.36678
1.36681
1.36683
1.36685
1.36686
1.36688
1.36689
1.3669
1.36691
1.36691
1.36691
1.3669
1.36689
1.36687
1.36685
1.36682
1.36679
1.36675
1.36671
1.36666
1.3666
1.36654
1.36647
1.3664
1.36632
1.36623
1.36614
1.36604
1.36593
1.36582
1.36571
1.36559
1.36546
1.36533
1.3652
1.36506
1.36492
1.36478
1.36463
1.36447
1.36431
1.36415
1.36398
1.3638
1.36362
1.36343
1.36323
1.36302
1.36279
1.36255
1.3623
1.36204
1.36175
1.36144
1.36112
1.36076
1.36039
1.35998
1.35955
1.35909
1.35859
1.35807
1.35751
1.35692
1.3563
1.35565
1.35497
1.35426
1.35352
1.35275
1.35196
1.35115
1.35032
1.34947
1.34861
1.34773
1.34684
1.34595
1.34504
1.34414
1.34323
1.34232
1.34141
1.34051
1.33961
1.33872
1.33783
1.33696
1.3361
1.33525
1.33441
1.33359
1.33279
1.33199
1.33122
1.33046
1.32971
1.32898
1.32827
1.32758
1.3269
1.32624
1.32559
1.32496
1.32434
1.32374
1.32316
1.32259
1.32204
1.3215
1.32097
1.32046
1.31996
1.31948
1.31901
1.31855
1.31811
1.31767
1.31725
1.31685
1.31645
1.31607
1.3157
1.31534
1.31499
1.31465
1.31432
1.314
1.3137
1.3134
1.31312
1.31284
1.31258
1.31232
1.31208
1.31184
1.31162
1.3114
1.3112
1.311
1.31081
1.31063
1.31046
1.3103
1.31015
1.31001
1.30988
1.30976
1.30964
1.30954
1.30945
1.30936
1.3093
1.30926
1.30919
1.30915
1.30921
1.30921
1.3091
1.30925
1.30951
1.30931
1.30928
1.31011
1.3102
1.30937
1.3106
1.31209
1.31069
1.31091
1.31344
1.31371
1.31436
1.3403
1.33904
1.33821
1.33738
1.33649
1.33565
1.33491
1.33415
1.33335
1.33263
1.33194
1.33123
1.33056
1.32992
1.32929
1.32868
1.32811
1.32755
1.32701
1.3265
1.326
1.32553
1.32509
1.32466
1.32426
1.32387
1.32351
1.32317
1.32284
1.32254
1.32225
1.32199
1.32174
1.32151
1.32129
1.3211
1.32092
1.32075
1.3206
1.32047
1.32035
1.32025
1.32017
1.32009
1.32004
1.31999
1.31997
1.31995
1.31996
1.31997
1.32001
1.32005
1.32012
1.3202
1.32029
1.32041
1.32054
1.32068
1.32085
1.32103
1.32123
1.32146
1.3217
1.32196
1.32225
1.32255
1.32288
1.32324
1.32362
1.32402
1.32444
1.3249
1.32538
1.32589
1.32642
1.32699
1.32758
1.3282
1.32885
1.32953
1.33024
1.33098
1.33174
1.33254
1.33335
1.3342
1.33507
1.33596
1.33688
1.33781
1.33876
1.33973
1.34071
1.34171
1.34271
1.34371
1.34472
1.34573
1.34674
1.34775
1.34874
1.34973
1.3507
1.35165
1.35259
1.3535
1.35439
1.35525
1.35608
1.35688
1.35764
1.35837
1.35906
1.35971
1.36033
1.3609
1.36144
1.36194
1.3624
1.36283
1.36322
1.36357
1.36389
1.36419
1.36445
1.36469
1.3649
1.36509
1.36525
1.3654
1.36554
1.36565
1.36575
1.36583
1.36591
1.36597
1.36602
1.36607
1.3661
1.36614
1.36616
1.36618
1.3662
1.36621
1.36622
1.36622
1.36622
1.36623
1.36622
1.36622
1.36622
1.36621
1.36621
1.3662
1.3662
1.36619
1.36618
1.36618
1.36617
1.36616
1.36616
1.36615
1.36614
1.36614
1.36613
1.36613
1.36612
1.36611
1.36611
1.3661
1.3661
1.3661
1.36609
1.36609
1.36608
1.36608
1.36608
1.36608
1.36608
1.36607
1.36607
1.36607
1.36607
1.36607
1.36608
1.36608
1.36608
1.36608
1.36608
1.36609
1.36609
1.3661
1.3661
1.36611
1.36612
1.36613
1.36613
1.36614
1.36615
1.36617
1.36618
1.36619
1.3662
1.36622
1.36623
1.36625
1.36627
1.36628
1.3663
1.36632
1.36634
1.36636
1.36639
1.36641
1.36643
1.36646
1.36648
1.36651
1.36653
1.36656
1.36658
1.36661
1.36664
1.36666
1.36669
1.36671
1.36674
1.36676
1.36679
1.36681
1.36682
1.36684
1.36686
1.36687
1.36688
1.36688
1.36688
1.36688
1.36688
1.36687
1.36685
1.36683
1.3668
1.36677
1.36673
1.36669
1.36664
1.36658
1.36652
1.36645
1.36637
1.36629
1.36621
1.36611
1.36601
1.36591
1.3658
1.36569
1.36557
1.36544
1.36532
1.36518
1.36505
1.36491
1.36476
1.36461
1.36446
1.3643
1.36414
1.36397
1.36379
1.36361
1.36342
1.36322
1.36301
1.36278
1.36254
1.36229
1.36202
1.36172
1.36141
1.36108
1.36072
1.36034
1.35992
1.35948
1.35901
1.3585
1.35796
1.35739
1.35679
1.35615
1.35549
1.35479
1.35406
1.35331
1.35253
1.35173
1.35091
1.35007
1.34921
1.34834
1.34746
1.34656
1.34566
1.34476
1.34384
1.34294
1.34202
1.34111
1.34021
1.33932
1.33842
1.33755
1.33668
1.33582
1.33498
1.33414
1.33333
1.33253
1.33174
1.33098
1.33023
1.32949
1.32877
1.32807
1.32739
1.32672
1.32607
1.32544
1.32482
1.32421
1.32363
1.32306
1.3225
1.32196
1.32143
1.32091
1.32041
1.31993
1.31945
1.31899
1.31854
1.31811
1.31768
1.31727
1.31687
1.31648
1.31611
1.31574
1.31539
1.31504
1.31471
1.31439
1.31408
1.31378
1.31349
1.3132
1.31293
1.31267
1.31242
1.31218
1.31195
1.31173
1.31152
1.31131
1.31112
1.31094
1.31076
1.3106
1.31044
1.3103
1.31016
1.31004
1.30993
1.30982
1.30973
1.30966
1.30959
1.30952
1.3095
1.30951
1.30946
1.30945
1.3096
1.30966
1.30955
1.30983
1.3103
1.31006
1.31007
1.31133
1.31158
1.3107
1.31215
1.31426
1.31369
1.31369
1.3165
1.31853
1.34113
1.33964
1.33864
1.33764
1.33665
1.33578
1.33494
1.33408
1.33328
1.33255
1.3318
1.33107
1.3304
1.32974
1.3291
1.32849
1.32791
1.32735
1.32681
1.3263
1.32581
1.32535
1.3249
1.32448
1.32408
1.3237
1.32334
1.32301
1.32269
1.32239
1.32211
1.32185
1.32161
1.32138
1.32117
1.32098
1.3208
1.32064
1.32049
1.32036
1.32025
1.32015
1.32007
1.31999
1.31994
1.3199
1.31987
1.31986
1.31986
1.31988
1.31991
1.31996
1.32002
1.3201
1.32019
1.3203
1.32043
1.32057
1.32073
1.32091
1.32111
1.32132
1.32156
1.32182
1.3221
1.3224
1.32272
1.32307
1.32344
1.32383
1.32426
1.3247
1.32517
1.32568
1.32621
1.32676
1.32735
1.32797
1.32861
1.32929
1.32999
1.33072
1.33149
1.33228
1.33309
1.33394
1.33481
1.3357
1.33662
1.33756
1.33851
1.33949
1.34048
1.34147
1.34248
1.3435
1.34452
1.34554
1.34656
1.34758
1.34859
1.34959
1.35057
1.35154
1.35249
1.35342
1.35433
1.3552
1.35605
1.35686
1.35764
1.35838
1.35909
1.35975
1.36037
1.36096
1.3615
1.36201
1.36247
1.3629
1.36329
1.36365
1.36397
1.36426
1.36452
1.36475
1.36496
1.36515
1.36531
1.36546
1.36558
1.36569
1.36579
1.36587
1.36594
1.366
1.36605
1.36609
1.36613
1.36615
1.36618
1.3662
1.36621
1.36622
1.36623
1.36623
1.36623
1.36623
1.36623
1.36623
1.36622
1.36622
1.36621
1.3662
1.3662
1.36619
1.36618
1.36618
1.36617
1.36616
1.36616
1.36615
1.36614
1.36613
1.36613
1.36612
1.36612
1.36611
1.36611
1.3661
1.3661
1.36609
1.36609
1.36608
1.36608
1.36608
1.36607
1.36607
1.36607
1.36607
1.36607
1.36607
1.36607
1.36607
1.36607
1.36607
1.36607
1.36608
1.36608
1.36608
1.36609
1.36609
1.3661
1.3661
1.36611
1.36612
1.36613
1.36613
1.36614
1.36615
1.36617
1.36618
1.36619
1.36621
1.36622
1.36624
1.36625
1.36627
1.36629
1.36631
1.36633
1.36635
1.36637
1.36639
1.36642
1.36644
1.36646
1.36649
1.36651
1.36654
1.36657
1.36659
1.36662
1.36664
1.36667
1.36669
1.36672
1.36674
1.36676
1.36678
1.3668
1.36682
1.36683
1.36684
1.36685
1.36686
1.36686
1.36686
1.36685
1.36684
1.36682
1.3668
1.36678
1.36674
1.36671
1.36666
1.36661
1.36655
1.36649
1.36642
1.36635
1.36627
1.36618
1.36609
1.36599
1.36589
1.36578
1.36566
1.36554
1.36542
1.3653
1.36516
1.36503
1.36489
1.36475
1.3646
1.36445
1.36429
1.36413
1.36396
1.36379
1.3636
1.36341
1.36322
1.363
1.36277
1.36254
1.36228
1.362
1.36171
1.36139
1.36105
1.36068
1.36028
1.35986
1.3594
1.35892
1.3584
1.35784
1.35725
1.35663
1.35598
1.3553
1.35458
1.35384
1.35307
1.35228
1.35147
1.35063
1.34978
1.34891
1.34803
1.34714
1.34624
1.34533
1.34442
1.34351
1.34259
1.34168
1.34077
1.33987
1.33897
1.33808
1.33721
1.33634
1.33549
1.33465
1.33382
1.33301
1.33222
1.33145
1.33069
1.32994
1.32922
1.32852
1.32783
1.32716
1.3265
1.32586
1.32525
1.32464
1.32405
1.32348
1.32292
1.32238
1.32185
1.32134
1.32084
1.32035
1.31987
1.31941
1.31897
1.31853
1.3181
1.31769
1.31729
1.3169
1.31652
1.31615
1.3158
1.31545
1.31512
1.31479
1.31448
1.31417
1.31388
1.31359
1.31332
1.31305
1.3128
1.31255
1.31232
1.31209
1.31188
1.31167
1.31147
1.31128
1.31111
1.31094
1.31078
1.31063
1.3105
1.31037
1.31025
1.31015
1.31007
1.30998
1.30992
1.30988
1.30985
1.30981
1.30983
1.3099
1.30989
1.30994
1.31021
1.31032
1.31027
1.31075
1.31131
1.31112
1.3115
1.31289
1.31317
1.31308
1.31465
1.31619
1.317
1.31832
1.31989
1.34173
1.34009
1.33894
1.33779
1.33677
1.33582
1.33486
1.33399
1.33318
1.33237
1.33159
1.33088
1.33019
1.3295
1.32887
1.32826
1.32767
1.32711
1.32658
1.32607
1.32558
1.32512
1.32469
1.32427
1.32388
1.32351
1.32315
1.32282
1.32251
1.32222
1.32195
1.32169
1.32145
1.32123
1.32103
1.32084
1.32067
1.32051
1.32037
1.32024
1.32013
1.32003
1.31995
1.31988
1.31983
1.31979
1.31976
1.31975
1.31975
1.31977
1.3198
1.31984
1.3199
1.31998
1.32007
1.32018
1.3203
1.32044
1.3206
1.32077
1.32096
1.32118
1.32141
1.32166
1.32193
1.32223
1.32254
1.32288
1.32324
1.32363
1.32405
1.32448
1.32495
1.32545
1.32596
1.32652
1.3271
1.3277
1.32834
1.32901
1.32971
1.33044
1.3312
1.33198
1.3328
1.33364
1.33451
1.33541
1.33633
1.33727
1.33823
1.33921
1.3402
1.3412
1.34223
1.34325
1.34428
1.34531
1.34635
1.34738
1.3484
1.34941
1.35041
1.3514
1.35237
1.35332
1.35424
1.35514
1.356
1.35683
1.35763
1.35838
1.3591
1.35978
1.36042
1.36101
1.36156
1.36208
1.36255
1.36297
1.36337
1.36373
1.36405
1.36433
1.3646
1.36483
1.36503
1.36521
1.36538
1.36551
1.36563
1.36574
1.36583
1.36591
1.36598
1.36603
1.36608
1.36612
1.36615
1.36618
1.3662
1.36621
1.36622
1.36623
1.36624
1.36624
1.36624
1.36624
1.36623
1.36623
1.36622
1.36622
1.36621
1.36621
1.3662
1.36619
1.36618
1.36618
1.36617
1.36616
1.36615
1.36615
1.36614
1.36613
1.36613
1.36612
1.36611
1.36611
1.3661
1.3661
1.36609
1.36609
1.36608
1.36608
1.36608
1.36607
1.36607
1.36607
1.36607
1.36607
1.36606
1.36606
1.36606