# vtk DataFile Version 2.0
LBE two cylinders
ASCII
DATASET STRUCTURED_POINTS
DIMENSIONS 400 100 1
ASPECT_RATIO 1 1 1
ORIGIN 0 0 0
POINT_DATA 40000
SCALARS rho double 1
LOOKUP_TABLE default
1.33865
1.33594
1.33621
1.33622
1.33529
1.33476
1.33442
1.33374
1.3331
1.33255
1.33194
1.33131
1.33072
1.33013
1.32953
1.32896
1.32841
1.32787
1.32735
1.32684
1.32635
1.32589
1.32544
1.32501
1.3246
1.32421
1.32384
1.32349
1.32316
1.32285
1.32255
1.32228
1.32202
1.32178
1.32156
1.32135
1.32116
1.32099
1.32084
1.3207
1.32058
1.32047
1.32038
1.32031
1.32025
1.3202
1.32018
1.32017
1.32017
1.32019
1.32023
1.32029
1.32036
1.32045
1.32055
1.32068
1.32082
1.32098
1.32116
1.32136
1.32158
1.32182
1.32208
1.32237
1.32268
1.32301
1.32336
1.32374
1.32414
1.32457
1.32502
1.32551
1.32601
1.32655
1.32711
1.3277
1.32832
1.32897
1.32964
1.33034
1.33107
1.33183
1.33261
1.33341
1.33424
1.33509
1.33597
1.33686
1.33777
1.3387
1.33964
1.3406
1.34156
1.34253
1.34351
1.34449
1.34547
1.34645
1.34742
1.34838
1.34934
1.35028
1.3512
1.3521
1.35299
1.35385
1.35468
1.35549
1.35627
1.35702
1.35773
1.35842
1.35907
1.35968
1.36026
1.36081
1.36132
1.3618
1.36225
1.36266
1.36304
1.36339
1.36371
1.364
1.36427
1.36451
1.36473
1.36493
1.3651
1.36526
1.3654
1.36552
1.36563
1.36573
1.36581
1.36588
1.36595
1.366
1.36604
1.36608
1.36612
1.36614
1.36616
1.36618
1.36619
1.3662
1.36621
1.36621
1.36621
1.36621
1.36621
1.36621
1.36621
1.3662
1.3662
1.36619
1.36619
1.36618
1.36617
1.36617
1.36616
1.36615
1.36615
1.36614
1.36613
1.36613
1.36612
1.36612
1.36611
1.36611
1.3661
1.3661
1.3661
1.36609
1.36609
1.36609
1.36609
1.36609
1.36609
1.36609
1.36609
1.36609
1.36609
1.36609
1.36609
1.3661
1.3661
1.3661
1.36611
1.36612
1.36612
1.36613
1.36614
1.36615
1.36616
1.36617
1.36618
1.36619
1.3662
1.36622
1.36623
1.36625
1.36626
1.36628
1.3663
1.36632
1.36634
1.36636
1.36638
1.36641
1.36643
1.36646
1.36648
1.36651
1.36654
1.36656
1.36659
1.36662
1.36665
1.36668
1.36671
1.36674
1.36677
1.3668
1.36683
1.36686
1.36688
1.36691
1.36694
1.36696
1.36698
1.367
1.36701
1.36703
1.36704
1.36704
1.36705
1.36704
1.36704
1.36703
1.36701
1.36699
1.36696
1.36693
1.36689
1.36685
1.3668
1.36674
1.36668
1.36661
1.36654
1.36646
1.36637
1.36628
1.36618
1.36608
1.36597
1.36586
1.36574
1.36562
1.36549
1.36536
1.36523
1.36509
1.36495
1.3648
1.36465
1.3645
1.36434
1.36418
1.36401
1.36383
1.36364
1.36345
1.36325
1.36303
1.3628
1.36256
1.3623
1.36203
1.36173
1.36142
1.36108
1.36072
1.36033
1.35992
1.35947
1.359
1.35849
1.35796
1.35739
1.35679
1.35616
1.35549
1.3548
1.35407
1.35332
1.35255
1.35174
1.35092
1.35008
1.34921
1.34834
1.34745
1.34655
1.34564
1.34472
1.34381
1.34289
1.34197
1.34105
1.34014
1.33923
1.33833
1.33744
1.33656
1.33569
1.33483
1.33399
1.33316
1.33234
1.33154
1.33075
1.32998
1.32923
1.32849
1.32777
1.32707
1.32638
1.32571
1.32506
1.32442
1.3238
1.3232
1.32261
1.32204
1.32148
1.32094
1.32041
1.3199
1.31941
1.31893
1.31846
1.318
1.31756
1.31714
1.31672
1.31632
1.31594
1.31556
1.3152
1.31484
1.3145
1.31418
1.31386
1.31355
1.31326
1.31297
1.3127
1.31244
1.31218
1.31194
1.31171
1.31148
1.31127
1.31107
1.31087
1.31069
1.31051
1.31034
1.31018
1.31004
1.3099
1.30977
1.30964
1.30953
1.30943
1.30934
1.30925
1.30917
1.30912
1.30907
1.309
1.30897
1.309
1.30896
1.30887
1.30901
1.30918
1.30884
1.30872
1.30965
1.30954
1.30749
1.30845
1.31234
1.30772
1.299
1.30953
1.31857
1.33678
1.33692
1.33643
1.33576
1.33545
1.33496
1.33435
1.33377
1.33321
1.33259
1.33197
1.33138
1.33077
1.33017
1.32959
1.32902
1.32846
1.32792
1.32739
1.32689
1.3264
1.32593
1.32548
1.32505
1.32464
1.32425
1.32388
1.32353
1.32319
1.32288
1.32259
1.32231
1.32205
1.32181
1.32159
1.32138
1.32119
1.32102
1.32086
1.32073
1.3206
1.3205
1.32041
1.32033
1.32027
1.32023
1.3202
1.32019
1.3202
1.32022
1.32025
1.32031
1.32038
1.32047
1.32057
1.3207
1.32084
1.321
1.32118
1.32138
1.3216
1.32184
1.3221
1.32238
1.32269
1.32302
1.32337
1.32375
1.32415
1.32457
1.32503
1.32551
1.32601
1.32655
1.32711
1.32769
1.32831
1.32895
1.32962
1.33032
1.33105
1.3318
1.33258
1.33338
1.33421
1.33506
1.33593
1.33682
1.33773
1.33865
1.33959
1.34055
1.34151
1.34248
1.34345
1.34443
1.34541
1.34639
1.34736
1.34832
1.34927
1.35021
1.35113
1.35204
1.35292
1.35378
1.35462
1.35543
1.35621
1.35696
1.35768
1.35836
1.35901
1.35963
1.36022
1.36076
1.36128
1.36176
1.36221
1.36262
1.363
1.36336
1.36368
1.36397
1.36424
1.36449
1.36471
1.36491
1.36508
1.36524
1.36538
1.36551
1.36562
1.36572
1.3658
1.36587
1.36594
1.36599
1.36604
1.36608
1.36611
1.36614
1.36616
1.36617
1.36619
1.3662
1.3662
1.36621
1.36621
1.36621
1.36621
1.36621
1.3662
1.3662
1.36619
1.36619
1.36618
1.36618
1.36617
1.36616
1.36616
1.36615
1.36614
1.36614
1.36613
1.36612
1.36612
1.36611
1.36611
1.3661
1.3661
1.3661
1.36609
1.36609
1.36609
1.36608
1.36608
1.36608
1.36608
1.36608
1.36608
1.36608
1.36608
1.36608
1.36609
1.36609
1.36609
1.3661
1.3661
1.36611
1.36611
1.36612
1.36613
1.36614
1.36615
1.36616
1.36617
1.36618
1.36619
1.36621
1.36622
1.36624
1.36625
1.36627
1.36629
1.36631
1.36633
1.36635
1.36637
1.36639
1.36642
1.36644
1.36647
1.36649
1.36652
1.36655
1.36658
1.3666
1.36663
1.36666
1.36669
1.36672
1.36675
1.36678
1.36681
1.36683
1.36686
1.36689
1.36691
1.36693
1.36695
1.36697
1.36699
1.367
1.36701
1.36702
1.36702
1.36702
1.36701
1.367
1.36698
1.36696
1.36693
1.3669
1.36686
1.36682
1.36677
1.36671
1.36665
1.36658
1.36651
1.36643
1.36634
1.36625
1.36615
1.36605
1.36594
1.36582
1.36571
1.36558
1.36546
1.36533
1.36519
1.36505
1.36491
1.36476
1.36461
1.36445
1.36429
1.36412
1.36395
1.36377
1.36358
1.36339
1.36318
1.36296
1.36273
1.36249
1.36223
1.36195
1.36166
1.36134
1.361
1.36064
1.36025
1.35984
1.35939
1.35892
1.35842
1.35788
1.35732
1.35672
1.35609
1.35543
1.35474
1.35402
1.35327
1.3525
1.3517
1.35088
1.35004
1.34918
1.34831
1.34743
1.34653
1.34563
1.34472
1.34381
1.34289
1.34198
1.34106
1.34015
1.33925
1.33836
1.33747
1.33659
1.33572
1.33487
1.33403
1.3332
1.33238
1.33158
1.3308
1.33003
1.32928
1.32854
1.32782
1.32712
1.32643
1.32576
1.32511
1.32447
1.32385
1.32325
1.32266
1.32208
1.32153
1.32099
1.32046
1.31995
1.31945
1.31897
1.3185
1.31804
1.3176
1.31717
1.31676
1.31636
1.31597
1.31559
1.31522
1.31487
1.31453
1.3142
1.31388
1.31357
1.31328
1.31299
1.31271
1.31245
1.31219
1.31195
1.31171
1.31149
1.31127
1.31107
1.31087
1.31068
1.3105
1.31033
1.31017
1.31002
1.30988
1.30974
1.30961
1.3095
1.30939
1.30929
1.3092
1.30912
1.30904
1.30898
1.30895
1.30888
1.30883
1.30886
1.30886
1.30873
1.30873
1.30898
1.30881
1.30831
1.30873
1.3094
1.30769
1.3062
1.30884
1.30829
1.29842
1.29295
1.33611
1.3371
1.33638
1.33567
1.33564
1.33507
1.33435
1.33386
1.3333
1.33262
1.33202
1.33143
1.33081
1.3302
1.32963
1.32905
1.32848
1.32794
1.32742
1.32691
1.32642
1.32595
1.3255
1.32507
1.32466
1.32427
1.32389
1.32354
1.32321
1.32289
1.3226
1.32232
1.32206
1.32182
1.3216
1.32139
1.3212
1.32103
1.32088
1.32074
1.32061
1.32051
1.32042
1.32034
1.32028
1.32024
1.32021
1.3202
1.3202
1.32022
1.32026
1.32031
1.32038
1.32047
1.32058
1.3207
1.32084
1.321
1.32118
1.32137
1.32159
1.32183
1.32209
1.32237
1.32267
1.323
1.32335
1.32373
1.32413
1.32455
1.325
1.32548
1.32598
1.32651
1.32707
1.32766
1.32827
1.32891
1.32958
1.33028
1.331
1.33175
1.33252
1.33332
1.33415
1.335
1.33587
1.33675
1.33766
1.33859
1.33953
1.34048
1.34144
1.34241
1.34338
1.34436
1.34534
1.34632
1.34729
1.34825
1.34921
1.35015
1.35107
1.35198
1.35287
1.35373
1.35457
1.35539
1.35617
1.35692
1.35764
1.35833
1.35899
1.35961
1.3602
1.36075
1.36126
1.36175
1.3622
1.36261
1.363
1.36335
1.36368
1.36397
1.36424
1.36449
1.36471
1.36491
1.36508
1.36524
1.36539
1.36551
1.36562
1.36572
1.3658
1.36588
1.36594
1.36599
1.36604
1.36608
1.36611
1.36614
1.36616
1.36617
1.36619
1.3662
1.3662
1.36621
1.36621
1.36621
1.36621
1.36621
1.3662
1.3662
1.36619
1.36619
1.36618
1.36617
1.36617
1.36616
1.36615
1.36615
1.36614
1.36613
1.36613
1.36612
1.36612
1.36611
1.3661
1.3661
1.3661
1.36609
1.36609
1.36608
1.36608
1.36608
1.36608
1.36608
1.36607
1.36607
1.36607
1.36607
1.36608
1.36608
1.36608
1.36608
1.36609
1.36609
1.36609
1.3661
1.36611
1.36611
1.36612
1.36613
1.36614
1.36615
1.36616
1.36617
1.36618
1.3662
1.36621
1.36623
1.36624
1.36626
1.36628
1.36629
1.36631
1.36634
1.36636
1.36638
1.3664
1.36643
1.36645
1.36648
1.3665
1.36653
1.36656
1.36659
1.36661
1.36664
1.36667
1.3667
1.36673
1.36676
1.36679
1.36681
1.36684
1.36686
1.36689
1.36691
1.36693
1.36695
1.36696
1.36697
1.36698
1.36699
1.36699
1.36699
1.36698
1.36697
1.36696
1.36694
1.36691
1.36688
1.36684
1.36679
1.36674
1.36669
1.36663
1.36656
1.36648
1.3664
1.36631
1.36622
1.36612
1.36602
1.36591
1.3658
1.36568
1.36555
1.36542
1.36529
1.36516
1.36501
1.36487
1.36472
1.36457
1.36441
1.36425
1.36408
1.3639
1.36372
1.36353
1.36333
1.36312
1.36291
1.36267
1.36243
1.36217
1.36189
1.36159
1.36128
1.36094
1.36058
1.36019
1.35977
1.35933
1.35886
1.35835
1.35782
1.35726
1.35666
1.35603
1.35537
1.35468
1.35397
1.35322
1.35245
1.35166
1.35084
1.35
1.34915
1.34828
1.3474
1.34651
1.34561
1.3447
1.34379
1.34288
1.34197
1.34106
1.34015
1.33925
1.33836
1.33747
1.3366
1.33573
1.33488
1.33404
1.33321
1.3324
1.3316
1.33082
1.33005
1.3293
1.32857
1.32785
1.32715
1.32646
1.32579
1.32514
1.3245
1.32388
1.32328
1.32269
1.32211
1.32156
1.32101
1.32049
1.31997
1.31948
1.31899
1.31852
1.31807
1.31763
1.3172
1.31678
1.31638
1.31599
1.31561
1.31524
1.31489
1.31454
1.31421
1.31389
1.31358
1.31329
1.313
1.31272
1.31245
1.3122
1.31195
1.31171
1.31149
1.31127
1.31106
1.31086
1.31067
1.31049
1.31032
1.31015
1.31
1.30985
1.30971
1.30958
1.30947
1.30935
1.30925
1.30915
1.30907
1.30899
1.3089
1.30886
1.30883
1.30872
1.30868
1.30878
1.3087
1.3084
1.30864
1.30903
1.30817
1.30758
1.30942
1.30908
1.30429
1.30628
1.3131
1.30074
1.28862
1.33654
1.33661
1.33648
1.33622
1.33569
1.33503
1.33455
1.33396
1.33329
1.33268
1.33208
1.33144
1.33082
1.33023
1.32963
1.32905
1.32849
1.32794
1.32741
1.3269
1.32641
1.32594
1.32549
1.32506
1.32465
1.32426
1.32388
1.32353
1.3232
1.32288
1.32259
1.32231
1.32205
1.32181
1.32159
1.32138
1.32119
1.32102
1.32087
1.32073
1.3206
1.3205
1.32041
1.32033
1.32027
1.32023
1.3202
1.32019
1.32019
1.32021
1.32025
1.3203
1.32037
1.32046
1.32056
1.32068
1.32082
1.32098
1.32115
1.32135
1.32156
1.3218
1.32206
1.32234
1.32264
1.32296
1.32331
1.32368
1.32408
1.3245
1.32495
1.32542
1.32592
1.32645
1.327
1.32759
1.3282
1.32883
1.3295
1.33019
1.33091
1.33166
1.33244
1.33323
1.33406
1.3349
1.33577
1.33666
1.33757
1.33849
1.33943
1.34039
1.34135
1.34232
1.3433
1.34428
1.34526
1.34624
1.34722
1.34819
1.34914
1.35009
1.35102
1.35193
1.35282
1.35369
1.35454
1.35536
1.35615
1.3569
1.35763
1.35832
1.35898
1.35961
1.3602
1.36075
1.36127
1.36176
1.36221
1.36263
1.36301
1.36337
1.36369
1.36399
1.36426
1.3645
1.36472
1.36492
1.3651
1.36526
1.3654
1.36552
1.36563
1.36573
1.36581
1.36588
1.36595
1.366
1.36604
1.36608
1.36611
1.36614
1.36616
1.36618
1.36619
1.3662
1.3662
1.36621
1.36621
1.36621
1.36621
1.3662
1.3662
1.3662
1.36619
1.36618
1.36618
1.36617
1.36616
1.36616
1.36615
1.36614
1.36614
1.36613
1.36612
1.36612
1.36611
1.36611
1.3661
1.3661
1.36609
1.36609
1.36608
1.36608
1.36608
1.36607
1.36607
1.36607
1.36607
1.36607
1.36607
1.36607
1.36607
1.36607
1.36607
1.36608
1.36608
1.36608
1.36609
1.36609
1.3661
1.3661
1.36611
1.36612
1.36613
1.36614
1.36615
1.36616
1.36617
1.36618
1.3662
1.36621
1.36623
1.36625
1.36626
1.36628
1.3663
1.36632
1.36634
1.36636
1.36639
1.36641
1.36643
1.36646
1.36649
1.36651
1.36654
1.36657
1.36659
1.36662
1.36665
1.36668
1.36671
1.36674
1.36676
1.36679
1.36682
1.36684
1.36686
1.36689
1.36691
1.36692
1.36694
1.36695
1.36696
1.36697
1.36697
1.36697
1.36696
1.36695
1.36693
1.36691
1.36689
1.36685
1.36682
1.36677
1.36672
1.36667
1.3666
1.36653
1.36646
1.36638
1.36629
1.3662
1.3661
1.36599
1.36588
1.36577
1.36565
1.36552
1.36539
1.36526
1.36512
1.36498
1.36484
1.36468
1.36453
1.36437
1.36421
1.36404
1.36386
1.36368
1.36349
1.36329
1.36308
1.36286
1.36263
1.36238
1.36212
1.36184
1.36154
1.36122
1.36088
1.36052
1.36013
1.35972
1.35927
1.3588
1.35829
1.35776
1.35719
1.3566
1.35597
1.35531
1.35462
1.3539
1.35316
1.35238
1.35159
1.35077
1.34994
1.34908
1.34822
1.34734
1.34645
1.34555
1.34464
1.34373
1.34282
1.34191
1.34101
1.3401
1.3392
1.33831
1.33743
1.33656
1.3357
1.33485
1.33401
1.33319
1.33238
1.33158
1.3308
1.33004
1.32929
1.32856
1.32784
1.32714
1.32646
1.32579
1.32514
1.32451
1.32389
1.32328
1.3227
1.32213
1.32157
1.32103
1.3205
1.31999
1.31949
1.31901
1.31854
1.31808
1.31764
1.31721
1.3168
1.31639
1.316
1.31562
1.31526
1.3149
1.31456
1.31422
1.3139
1.31359
1.3133
1.31301
1.31273
1.31246
1.3122
1.31196
1.31172
1.31149
1.31127
1.31106
1.31086
1.31067
1.31049
1.31031
1.31015
1.30999
1.30984
1.3097
1.30957
1.30945
1.30933
1.30923
1.30913
1.30903
1.30897
1.30889
1.30879
1.30876
1.30877
1.30866
1.30853
1.30871
1.30877
1.30827
1.30828
1.30917
1.30855
1.30685
1.30849
1.31014
1.3054
1.30335
1.30871
1.30935
1.33732
1.33702
1.33686
1.33649
1.33575
1.33519
1.33472
1.334
1.33333
1.33275
1.3321
1.33144
1.33083
1.33022
1.32961
1.32903
1.32846
1.32791
1.32738
1.32687
1.32637
1.3259
1.32545
1.32502
1.32461
1.32421
1.32384
1.32349
1.32316
1.32284
1.32255
1.32227
1.32202
1.32178
1.32155
1.32135
1.32116
1.32099
1.32084
1.3207
1.32057
1.32047
1.32038
1.3203
1.32024
1.3202
1.32017
1.32016
1.32016
1.32018
1.32022
1.32027
1.32034
1.32042
1.32052
1.32064
1.32078
1.32093
1.32111
1.3213
1.32152
1.32175
1.322
1.32228
1.32258
1.3229
1.32324
1.32361
1.324
1.32442
1.32487
1.32534
1.32583
1.32635
1.32691
1.32748
1.32809
1.32873
1.32939
1.33008
1.3308
1.33154
1.33231
1.33311
1.33393
1.33478
1.33565
1.33654
1.33745
1.33837
1.33931
1.34027
1.34124
1.34221
1.34319
1.34418
1.34517
1.34615
1.34713
1.34811
1.34907
1.35002
1.35096
1.35188
1.35278
1.35366
1.35451
1.35533
1.35613
1.3569
1.35763
1.35833
1.35899
1.35962
1.36022
1.36078
1.3613
1.36179
1.36224
1.36266
1.36305
1.3634
1.36373
1.36402
1.36429
1.36454
1.36476
1.36495
1.36513
1.36528
1.36542
1.36555
1.36565
1.36575
1.36583
1.3659
1.36596
1.36601
1.36606
1.36609
1.36612
1.36615
1.36617
1.36618
1.36619
1.3662
1.36621
1.36621
1.36621
1.36621
1.36621
1.3662
1.3662
1.36619
1.36619
1.36618
1.36618
1.36617
1.36616
1.36615
1.36615
1.36614
1.36613
1.36613
1.36612
1.36611
1.36611
1.3661
1.3661
1.36609
1.36609
1.36608
1.36608
1.36607
1.36607
1.36607
1.36607
1.36606
1.36606
1.36606
1.36606
1.36606
1.36606
1.36606
1.36606
1.36607
1.36607
1.36607
1.36608
1.36608
1.36609
1.3661
1.3661
1.36611
1.36612
1.36613
1.36614
1.36615
1.36616
1.36617
1.36619
1.3662
1.36622
1.36623
1.36625
1.36627
1.36629
1.36631
1.36633
1.36635
1.36637
1.36639
1.36642
1.36644
1.36647
1.36649
1.36652
1.36655
1.36657
1.3666
1.36663
1.36666
1.36669
1.36671
1.36674
1.36677
1.36679
1.36682
1.36684
1.36686
1.36688
1.3669
1.36692
1.36693
1.36694
1.36694
1.36695
1.36695
1.36694
1.36693
1.36691
1.36689
1.36687
1.36683
1.3668
1.36675
1.3667
1.36665
1.36658
1.36651
1.36644
1.36636
1.36627
1.36618
1.36608
1.36597
1.36586
1.36575
1.36562
1.3655
1.36537
1.36523
1.3651
1.36495
1.36481
1.36466
1.3645
1.36434
1.36417
1.364
1.36383
1.36364
1.36345
1.36325
1.36304
1.36282
1.36259
1.36234
1.36208
1.3618
1.3615
1.36118
1.36083
1.36047
1.36008
1.35966
1.35921
1.35873
1.35823
1.35769
1.35712
1.35651
1.35588
1.35522
1.35452
1.3538
1.35305
1.35228
1.35148
1.35066
1.34983
1.34897
1.3481
1.34722
1.34633
1.34543
1.34453
1.34362
1.34271
1.3418
1.3409
1.34
1.3391
1.33821
1.33734
1.33647
1.33561
1.33476
1.33393
1.33311
1.33231
1.33152
1.33074
1.32998
1.32924
1.32851
1.3278
1.3271
1.32642
1.32576
1.32511
1.32448
1.32387
1.32327
1.32268
1.32212
1.32156
1.32102
1.3205
1.31999
1.3195
1.31901
1.31855
1.31809
1.31765
1.31722
1.31681
1.31641
1.31602
1.31564
1.31527
1.31492
1.31457
1.31424
1.31392
1.31361
1.31331
1.31302
1.31275
1.31248
1.31222
1.31197
1.31173
1.31151
1.31129
1.31108
1.31088
1.31068
1.3105
1.31033
1.31016
1.31001
1.30986
1.30972
1.30959
1.30946
1.30935
1.30924
1.30915
1.30905
1.30897
1.30893
1.30886
1.30876
1.30876
1.30881
1.30866
1.30856
1.30889
1.30886
1.30823
1.30871
1.30971
1.30817
1.30723
1.31061
1.30991
1.30498
1.30831
1.31084
1.33824
1.33781
1.33726
1.33661
1.33606
1.33547
1.33474
1.33404
1.33343
1.33275
1.33206
1.33143
1.3308
1.33016
1.32955
1.32897
1.32839
1.32784
1.32731
1.32679
1.3263
1.32582
1.32537
1.32494
1.32453
1.32414
1.32377
1.32342
1.32309
1.32278
1.32248
1.32221
1.32195
1.32172
1.3215
1.32129
1.32111
1.32094
1.32078
1.32065
1.32052
1.32042
1.32033
1.32025
1.32019
1.32015
1.32012
1.32011
1.32011
1.32013
1.32017
1.32022
1.32028
1.32037
1.32047
1.32058
1.32072
1.32087
1.32104
1.32123
1.32144
1.32167
1.32192
1.3222
1.32249
1.32281
1.32315
1.32351
1.3239
1.32431
1.32475
1.32522
1.32571
1.32623
1.32678
1.32735
1.32795
1.32858
1.32924
1.32993
1.33065
1.33139
1.33216
1.33296
1.33378
1.33462
1.33549
1.33638
1.33729
1.33822
1.33917
1.34013
1.3411
1.34207
1.34306
1.34405
1.34505
1.34604
1.34703
1.34801
1.34898
1.34995
1.35089
1.35182
1.35273
1.35362
1.35448
1.35531
1.35612
1.35689
1.35764
1.35834
1.35901
1.35965
1.36025
1.36081
1.36134
1.36183
1.36229
1.36271
1.3631
1.36345
1.36378
1.36407
1.36434
1.36458
1.3648
1.36499
1.36517
1.36532
1.36546
1.36558
1.36568
1.36577
1.36585
1.36592
1.36598
1.36603
1.36607
1.36611
1.36613
1.36616
1.36618
1.36619
1.3662
1.36621
1.36621
1.36621
1.36621
1.36621
1.36621
1.3662
1.3662
1.36619
1.36619
1.36618
1.36617
1.36617
1.36616
1.36615
1.36614
1.36614
1.36613
1.36612
1.36612
1.36611
1.3661
1.3661
1.36609
1.36609
1.36608
1.36608
1.36607
1.36607
1.36606
1.36606
1.36606
1.36606
1.36606
1.36605
1.36605
1.36605
1.36605
1.36606
1.36606
1.36606
1.36606
1.36607
1.36607
1.36607
1.36608
1.36609
1.36609
1.3661
1.36611
1.36612
1.36613
1.36614
1.36615
1.36616
1.36617
1.36619
1.3662
1.36622
1.36623
1.36625
1.36627
1.36629
1.36631
1.36633
1.36635
1.36638
1.3664
1.36642
1.36645
1.36647
1.3665
1.36653
1.36655
1.36658
1.36661
1.36664
1.36667
1.36669
1.36672
1.36675
1.36677
1.3668
1.36682
1.36684
1.36686
1.36688
1.36689
1.36691
1.36692
1.36692
1.36693
1.36692
1.36692
1.36691
1.36689
1.36687
1.36684
1.36681
1.36678
1.36673
1.36668
1.36662
1.36656
1.36649
1.36642
1.36634
1.36625
1.36615
1.36605
1.36595
1.36584
1.36572
1.3656
1.36548
1.36535
1.36521
1.36507
1.36493
1.36478
1.36463
1.36448
1.36432
1.36415
1.36398
1.3638
1.36362
1.36343
1.36323
1.36301
1.36279
1.36256
1.36231
1.36204
1.36176
1.36146
1.36113
1.36079
1.36042
1.36002
1.3596
1.35914
1.35866
1.35814
1.3576
1.35702
1.35641
1.35577
1.3551
1.3544
1.35367
1.35291
1.35213
1.35133
1.35051
1.34966
1.34881
1.34793
1.34705
1.34616
1.34526
1.34435
1.34344
1.34254
1.34163
1.34073
1.33983
1.33894
1.33805
1.33717
1.33631
1.33546
1.33462
1.33379
1.33297
1.33218
1.33139
1.33062
1.32987
1.32913
1.32841
1.32771
1.32702
1.32635
1.32569
1.32505
1.32443
1.32382
1.32323
1.32265
1.32209
1.32154
1.32101
1.32049
1.31998
1.31949
1.31901
1.31855
1.3181
1.31766
1.31724
1.31682
1.31642
1.31604
1.31566
1.3153
1.31494
1.3146
1.31427
1.31395
1.31364
1.31335
1.31306
1.31278
1.31252
1.31226
1.31201
1.31177
1.31155
1.31133
1.31112
1.31092
1.31073
1.31055
1.31038
1.31021
1.31006
1.30991
1.30977
1.30964
1.30953
1.30942
1.30931
1.30922
1.30916
1.30907
1.30899
1.30899
1.30896
1.30884
1.30888
1.30906
1.30889
1.3087
1.30928
1.30949
1.30854
1.309
1.31083
1.30944
1.30775
1.31103
1.31284
1.30984
1.30951
1.33929
1.33848
1.33773
1.33698
1.33635
1.33559
1.3348
1.33414
1.33345
1.3327
1.33203
1.33138
1.33071
1.33007
1.32946
1.32886
1.32828
1.32773
1.32719
1.32667
1.32618
1.32571
1.32526
1.32483
1.32442
1.32403
1.32366
1.32332
1.32299
1.32268
1.32239
1.32212
1.32187
1.32163
1.32141
1.32121
1.32103
1.32086
1.32071
1.32057
1.32045
1.32035
1.32026
1.32019
1.32013
1.32008
1.32006
1.32004
1.32005
1.32006
1.3201
1.32015
1.32021
1.32029
1.32039
1.32051
1.32064
1.32079
1.32096
1.32115
1.32135
1.32158
1.32183
1.32209
1.32238
1.3227
1.32303
1.32339
1.32377
1.32418
1.32461
1.32507
1.32556
1.32607
1.32662
1.32719
1.32779
1.32841
1.32907
1.32975
1.33046
1.3312
1.33197
1.33277
1.33359
1.33443
1.3353
1.33619
1.33711
1.33804
1.33899
1.33995
1.34092
1.34191
1.34291
1.3439
1.34491
1.34591
1.3469
1.3479
1.34888
1.34985
1.35081
1.35175
1.35267
1.35357
1.35444
1.35529
1.35611
1.35689
1.35764
1.35836
1.35904
1.35968
1.36029
1.36086
1.36139
1.36189
1.36235
1.36277
1.36316
1.36351
1.36384
1.36413
1.3644
1.36464
1.36485
1.36504
1.36521
1.36536
1.3655
1.36561
1.36572
1.3658
1.36588
1.36595
1.366
1.36605
1.36609
1.36612
1.36615
1.36617
1.36619
1.3662
1.36621
1.36621
1.36622
1.36622
1.36622
1.36621
1.36621
1.3662
1.3662
1.36619
1.36619
1.36618
1.36617
1.36616
1.36616
1.36615
1.36614
1.36613
1.36613
1.36612
1.36611
1.3661
1.3661
1.36609
1.36609
1.36608
1.36608
1.36607
1.36607
1.36606
1.36606
1.36606
1.36605
1.36605
1.36605
1.36605
1.36605
1.36605
1.36605
1.36605
1.36605
1.36605
1.36605
1.36606
1.36606
1.36607
1.36607
1.36608
1.36608
1.36609
1.3661
1.36611
1.36612
1.36613
1.36614
1.36615
1.36616
1.36618
1.36619
1.3662
1.36622
1.36624
1.36626
1.36627
1.36629
1.36632
1.36634
1.36636
1.36638
1.36641
1.36643
1.36646
1.36648
1.36651
1.36654
1.36656
1.36659
1.36662
1.36664
1.36667
1.3667
1.36672
1.36675
1.36677
1.3668
1.36682
1.36684
1.36686
1.36687
1.36688
1.36689
1.3669
1.3669
1.3669
1.3669
1.36688
1.36687
1.36685
1.36682
1.36679
1.36675
1.36671
1.36666
1.3666
1.36654
1.36647
1.3664
1.36631
1.36623
1.36613
1.36603
1.36593
1.36582
1.3657
1.36558
1.36546
1.36533
1.36519
1.36505
1.36491
1.36477
1.36462
1.36446
1.3643
1.36414
1.36396
1.36379
1.3636
1.36341
1.36321
1.363
1.36277
1.36254
1.36228
1.36202
1.36173
1.36142
1.3611
1.36074
1.36037
1.35996
1.35953
1.35907
1.35857
1.35805
1.35749
1.3569
1.35628
1.35563
1.35495
1.35424
1.3535
1.35273
1.35194
1.35113
1.3503
1.34945
1.34859
1.34771
1.34682
1.34593
1.34502
1.34412
1.34321
1.3423
1.34139
1.34049
1.33959
1.3387
1.33782
1.33695
1.33609
1.33524
1.3344
1.33358
1.33278
1.33198
1.33121
1.33045
1.3297
1.32898
1.32826
1.32757
1.32689
1.32623
1.32558
1.32495
1.32434
1.32374
1.32315
1.32259
1.32203
1.32149
1.32097
1.32046
1.31996
1.31947
1.319
1.31855
1.3181
1.31767
1.31725
1.31684
1.31645
1.31607
1.31569
1.31533
1.31498
1.31465
1.31432
1.314
1.3137
1.3134
1.31312
1.31284
1.31258
1.31232
1.31208
1.31184
1.31162
1.3114
1.3112
1.311
1.31081
1.31063
1.31046
1.3103
1.31015
1.31001
1.30988
1.30976
1.30964
1.30955
1.30945
1.30936
1.3093
1.30926
1.30919
1.30915
1.3092
1.3092
1.3091
1.30924
1.30951
1.30931
1.30927
1.31011
1.31019
1.30936
1.31059
1.31208
1.31068
1.31089
1.31343
1.31369
1.31434
1.34033
1.33907
1.33824
1.33741
1.33652
1.33568
1.33494
1.33418
1.33338
1.33266
1.33197
1.33126
1.33059
1.32995
1.32932
1.32871
1.32813
1.32757
1.32703
1.32652
1.32603
1.32556
1.32511
1.32468
1.32428
1.32389
1.32353
1.32318
1.32286
1.32256
1.32227
1.322
1.32175
1.32152
1.32131
1.32111
1.32093
1.32076
1.32062
1.32048
1.32036
1.32026
1.32017
1.3201
1.32004
1.32
1.31997
1.31996
1.31996
1.31998
1.32001
1.32006
1.32012
1.3202
1.3203
1.32041
1.32054
1.32069
1.32085
1.32104
1.32124
1.32146
1.3217
1.32197
1.32225
1.32256
1.32289
1.32324
1.32362
1.32402
1.32445
1.32491
1.32539
1.32589
1.32643
1.32699
1.32758
1.32821
1.32886
1.32954
1.33025
1.33099
1.33175
1.33254
1.33336
1.33421
1.33508
1.33597
1.33689
1.33782
1.33877
1.33974
1.34072
1.34172
1.34272
1.34372
1.34473
1.34574
1.34675
1.34776
1.34875
1.34974
1.35071
1.35166
1.3526
1.35351
1.3544
1.35526
1.35609
1.35688
1.35765
1.35838
1.35907
1.35972
1.36034
1.36091
1.36145
1.36195
1.36241
1.36284
1.36323
1.36358
1.3639
1.3642
1.36446
1.3647
1.36491
1.3651
1.36526
1.36541
1.36554
1.36565
1.36575
1.36584
1.36591
1.36597
1.36603
1.36607
1.36611
1.36614
1.36616
1.36618
1.3662
1.36621
1.36621
1.36622
1.36622
1.36622
1.36622
1.36622
1.36621
1.36621
1.3662
1.36619
1.36619
1.36618
1.36617
1.36616
1.36615
1.36615
1.36614
1.36613
1.36612
1.36611
1.36611
1.3661
1.36609
1.36609
1.36608
1.36608
1.36607
1.36607
1.36606
1.36606
1.36605
1.36605
1.36605
1.36605
1.36604
1.36604
1.36604
1.36604
1.36604
1.36604
1.36604
1.36604
1.36605
1.36605
1.36605
1.36606
1.36606
1.36607
1.36607
1.36608
1.36609
1.3661
1.36611
1.36612
1.36613
1.36614
1.36615
1.36616
1.36618
1.36619
1.36621
1.36622
1.36624
1.36626
1.36628
1.3663
1.36632
1.36634
1.36637
1.36639
1.36641
1.36644
1.36646
1.36649
1.36652
1.36654
1.36657
1.3666
1.36662
1.36665
1.36668
1.3667
1.36673
1.36675
1.36677
1.3668
1.36682
1.36683
1.36685
1.36686
1.36687
1.36688
1.36688
1.36688
1.36687
1.36686
1.36685
1.36682
1.3668
1.36677
1.36673
1.36668
1.36663
1.36658
1.36652
1.36645
1.36637
1.36629
1.3662
1.36611
1.36601
1.3659
1.36579
1.36568
1.36556
1.36544
1.36531
1.36517
1.36504
1.3649
1.36475
1.3646
1.36445
1.36429
1.36412
1.36395
1.36378
1.36359
1.3634
1.3632
1.36299
1.36276
1.36252
1.36227
1.362
1.3617
1.36139
1.36106
1.3607
1.36031
1.3599
1.35946
1.35898
1.35848
1.35794
1.35737
1.35677
1.35613
1.35547
1.35477
1.35404
1.35329
1.35251
1.35171
1.35089
1.35005
1.34919
1.34832
1.34744
1.34654
1.34564
1.34474
1.34383
1.34292
1.34201
1.3411
1.3402
1.3393
1.33841
1.33753
1.33666
1.33581
1.33496
1.33413
1.33332
1.33252
1.33173
1.33097
1.33022
1.32948
1.32876
1.32807
1.32738
1.32671
1.32606
1.32543
1.32481
1.32421
1.32362
1.32305
1.32249
1.32195
1.32142
1.32091
1.32041
1.31992
1.31945
1.31899
1.31854
1.3181
1.31768
1.31727
1.31687
1.31648
1.3161
1.31574
1.31539
1.31504
1.31471
1.31439
1.31408
1.31378
1.31348
1.3132
1.31293
1.31267
1.31242
1.31218
1.31195
1.31173
1.31152
1.31131
1.31112
1.31094
1.31076
1.3106
1.31045
1.3103
1.31016
1.31004
1.30993
1.30982
1.30973
1.30966
1.30959
1.30952
1.3095
1.30951
1.30946
1.30945
1.3096
1.30966
1.30955
1.30983
1.31029
1.31005
1.31006
1.31132
1.31157
1.31069
1.31214
1.31425
1.31368
1.31368
1.31648
1.31851
1.34117
1.33968
1.33868
1.33767
1.33668
1.33581
1.33497
1.33411
1.33331
1.33258
1.33183
1.3311
1.33043
1.32977
1.32913
1.32852
1.32794
1.32737
1.32684
1.32632
1.32583
1.32537
1.32492
1.3245
1.3241
1.32372
1.32336
1.32302
1.32271
1.32241
1.32213
1.32186
1.32162
1.32139
1.32118
1.32099
1.32081
1.32065
1.3205
1.32037
1.32026
1.32016
1.32007
1.32
1.31995
1.31991
1.31988
1.31987
1.31987
1.31988
1.31992
1.31996
1.32002
1.3201
1.32019
1.3203
1.32043
1.32057
1.32073
1.32091
1.32111
1.32133
1.32157
1.32183
1.3221
1.3224
1.32273
1.32308
1.32344
1.32384
1.32426
1.32471
1.32518
1.32569
1.32622
1.32677
1.32736
1.32798
1.32862
1.32929
1.33
1.33073
1.33149
1.33229
1.3331
1.33395
1.33482
1.33571
1.33663
1.33757
1.33852
1.3395
1.34049
1.34148
1.34249
1.34351
1.34453
1.34555
1.34657
1.34759
1.3486
1.3496
1.35058
1.35155
1.3525
1.35343
1.35434
1.35521
1.35606
1.35687
1.35765
1.35839
1.35909
1.35976
1.36038
1.36097
1.36151
1.36202
1.36248
1.36291
1.3633
1.36366
1.36398
1.36427
1.36453
1.36476
1.36497
1.36516
1.36532
1.36546
1.36559
1.3657
1.36579
1.36588
1.36595
1.36601
1.36606
1.3661
1.36613
1.36616
1.36618
1.3662
1.36621
1.36622
1.36622
1.36623
1.36623
1.36623
1.36622
1.36622
1.36621
1.36621
1.3662
1.36619
1.36618
1.36618
1.36617
1.36616
1.36615
1.36614
1.36613
1.36613
1.36612
1.36611
1.3661
1.3661
1.36609
1.36608
1.36608
1.36607
1.36607
1.36606
1.36606
1.36605
1.36605
1.36605
1.36604
1.36604
1.36604
1.36604
1.36604
1.36603
1.36603
1.36603
1.36604
1.36604
1.36604
1.36604
1.36605
1.36605
1.36605
1.36606
1.36606
1.36607
1.36608
1.36609
1.3661
1.3661
1.36611
1.36613
1.36614
1.36615
1.36616
1.36618
1.36619
1.36621
1.36623
1.36625
1.36626
1.36628
1.3663
1.36633
1.36635
1.36637
1.3664
1.36642
1.36644
1.36647
1.3665
1.36652
1.36655
1.36658
1.3666
1.36663
1.36665
1.36668
1.36671
1.36673
1.36675
1.36677
1.36679
1.36681
1.36682
1.36684
1.36685
1.36685
1.36685
1.36685
1.36685
1.36683
1.36682
1.3668
1.36677
1.36674
1.3667
1.36666
1.36661
1.36655
1.36649
1.36642
1.36634
1.36626
1.36618
1.36608
1.36598
1.36588
1.36577
1.36566
1.36554
1.36541
1.36529
1.36515
1.36502
1.36488
1.36474
1.36459
1.36444
1.36428
1.36411
1.36395
1.36377
1.36359
1.3634
1.3632
1.36298
1.36275
1.36252
1.36226
1.36198
1.36169
1.36137
1.36103
1.36066
1.36026
1.35984
1.35938
1.35889
1.35837
1.35782
1.35723
1.35661
1.35596
1.35528
1.35456
1.35382
1.35305
1.35226
1.35144
1.35061
1.34976
1.34889
1.34801
1.34712
1.34622
1.34531
1.34441
1.34349
1.34258
1.34167
1.34076
1.33985
1.33896
1.33807
1.33719
1.33633
1.33547
1.33464
1.33381
1.333
1.33221
1.33144
1.33068
1.32994
1.32922
1.32851
1.32782
1.32715
1.3265
1.32586
1.32524
1.32464
1.32405
1.32347
1.32292
1.32237
1.32184
1.32133
1.32083
1.32034
1.31987
1.31941
1.31896
1.31852
1.3181
1.31769
1.31729
1.3169
1.31652
1.31615
1.3158
1.31545
1.31511
1.31479
1.31448
1.31417
1.31388
1.31359
1.31332
1.31305
1.3128
1.31255
1.31232
1.31209
1.31188
1.31167
1.31147
1.31128
1.31111
1.31094
1.31078
1.31063
1.3105
1.31037
1.31025
1.31015
1.31007
1.30998
1.30992
1.30988
1.30985
1.30981
1.30983
1.3099
1.30989
1.30994
1.3102
1.31031
1.31026
1.31074
1.31131
1.31111
1.31149
1.31288
1.31315
1.31306
1.31463
1.31617
1.31698
1.3183
1.31987
1.34177
1.34012
1.33898
1.33782
1.3368
1.33585
1.33489
1.33402
1.33321
1.3324
1.33162
1.33091
1.33021
1.32953
1.32889
1.32829
1.3277
1.32713
1.3266
1.32609
1.32561
1.32514
1.32471
1.32429
1.3239
1.32352
1.32317
1.32284
1.32253
1.32223
1.32196
1.3217
1.32147
1.32124
1.32104
1.32085
1.32068
1.32052
1.32038
1.32025
1.32014
1.32004
1.31996
1.31989
1.31984
1.3198
1.31977
1.31976
1.31976
1.31977
1.3198
1.31985
1.31991
1.31998
1.32008
1.32018
1.32031
1.32044
1.3206
1.32078
1.32097
1.32118
1.32141
1.32167
1.32194
1.32223
1.32255
1.32289
1.32325
1.32364
1.32405
1.32449
1.32496
1.32545
1.32597
1.32652
1.3271
1.32771
1.32835
1.32902
1.32971
1.33044
1.33121
1.33199
1.33281
1.33365
1.33452
1.33542
1.33634
1.33728
1.33824
1.33922
1.34021
1.34122
1.34224
1.34326
1.34429
1.34533
1.34636
1.34739
1.34841
1.34942
1.35043
1.35142
1.35238
1.35333
1.35425
1.35515
1.35601
1.35684
1.35764
1.35839
1.35911
1.35979
1.36043
1.36102
1.36157
1.36209
1.36256
1.36299
1.36338
1.36374
1.36406
1.36434
1.36461
1.36484
1.36504
1.36522
1.36539
1.36552
1.36564
1.36575
1.36584
1.36592
1.36598
1.36604
1.36608
1.36612
1.36616
1.36618
1.3662
1.36621
1.36622
1.36623
1.36623
1.36624
1.36623
1.36623
1.36623
1.36622
1.36622
1.36621
1.3662
1.36619
1.36618
1.36618
1.36617
1.36616
1.36615
1.36614
1.36613
1.36612
1.36612
1.36611
1.3661
1.36609
1.36609
1.36608
1.36607
1.36607
1.36606
1.36606
1.36605
1.36605
1.36604
1.36604
1.36604
1.36603
1.36603
1.36603
1.36603
1.36603
1.36603