# vtk DataFile Version 2.0
LBE two cylinders
ASCII
DATASET STRUCTURED_POINTS
DIMENSIONS 400 100 1
ASPECT_RATIO 1 1 1
ORIGIN 0 0 0
POINT_DATA 40000
SCALARS rho double 1
LOOKUP_TABLE default
1.33867
1.33596
1.33623
1.33625
1.33532
1.3348
1.33447
1.33379
1.33316
1.33262
1.33202
1.33139
1.33081
1.33023
1.32964
1.32908
1.32853
1.32799
1.32748
1.32698
1.3265
1.32603
1.32559
1.32516
1.32476
1.32437
1.324
1.32365
1.32332
1.32301
1.32272
1.32245
1.32219
1.32195
1.32173
1.32152
1.32133
1.32116
1.32101
1.32087
1.32075
1.32064
1.32055
1.32048
1.32042
1.32038
1.32036
1.32035
1.32036
1.32038
1.32042
1.32048
1.32056
1.32065
1.32076
1.32089
1.32104
1.32121
1.32139
1.3216
1.32183
1.32208
1.32234
1.32264
1.32295
1.32329
1.32364
1.32403
1.32444
1.32487
1.32533
1.32581
1.32633
1.32686
1.32743
1.32802
1.32864
1.32929
1.32996
1.33067
1.33139
1.33215
1.33293
1.33373
1.33456
1.33541
1.33629
1.33718
1.33809
1.33902
1.33996
1.34092
1.34188
1.34285
1.34383
1.34481
1.34579
1.34677
1.34774
1.34871
1.34967
1.35061
1.35154
1.35244
1.35333
1.3542
1.35504
1.35585
1.35663
1.35739
1.35811
1.3588
1.35945
1.36008
1.36066
1.36121
1.36173
1.36221
1.36266
1.36308
1.36347
1.36382
1.36415
1.36445
1.36472
1.36497
1.3652
1.3654
1.36558
1.36575
1.3659
1.36603
1.36615
1.36626
1.36635
1.36643
1.36651
1.36658
1.36663
1.36669
1.36673
1.36678
1.36681
1.36685
1.36688
1.3669
1.36693
1.36695
1.36697
1.36699
1.36701
1.36703
1.36705
1.36706
1.36708
1.3671
1.36711
1.36713
1.36714
1.36716
1.36717
1.36718
1.3672
1.36721
1.36722
1.36724
1.36725
1.36726
1.36727
1.36728
1.36729
1.3673
1.36731
1.36732
1.36733
1.36734
1.36735
1.36736
1.36737
1.36737
1.36738
1.36739
1.36739
1.3674
1.3674
1.36741
1.36741
1.36742
1.36743
1.36743
1.36743
1.36744
1.36744
1.36745
1.36745
1.36746
1.36747
1.36747
1.36748
1.36748
1.36749
1.3675
1.3675
1.36751
1.36752
1.36753
1.36754
1.36754
1.36755
1.36756
1.36757
1.36759
1.3676
1.36761
1.36762
1.36763
1.36764
1.36765
1.36767
1.36768
1.36769
1.3677
1.36771
1.36772
1.36773
1.36774
1.36775
1.36775
1.36776
1.36776
1.36776
1.36776
1.36776
1.36775
1.36775
1.36773
1.36772
1.3677
1.36768
1.36765
1.36763
1.36759
1.36755
1.36751
1.36747
1.36742
1.36736
1.3673
1.36724
1.36717
1.36709
1.36701
1.36693
1.36685
1.36675
1.36666
1.36656
1.36646
1.36635
1.36624
1.36613
1.36601
1.36589
1.36577
1.36564
1.36551
1.36537
1.36523
1.36508
1.36492
1.36476
1.36459
1.36442
1.36423
1.36403
1.36382
1.3636
1.36336
1.3631
1.36283
1.36254
1.36222
1.36189
1.36152
1.36114
1.36072
1.36027
1.3598
1.35929
1.35875
1.35818
1.35757
1.35694
1.35627
1.35557
1.35484
1.35408
1.3533
1.35249
1.35166
1.35081
1.34994
1.34906
1.34816
1.34725
1.34633
1.34541
1.34448
1.34355
1.34262
1.3417
1.34077
1.33986
1.33895
1.33805
1.33715
1.33627
1.33541
1.33455
1.33371
1.33288
1.33207
1.33127
1.33049
1.32973
1.32898
1.32825
1.32754
1.32684
1.32616
1.32549
1.32485
1.32422
1.3236
1.323
1.32242
1.32186
1.32131
1.32077
1.32025
1.31975
1.31926
1.31878
1.31832
1.31788
1.31745
1.31703
1.31662
1.31623
1.31586
1.31549
1.31514
1.3148
1.31447
1.31415
1.31385
1.31356
1.31328
1.31301
1.31275
1.3125
1.31226
1.31203
1.31181
1.31161
1.31141
1.31122
1.31104
1.31087
1.31071
1.31056
1.31041
1.31028
1.31015
1.31004
1.30993
1.30983
1.30974
1.30966
1.30958
1.30953
1.30949
1.30942
1.3094
1.30943
1.30939
1.3093
1.30945
1.30962
1.30928
1.30917
1.3101
1.31
1.30795
1.30892
1.31281
1.3082
1.29946
1.31
1.31905
1.3368
1.33694
1.33645
1.33579
1.33548
1.33499
1.3344
1.33382
1.33327
1.33266
1.33204
1.33146
1.33086
1.33027
1.32969
1.32913
1.32857
1.32804
1.32752
1.32702
1.32654
1.32607
1.32563
1.3252
1.3248
1.32441
1.32404
1.32369
1.32336
1.32305
1.32275
1.32248
1.32222
1.32198
1.32175
1.32155
1.32136
1.32119
1.32103
1.32089
1.32077
1.32067
1.32058
1.3205
1.32044
1.3204
1.32038
1.32037
1.32038
1.3204
1.32044
1.3205
1.32058
1.32067
1.32078
1.32091
1.32106
1.32122
1.32141
1.32162
1.32184
1.32209
1.32236
1.32265
1.32296
1.32329
1.32365
1.32403
1.32444
1.32487
1.32533
1.32581
1.32632
1.32686
1.32742
1.32801
1.32863
1.32927
1.32994
1.33065
1.33137
1.33212
1.3329
1.3337
1.33453
1.33538
1.33625
1.33714
1.33805
1.33897
1.33991
1.34086
1.34183
1.3428
1.34377
1.34475
1.34573
1.34671
1.34768
1.34864
1.3496
1.35054
1.35147
1.35238
1.35327
1.35413
1.35497
1.35579
1.35657
1.35733
1.35805
1.35874
1.3594
1.36002
1.36061
1.36117
1.36169
1.36217
1.36262
1.36304
1.36343
1.36379
1.36412
1.36442
1.3647
1.36495
1.36517
1.36538
1.36557
1.36573
1.36588
1.36602
1.36614
1.36625
1.36634
1.36643
1.3665
1.36657
1.36663
1.36668
1.36673
1.36677
1.36681
1.36684
1.36687
1.3669
1.36693
1.36695
1.36697
1.36699
1.36701
1.36703
1.36705
1.36706
1.36708
1.36709
1.36711
1.36712
1.36714
1.36715
1.36717
1.36718
1.36719
1.36721
1.36722
1.36723
1.36724
1.36726
1.36727
1.36728
1.36729
1.3673
1.36731
1.36732
1.36733
1.36734
1.36735
1.36735
1.36736
1.36737
1.36738
1.36738
1.36739
1.36739
1.3674
1.36741
1.36741
1.36742
1.36742
1.36743
1.36743
1.36743
1.36744
1.36744
1.36745
1.36745
1.36746
1.36747
1.36747
1.36748
1.36748
1.36749
1.3675
1.3675
1.36751
1.36752
1.36753
1.36754
1.36755
1.36755
1.36756
1.36757
1.36759
1.3676
1.36761
1.36762
1.36763
1.36764
1.36765
1.36766
1.36768
1.36769
1.3677
1.36771
1.36772
1.36772
1.36773
1.36774
1.36774
1.36774
1.36774
1.36774
1.36774
1.36773
1.36772
1.36771
1.3677
1.36768
1.36766
1.36763
1.3676
1.36757
1.36753
1.36749
1.36744
1.36739
1.36733
1.36727
1.36721
1.36714
1.36707
1.36699
1.3669
1.36682
1.36672
1.36663
1.36653
1.36643
1.36632
1.36621
1.36609
1.36597
1.36585
1.36572
1.36559
1.36546
1.36532
1.36517
1.36502
1.36487
1.3647
1.36453
1.36435
1.36416
1.36396
1.36375
1.36353
1.36329
1.36303
1.36275
1.36246
1.36214
1.3618
1.36144
1.36105
1.36063
1.36019
1.35971
1.35921
1.35867
1.3581
1.3575
1.35686
1.3562
1.3555
1.35478
1.35403
1.35325
1.35244
1.35162
1.35077
1.34991
1.34903
1.34813
1.34723
1.34632
1.3454
1.34448
1.34355
1.34263
1.34171
1.34079
1.33987
1.33897
1.33807
1.33718
1.3363
1.33544
1.33459
1.33375
1.33292
1.33211
1.33132
1.33054
1.32978
1.32903
1.3283
1.32759
1.32689
1.32621
1.32554
1.3249
1.32426
1.32365
1.32305
1.32247
1.3219
1.32135
1.32081
1.32029
1.31979
1.3193
1.31882
1.31836
1.31791
1.31748
1.31706
1.31666
1.31626
1.31588
1.31552
1.31516
1.31482
1.31449
1.31417
1.31387
1.31357
1.31329
1.31302
1.31276
1.31251
1.31227
1.31204
1.31182
1.31161
1.3114
1.31121
1.31103
1.31086
1.31069
1.31054
1.31039
1.31026
1.31013
1.31001
1.30989
1.30979
1.30969
1.30961
1.30953
1.30946
1.3094
1.30937
1.30931
1.30925
1.30929
1.30929
1.30916
1.30916
1.30942
1.30925
1.30876
1.30918
1.30986
1.30815
1.30666
1.30931
1.30876
1.29888
1.29341
1.33613
1.33711
1.3364
1.33569
1.33567
1.3351
1.33439
1.3339
1.33335
1.33268
1.33209
1.33151
1.33089
1.3303
1.32972
1.32915
1.3286
1.32806
1.32754
1.32704
1.32655
1.32609
1.32564
1.32522
1.32481
1.32442
1.32405
1.3237
1.32337
1.32306
1.32276
1.32248
1.32223
1.32199
1.32176
1.32156
1.32137
1.32119
1.32104
1.3209
1.32078
1.32067
1.32058
1.32051
1.32045
1.32041
1.32038
1.32037
1.32038
1.3204
1.32044
1.3205
1.32058
1.32067
1.32078
1.32091
1.32105
1.32122
1.3214
1.32161
1.32183
1.32208
1.32234
1.32263
1.32294
1.32327
1.32363
1.32401
1.32441
1.32484
1.3253
1.32578
1.32629
1.32682
1.32738
1.32797
1.32858
1.32923
1.32989
1.33059
1.33131
1.33207
1.33284
1.33364
1.33446
1.33531
1.33618
1.33707
1.33798
1.3389
1.33984
1.34079
1.34175
1.34272
1.3437
1.34468
1.34566
1.34664
1.34761
1.34858
1.34953
1.35048
1.35141
1.35232
1.35321
1.35408
1.35492
1.35574
1.35653
1.35729
1.35802
1.35871
1.35937
1.36
1.36059
1.36115
1.36167
1.36216
1.36261
1.36304
1.36343
1.36379
1.36412
1.36442
1.3647
1.36495
1.36517
1.36538
1.36557
1.36574
1.36588
1.36602
1.36614
1.36625
1.36634
1.36643
1.3665
1.36657
1.36663
1.36668
1.36673
1.36677
1.36681
1.36684
1.36687
1.3669
1.36693
1.36695
1.36697
1.36699
1.36701
1.36703
1.36704
1.36706
1.36708
1.36709
1.36711
1.36712
1.36714
1.36715
1.36716
1.36718
1.36719
1.3672
1.36722
1.36723
1.36724
1.36725
1.36727
1.36728
1.36729
1.3673
1.36731
1.36732
1.36733
1.36734
1.36734
1.36735
1.36736
1.36737
1.36737
1.36738
1.36739
1.36739
1.3674
1.3674
1.36741
1.36741
1.36742
1.36742
1.36743
1.36743
1.36744
1.36744
1.36745
1.36745
1.36746
1.36746
1.36747
1.36747
1.36748
1.36749
1.36749
1.3675
1.36751
1.36751
1.36752
1.36753
1.36754
1.36755
1.36756
1.36757
1.36758
1.36759
1.3676
1.36761
1.36762
1.36763
1.36764
1.36765
1.36766
1.36768
1.36768
1.36769
1.3677
1.36771
1.36772
1.36772
1.36773
1.36773
1.36773
1.36773
1.36772
1.36772
1.36771
1.3677
1.36768
1.36766
1.36764
1.36761
1.36758
1.36755
1.36751
1.36747
1.36742
1.36737
1.36731
1.36725
1.36719
1.36712
1.36704
1.36696
1.36688
1.36679
1.3667
1.3666
1.3665
1.3664
1.36629
1.36618
1.36606
1.36594
1.36581
1.36569
1.36555
1.36542
1.36528
1.36513
1.36498
1.36482
1.36465
1.36448
1.3643
1.36411
1.36391
1.36369
1.36347
1.36322
1.36297
1.36269
1.36239
1.36208
1.36174
1.36137
1.36098
1.36057
1.36012
1.35965
1.35914
1.3586
1.35804
1.35744
1.3568
1.35614
1.35545
1.35472
1.35397
1.3532
1.3524
1.35157
1.35073
1.34987
1.34899
1.3481
1.3472
1.34629
1.34538
1.34446
1.34353
1.34261
1.34169
1.34078
1.33987
1.33896
1.33807
1.33718
1.33631
1.33545
1.3346
1.33376
1.33294
1.33213
1.33133
1.33056
1.3298
1.32905
1.32832
1.32761
1.32691
1.32623
1.32557
1.32492
1.32429
1.32367
1.32308
1.32249
1.32193
1.32138
1.32084
1.32032
1.31981
1.31932
1.31885
1.31838
1.31793
1.3175
1.31708
1.31667
1.31628
1.3159
1.31553
1.31518
1.31483
1.3145
1.31418
1.31387
1.31358
1.31329
1.31302
1.31276
1.31251
1.31226
1.31203
1.31181
1.3116
1.3114
1.3112
1.31102
1.31084
1.31068
1.31052
1.31037
1.31023
1.3101
1.30997
1.30986
1.30975
1.30965
1.30956
1.30948
1.3094
1.30932
1.30928
1.30925
1.30915
1.3091
1.30921
1.30913
1.30884
1.30908
1.30947
1.30861
1.30802
1.30988
1.30954
1.30475
1.30674
1.31357
1.3012
1.28904
1.33655
1.33662
1.33649
1.33624
1.33571
1.33506
1.33458
1.33401
1.33334
1.33274
1.33215
1.33151
1.3309
1.33032
1.32973
1.32915
1.3286
1.32806
1.32753
1.32703
1.32654
1.32608
1.32563
1.3252
1.32479
1.3244
1.32403
1.32368
1.32335
1.32304
1.32274
1.32247
1.32221
1.32197
1.32175
1.32154
1.32135
1.32118
1.32102
1.32088
1.32076
1.32066
1.32056
1.32049
1.32043
1.32039
1.32036
1.32035
1.32036
1.32038
1.32042
1.32048
1.32055
1.32065
1.32075
1.32088
1.32102
1.32119
1.32137
1.32157
1.3218
1.32204
1.3223
1.32259
1.3229
1.32323
1.32358
1.32396
1.32436
1.32479
1.32524
1.32572
1.32622
1.32675
1.32731
1.32789
1.3285
1.32914
1.32981
1.3305
1.33122
1.33197
1.33274
1.33354
1.33437
1.33521
1.33608
1.33697
1.33788
1.3388
1.33974
1.34069
1.34166
1.34263
1.34361
1.34459
1.34557
1.34655
1.34753
1.3485
1.34946
1.35041
1.35135
1.35226
1.35316
1.35404
1.35488
1.35571
1.3565
1.35727
1.358
1.3587
1.35936
1.35999
1.36059
1.36115
1.36168
1.36217
1.36263
1.36305
1.36344
1.3638
1.36413
1.36444
1.36471
1.36496
1.36519
1.3654
1.36558
1.36575
1.3659
1.36603
1.36615
1.36626
1.36635
1.36644
1.36651
1.36658
1.36664
1.36669
1.36674
1.36678
1.36681
1.36685
1.36688
1.3669
1.36693
1.36695
1.36697
1.36699
1.36701
1.36703
1.36705
1.36706
1.36708
1.36709
1.36711
1.36712
1.36714
1.36715
1.36716
1.36718
1.36719
1.36721
1.36722
1.36723
1.36724
1.36725
1.36727
1.36728
1.36729
1.3673
1.36731
1.36732
1.36733
1.36734
1.36735
1.36735
1.36736
1.36737
1.36738
1.36738
1.36739
1.36739
1.3674
1.3674
1.36741
1.36742
1.36742
1.36742
1.36743
1.36743
1.36744
1.36744
1.36745
1.36745
1.36746
1.36746
1.36747
1.36747
1.36748
1.36748
1.36749
1.3675
1.3675
1.36751
1.36752
1.36753
1.36754
1.36755
1.36755
1.36756
1.36757
1.36758
1.36759
1.3676
1.36761
1.36763
1.36764
1.36765
1.36766
1.36767
1.36768
1.36769
1.36769
1.3677
1.36771
1.36771
1.36772
1.36772
1.36772
1.36772
1.36771
1.36771
1.3677
1.36768
1.36767
1.36765
1.36763
1.3676
1.36757
1.36754
1.3675
1.36745
1.36741
1.36735
1.3673
1.36724
1.36717
1.3671
1.36702
1.36694
1.36686
1.36677
1.36668
1.36658
1.36648
1.36637
1.36626
1.36615
1.36603
1.36591
1.36578
1.36565
1.36552
1.36538
1.36524
1.36509
1.36494
1.36478
1.36461
1.36444
1.36425
1.36406
1.36386
1.36364
1.36341
1.36317
1.36291
1.36264
1.36234
1.36202
1.36168
1.36132
1.36092
1.36051
1.36006
1.35958
1.35908
1.35854
1.35797
1.35737
1.35673
1.35607
1.35538
1.35465
1.3539
1.35312
1.35232
1.3515
1.35066
1.3498
1.34892
1.34803
1.34713
1.34622
1.34531
1.34439
1.34347
1.34255
1.34164
1.34072
1.33981
1.33891
1.33802
1.33714
1.33627
1.33541
1.33456
1.33373
1.33291
1.3321
1.33131
1.33054
1.32978
1.32904
1.32831
1.3276
1.3269
1.32623
1.32556
1.32492
1.32429
1.32368
1.32308
1.3225
1.32193
1.32138
1.32085
1.32033
1.31982
1.31933
1.31885
1.31839
1.31794
1.31751
1.31709
1.31668
1.31629
1.31591
1.31554
1.31518
1.31484
1.31451
1.31419
1.31388
1.31358
1.3133
1.31302
1.31276
1.31251
1.31226
1.31203
1.31181
1.31159
1.31139
1.3112
1.31101
1.31083
1.31067
1.31051
1.31035
1.31021
1.31008
1.30995
1.30983
1.30972
1.30963
1.30952
1.30943
1.30937
1.3093
1.30921
1.30917
1.30919
1.30908
1.30895
1.30913
1.3092
1.3087
1.30872
1.30961
1.30899
1.3073
1.30894
1.31059
1.30585
1.3038
1.30916
1.30978
1.33732
1.33702
1.33686
1.3365
1.33577
1.33522
1.33475
1.33403
1.33338
1.3328
1.33215
1.3315
1.3309
1.3303
1.3297
1.32912
1.32856
1.32802
1.32749
1.32699
1.3265
1.32603
1.32558
1.32515
1.32474
1.32436
1.32399
1.32364
1.3233
1.32299
1.3227
1.32242
1.32217
1.32193
1.3217
1.3215
1.32131
1.32114
1.32098
1.32085
1.32072
1.32062
1.32053
1.32045
1.32039
1.32035
1.32033
1.32032
1.32032
1.32035
1.32038
1.32044
1.32051
1.3206
1.32071
1.32083
1.32098
1.32114
1.32132
1.32152
1.32174
1.32198
1.32224
1.32252
1.32283
1.32315
1.3235
1.32388
1.32427
1.3247
1.32514
1.32562
1.32612
1.32665
1.3272
1.32778
1.32839
1.32903
1.32969
1.33038
1.3311
1.33184
1.33262
1.33341
1.33423
1.33508
1.33595
1.33684
1.33774
1.33867
1.33961
1.34057
1.34153
1.34251
1.34349
1.34448
1.34547
1.34646
1.34744
1.34842
1.34938
1.35034
1.35128
1.35221
1.35311
1.35399
1.35485
1.35568
1.35648
1.35725
1.35799
1.3587
1.35937
1.36001
1.36061
1.36117
1.3617
1.3622
1.36265
1.36308
1.36347
1.36384
1.36417
1.36447
1.36475
1.365
1.36522
1.36543
1.36561
1.36578
1.36592
1.36606
1.36617
1.36628
1.36637
1.36645
1.36653
1.36659
1.36665
1.3667
1.36675
1.36679
1.36682
1.36685
1.36688
1.36691
1.36693
1.36696
1.36698
1.367
1.36701
1.36703
1.36705
1.36707
1.36708
1.3671
1.36711
1.36713
1.36714
1.36715
1.36717
1.36718
1.36719
1.36721
1.36722
1.36723
1.36724
1.36726
1.36727
1.36728
1.36729
1.3673
1.36731
1.36732
1.36733
1.36734
1.36735
1.36736
1.36736
1.36737
1.36738
1.36739
1.36739
1.3674
1.3674
1.36741
1.36741
1.36742
1.36742
1.36743
1.36743
1.36744
1.36744
1.36745
1.36745
1.36746
1.36746
1.36747
1.36747
1.36748
1.36748
1.36749
1.36749
1.3675
1.36751
1.36751
1.36752
1.36753
1.36754
1.36755
1.36755
1.36756
1.36757
1.36758
1.36759
1.3676
1.36761
1.36762
1.36763
1.36764
1.36765
1.36766
1.36767
1.36768
1.36769
1.3677
1.3677
1.36771
1.36771
1.36771
1.36771
1.36771
1.3677
1.3677
1.36769
1.36768
1.36766
1.36764
1.36762
1.36759
1.36756
1.36753
1.36749
1.36744
1.3674
1.36734
1.36729
1.36722
1.36716
1.36708
1.36701
1.36693
1.36684
1.36675
1.36666
1.36656
1.36646
1.36635
1.36624
1.36613
1.36601
1.36588
1.36576
1.36563
1.36549
1.36535
1.36521
1.36506
1.36491
1.36475
1.36458
1.3644
1.36422
1.36403
1.36382
1.3636
1.36337
1.36313
1.36287
1.36259
1.36229
1.36197
1.36163
1.36126
1.36087
1.36044
1.35999
1.35951
1.359
1.35846
1.35789
1.35728
1.35664
1.35597
1.35528
1.35455
1.35379
1.35301
1.35221
1.35138
1.35054
1.34967
1.3488
1.34791
1.34701
1.3461
1.34518
1.34427
1.34335
1.34243
1.34152
1.34061
1.3397
1.3388
1.33791
1.33703
1.33617
1.33531
1.33447
1.33364
1.33282
1.33202
1.33124
1.33047
1.32971
1.32897
1.32825
1.32755
1.32686
1.32618
1.32553
1.32488
1.32426
1.32365
1.32306
1.32248
1.32192
1.32137
1.32084
1.32032
1.31982
1.31933
1.31885
1.31839
1.31795
1.31751
1.31709
1.31669
1.31629
1.31591
1.31555
1.31519
1.31485
1.31452
1.3142
1.31389
1.31359
1.31331
1.31303
1.31277
1.31251
1.31227
1.31204
1.31182
1.3116
1.3114
1.3112
1.31102
1.31084
1.31067
1.31051
1.31036
1.31022
1.31008
1.30996
1.30984
1.30973
1.30963
1.30954
1.30945
1.30937
1.30933
1.30927
1.30917
1.30918
1.30923
1.30907
1.30898
1.30932
1.30929
1.30866
1.30914
1.31014
1.30861
1.30767
1.31106
1.31036
1.30542
1.30875
1.31127
1.33822
1.33779
1.33725
1.3366
1.33606
1.33548
1.33476
1.33407
1.33347
1.33279
1.33211
1.33149
1.33086
1.33023
1.32964
1.32906
1.32849
1.32794
1.32741
1.3269
1.32641
1.32595
1.3255
1.32507
1.32466
1.32427
1.3239
1.32356
1.32323
1.32292
1.32262
1.32235
1.32209
1.32186
1.32164
1.32143
1.32125
1.32108
1.32092
1.32078
1.32066
1.32056
1.32047
1.32039
1.32034
1.32029
1.32027
1.32026
1.32026
1.32028
1.32032
1.32038
1.32045
1.32054
1.32064
1.32076
1.3209
1.32106
1.32124
1.32144
1.32165
1.32189
1.32215
1.32243
1.32273
1.32305
1.3234
1.32377
1.32416
1.32458
1.32502
1.32549
1.32598
1.32651
1.32706
1.32763
1.32824
1.32887
1.32953
1.33022
1.33094
1.33168
1.33245
1.33325
1.33407
1.33491
1.33578
1.33667
1.33758
1.33851
1.33945
1.34041
1.34138
1.34236
1.34335
1.34435
1.34534
1.34634
1.34733
1.34831
1.34929
1.35025
1.3512
1.35214
1.35305
1.35394
1.35481
1.35565
1.35646
1.35724
1.35799
1.35871
1.35938
1.36003
1.36063
1.36121
1.36174
1.36224
1.3627
1.36313
1.36352
1.36388
1.36421
1.36452
1.36479
1.36504
1.36526
1.36547
1.36565
1.36581
1.36596
1.36609
1.3662
1.3663
1.3664
1.36648
1.36655
1.36661
1.36667
1.36672
1.36676
1.3668
1.36683
1.36686
1.36689
1.36692
1.36694
1.36696
1.36698
1.367
1.36702
1.36704
1.36705
1.36707
1.36708
1.3671
1.36711
1.36713
1.36714
1.36716
1.36717
1.36718
1.3672
1.36721
1.36722
1.36724
1.36725
1.36726
1.36727
1.36729
1.3673
1.36731
1.36732
1.36733
1.36734
1.36735
1.36735
1.36736
1.36737
1.36738
1.36739
1.36739
1.3674
1.3674
1.36741
1.36742
1.36742
1.36743
1.36743
1.36744
1.36744
1.36744
1.36745
1.36745
1.36746
1.36746
1.36747
1.36747
1.36748
1.36748
1.36749
1.36749
1.3675
1.3675
1.36751
1.36752
1.36752
1.36753
1.36754
1.36755
1.36756
1.36757
1.36757
1.36758
1.36759
1.3676
1.36761
1.36762
1.36763
1.36764
1.36765
1.36766
1.36767
1.36768
1.36769
1.36769
1.3677
1.3677
1.36771
1.36771
1.36771
1.3677
1.3677
1.36769
1.36768
1.36767
1.36765
1.36763
1.36761
1.36758
1.36755
1.36752
1.36748
1.36743
1.36739
1.36733
1.36728
1.36721
1.36715
1.36707
1.367
1.36692
1.36683
1.36674
1.36664
1.36655
1.36644
1.36633
1.36622
1.36611
1.36599
1.36587
1.36574
1.36561
1.36547
1.36533
1.36519
1.36504
1.36488
1.36472
1.36455
1.36438
1.36419
1.364
1.36379
1.36357
1.36334
1.3631
1.36283
1.36255
1.36225
1.36192
1.36158
1.3612
1.36081
1.36038
1.35992
1.35943
1.35892
1.35837
1.35778
1.35717
1.35652
1.35585
1.35514
1.3544
1.35364
1.35286
1.35205
1.35121
1.35036
1.3495
1.34862
1.34772
1.34682
1.34591
1.345
1.34408
1.34316
1.34224
1.34133
1.34042
1.33952
1.33862
1.33774
1.33686
1.336
1.33515
1.33431
1.33349
1.33268
1.33188
1.3311
1.33034
1.32959
1.32886
1.32815
1.32745
1.32677
1.3261
1.32545
1.32482
1.3242
1.3236
1.32301
1.32244
1.32188
1.32134
1.32081
1.3203
1.3198
1.31931
1.31884
1.31839
1.31794
1.31751
1.3171
1.31669
1.3163
1.31593
1.31556
1.31521
1.31486
1.31454
1.31422
1.31391
1.31362
1.31333
1.31306
1.31279
1.31254
1.3123
1.31207
1.31185
1.31163
1.31143
1.31124
1.31105
1.31088
1.31071
1.31055
1.3104
1.31026
1.31013
1.31001
1.3099
1.30979
1.30969
1.30961
1.30954
1.30946
1.30939
1.30939
1.30936
1.30925
1.30929
1.30947
1.3093
1.30912
1.3097
1.30992
1.30897
1.30944
1.31127
1.30988
1.30819
1.31148
1.31329
1.31028
1.30995
1.33925
1.33844
1.33771
1.33697
1.33634
1.33559
1.33481
1.33416
1.33348
1.33274
1.33208
1.33144
1.33077
1.33014
1.32954
1.32894
1.32837
1.32782
1.32729
1.32678
1.32629
1.32582
1.32537
1.32495
1.32454
1.32416
1.32379
1.32345
1.32312
1.32281
1.32252
1.32225
1.322
1.32176
1.32154
1.32134
1.32116
1.32099
1.32084
1.3207
1.32058
1.32048
1.32039
1.32032
1.32026
1.32022
1.32019
1.32018
1.32018
1.32021
1.32024
1.3203
1.32036
1.32045
1.32055
1.32067
1.32081
1.32097
1.32114
1.32134
1.32155
1.32178
1.32203
1.32231
1.3226
1.32292
1.32326
1.32363
1.32402
1.32443
1.32487
1.32533
1.32582
1.32634
1.32688
1.32746
1.32806
1.32868
1.32934
1.33003
1.33074
1.33148
1.33225
1.33304
1.33386
1.33471
1.33558
1.33647
1.33738
1.33831
1.33926
1.34023
1.3412
1.34219
1.34318
1.34418
1.34519
1.34619
1.34719
1.34818
1.34917
1.35015
1.35111
1.35206
1.35298
1.35389
1.35476
1.35562
1.35644
1.35723
1.35799
1.35872
1.3594
1.36005
1.36067
1.36125
1.36178
1.36229
1.36275
1.36318
1.36357
1.36394
1.36427
1.36457
1.36484
1.36509
1.36531
1.36551
1.36569
1.36585
1.366
1.36612
1.36624
1.36634
1.36642
1.3665
1.36657
1.36663
1.36669
1.36673
1.36678
1.36681
1.36685
1.36688
1.3669
1.36693
1.36695
1.36697
1.36699
1.36701
1.36703
1.36704
1.36706
1.36707
1.36709
1.3671
1.36712
1.36713
1.36715
1.36716
1.36718
1.36719
1.3672
1.36722
1.36723
1.36724
1.36725
1.36727
1.36728
1.36729
1.3673
1.36731
1.36732
1.36733
1.36734
1.36735
1.36736
1.36737
1.36738
1.36739
1.36739
1.3674
1.36741
1.36741
1.36742
1.36742
1.36743
1.36743
1.36744
1.36744
1.36745
1.36745
1.36746
1.36746
1.36747
1.36747
1.36748
1.36748
1.36749
1.36749
1.3675
1.3675
1.36751
1.36751
1.36752
1.36753
1.36753
1.36754
1.36755
1.36755
1.36756
1.36757
1.36758
1.36759
1.3676
1.36761
1.36762
1.36763
1.36764
1.36765
1.36765
1.36766
1.36767
1.36768
1.36769
1.36769
1.3677
1.3677
1.36771
1.36771
1.36771
1.3677
1.3677
1.36769
1.36768
1.36767
1.36765
1.36763
1.36761
1.36758
1.36755
1.36751
1.36747
1.36743
1.36738
1.36733
1.36727
1.3672
1.36714
1.36706
1.36699
1.3669
1.36682
1.36673
1.36663
1.36653
1.36643
1.36632
1.36621
1.36609
1.36598
1.36585
1.36573
1.36559
1.36546
1.36532
1.36517
1.36502
1.36487
1.36471
1.36454
1.36436
1.36418
1.36398
1.36377
1.36355
1.36332
1.36307
1.3628
1.36252
1.36221
1.36188
1.36153
1.36115
1.36074
1.36031
1.35984
1.35934
1.35881
1.35825
1.35766
1.35703
1.35638
1.35569
1.35497
1.35422
1.35345
1.35265
1.35183
1.35099
1.35014
1.34926
1.34838
1.34748
1.34657
1.34566
1.34474
1.34383
1.34291
1.34199
1.34108
1.34017
1.33927
1.33838
1.33749
1.33662
1.33576
1.33492
1.33409
1.33327
1.33247
1.33168
1.33091
1.33015
1.32942
1.3287
1.32799
1.3273
1.32663
1.32597
1.32533
1.32471
1.3241
1.32351
1.32293
1.32237
1.32182
1.32128
1.32077
1.32026
1.31977
1.31929
1.31883
1.31838
1.31794
1.31752
1.3171
1.31671
1.31632
1.31595
1.31558
1.31523
1.3149
1.31457
1.31426
1.31395
1.31366
1.31338
1.31311
1.31285
1.3126
1.31236
1.31213
1.31191
1.3117
1.3115
1.31131
1.31112
1.31095
1.31079
1.31063
1.31049
1.31035
1.31023
1.31011
1.31
1.30991
1.30982
1.30974
1.30968
1.30965
1.30958
1.30954
1.3096
1.3096
1.3095
1.30965
1.30992
1.30972
1.30969
1.31053
1.31062
1.30979
1.31102
1.31252
1.31112
1.31134
1.31388
1.31414
1.31479
1.34027
1.33902
1.3382
1.33738
1.3365
1.33567
1.33494
1.33419
1.3334
1.33269
1.33201
1.3313
1.33064
1.33001
1.32939
1.32878
1.32821
1.32766
1.32712
1.32661
1.32613
1.32566
1.32521
1.32479
1.32439
1.32401
1.32364
1.3233
1.32298
1.32268
1.32239
1.32212
1.32187
1.32164
1.32143
1.32123
1.32105
1.32088
1.32073
1.3206
1.32048
1.32038
1.32029
1.32022
1.32016
1.32012
1.32009
1.32008
1.32009
1.32011
1.32014
1.32019
1.32026
1.32035
1.32045
1.32056
1.3207
1.32085
1.32102
1.32121
1.32142
1.32165
1.3219
1.32217
1.32246
1.32277
1.3231
1.32347
1.32385
1.32425
1.32469
1.32515
1.32563
1.32614
1.32668
1.32725
1.32784
1.32847
1.32912
1.3298
1.33051
1.33125
1.33201
1.3328
1.33362
1.33447
1.33534
1.33623
1.33714
1.33808
1.33903
1.34
1.34098
1.34198
1.34298
1.34399
1.345
1.34601
1.34702
1.34803
1.34903
1.35002
1.35099
1.35195
1.35289
1.35381
1.3547
1.35557
1.35641
1.35721
1.35798
1.35872
1.35942
1.36008
1.3607
1.36129
1.36183
1.36234
1.36281
1.36324
1.36364
1.364
1.36433
1.36463
1.3649
1.36515
1.36537
1.36557
1.36574
1.3659
1.36604
1.36616
1.36627
1.36637
1.36645
1.36653
1.3666
1.36666
1.36671
1.36675
1.36679
1.36683
1.36686
1.36689
1.36691
1.36694
1.36696
1.36698
1.367
1.36702
1.36703
1.36705
1.36706
1.36708
1.36709
1.36711
1.36712
1.36714
1.36715
1.36717
1.36718
1.3672
1.36721
1.36722
1.36723
1.36725
1.36726
1.36727
1.36729
1.3673
1.36731
1.36732
1.36733
1.36734
1.36735
1.36736
1.36737
1.36738
1.36739
1.3674
1.3674
1.36741
1.36742
1.36742
1.36743
1.36744
1.36744
1.36745
1.36745
1.36746
1.36746
1.36746
1.36747
1.36747
1.36748
1.36748
1.36749
1.36749
1.3675
1.3675
1.36751
1.36751
1.36752
1.36752
1.36753
1.36753
1.36754
1.36755
1.36756
1.36756
1.36757
1.36758
1.36759
1.3676
1.3676
1.36761
1.36762
1.36763
1.36764
1.36765
1.36766
1.36767
1.36768
1.36768
1.36769
1.3677
1.3677
1.3677
1.36771
1.36771
1.36771
1.3677
1.3677
1.36769
1.36768
1.36766
1.36765
1.36763
1.3676
1.36758
1.36754
1.36751
1.36747
1.36742
1.36737
1.36732
1.36726
1.3672
1.36713
1.36706
1.36698
1.3669
1.36681
1.36672
1.36662
1.36652
1.36642
1.36631
1.3662
1.36608
1.36597
1.36584
1.36572
1.36559
1.36545
1.36531
1.36517
1.36502
1.36486
1.3647
1.36453
1.36435
1.36417
1.36397
1.36376
1.36354
1.3633
1.36305
1.36278
1.36249
1.36218
1.36184
1.36148
1.36109
1.36067
1.36023
1.35975
1.35924
1.3587
1.35812
1.35751
1.35687
1.3562
1.3555
1.35477
1.35401
1.35322
1.35241
1.35158
1.35073
1.34986
1.34898
1.34809
1.34718
1.34627
1.34536
1.34443
1.34351
1.34259
1.34167
1.34076
1.33985
1.33895
1.33807
1.33719
1.33632
1.33547
1.33463
1.3338
1.33299
1.3322
1.33142
1.33066
1.32991
1.32919
1.32848
1.32778
1.3271
1.32645
1.3258
1.32517
1.32456
1.32397
1.32338
1.32282
1.32227
1.32173
1.32121
1.3207
1.32021
1.31972
1.31926
1.3188
1.31836
1.31793
1.31752
1.31711
1.31672
1.31634
1.31598
1.31562
1.31528
1.31494
1.31462
1.31431
1.31401
1.31373
1.31345
1.31318
1.31293
1.31268
1.31244
1.31222
1.312
1.3118
1.3116
1.31141
1.31124
1.31107
1.31091
1.31076
1.31062
1.31049
1.31038
1.31027
1.31017
1.31008
1.31002
1.30996
1.30989
1.30987
1.30989
1.30984
1.30984
1.30999
1.31006
1.30995
1.31023
1.3107
1.31047
1.31049
1.31175
1.31201
1.31113
1.31259
1.3147
1.31414
1.31414
1.31695
1.31898
1.34108
1.3396
1.33862
1.33762
1.33664
1.33579
1.33496
1.33411
1.33332
1.33259
1.33185
1.33113
1.33047
1.32982
1.32918
1.32858
1.32801
1.32745
1.32692
1.32641
1.32592
1.32546
1.32502
1.3246
1.3242
1.32383
1.32347
1.32313
1.32281
1.32252
1.32223
1.32197
1.32173
1.3215
1.32129
1.32109
1.32092
1.32075
1.32061
1.32048
1.32036
1.32026
1.32017
1.3201
1.32005
1.32001
1.31998
1.31997
1.31997
1.31999
1.32003
1.32008
1.32014
1.32023
1.32032
1.32044
1.32057
1.32072
1.32089
1.32107
1.32128
1.3215
1.32174
1.32201
1.32229
1.3226
1.32293
1.32328
1.32365
1.32405
1.32448
1.32493
1.32541
1.32592
1.32645
1.327
1.3276
1.32822
1.32886
1.32954
1.33024
1.33097
1.33174
1.33253
1.33334
1.33419
1.33506
1.33595
1.33687
1.33781
1.33876
1.33974
1.34073
1.34173
1.34274
1.34376
1.34478
1.3458
1.34683
1.34784
1.34885
1.34986
1.35085
1.35182
1.35278
1.35372
1.35463
1.35551
1.35636
1.35719
1.35797
1.35872
1.35943
1.36011
1.36074
1.36133
1.36188
1.3624
1.36287
1.3633
1.3637
1.36407
1.3644
1.3647
1.36497
1.36521
1.36543
1.36562
1.36579
1.36595
1.36609
1.36621
1.36631
1.36641
1.36649
1.36656
1.36662
1.36668
1.36673
1.36677
1.36681
1.36685
1.36687
1.3669
1.36693
1.36695
1.36697
1.36699
1.36701
1.36702
1.36704
1.36706
1.36707
1.36709
1.3671
1.36712
1.36713
1.36714
1.36716
1.36717
1.36719
1.3672
1.36721
1.36723
1.36724
1.36726
1.36727
1.36728
1.36729
1.36731
1.36732
1.36733
1.36734
1.36735
1.36736
1.36737
1.36738
1.36739
1.3674
1.36741
1.36741
1.36742
1.36743
1.36743
1.36744
1.36745
1.36745
1.36746
1.36746
1.36747
1.36747
1.36748
1.36748
1.36749
1.36749
1.36749
1.3675
1.3675
1.36751
1.36751
1.36752
1.36752
1.36753
1.36753
1.36754
1.36755
1.36755
1.36756
1.36757
1.36757
1.36758
1.36759
1.3676
1.36761
1.36761
1.36762
1.36763
1.36764
1.36765
1.36766
1.36767
1.36767
1.36768
1.36769
1.36769
1.3677
1.3677
1.36771
1.36771
1.36771
1.36771
1.3677
1.3677
1.36769
1.36768
1.36766
1.36765
1.36763
1.3676
1.36757
1.36754
1.3675
1.36746
1.36742
1.36737
1.36731
1.36725
1.36719
1.36712
1.36705
1.36697
1.36689
1.3668
1.36671
1.36661
1.36651
1.36641
1.3663
1.36619
1.36608
1.36596
1.36583
1.36571
1.36558
1.36544
1.36531
1.36516
1.36501
1.36486
1.3647
1.36453
1.36435
1.36416
1.36397
1.36375
1.36353
1.36329
1.36304
1.36276
1.36246
1.36215
1.3618
1.36143
1.36103
1.36061
1.36015
1.35965
1.35913
1.35857
1.35798
1.35735
1.35669
1.356
1.35528
1.35453
1.35376
1.35295
1.35213
1.35129
1.35042
1.34954
1.34865
1.34775
1.34684
1.34592
1.345
1.34408
1.34315
1.34223
1.34131
1.34039
1.33949
1.33859
1.3377
1.33683
1.33596
1.33511
1.33428
1.33346
1.33266
1.33188
1.33111
1.33035
1.32962
1.32891
1.32821
1.32753
1.32687
1.32622
1.32559
1.32498
1.32438
1.3238
1.32323
1.32268
1.32214
1.32162
1.32111
1.32061
1.32013
1.31967
1.31921
1.31877
1.31834
1.31792
1.31752
1.31712
1.31674
1.31637
1.31601
1.31567
1.31533
1.31501
1.31469
1.31439
1.3141
1.31382
1.31355
1.31329
1.31303
1.31279
1.31256
1.31234
1.31213
1.31193
1.31174
1.31156
1.31139
1.31123
1.31108
1.31094
1.31081
1.31069
1.31058
1.31048
1.3104
1.31033
1.31026
1.31023
1.31021
1.31017
1.3102
1.31028
1.31027
1.31033
1.31059
1.31071
1.31067
1.31115
1.31172
1.31153
1.31192
1.31331
1.3136
1.31352
1.31509
1.31664
1.31746
1.31878
1.32036
1.34166
1.34003
1.3389
1.33776
1.33675
1.33581
1.33486
1.334
1.3332
1.33241
1.33164
1.33093
1.33025
1.32957
1.32894
1.32834
1.32776
1.3272
1.32667
1.32617
1.32569
1.32523
1.32479
1.32438
1.32399
1.32362
1.32327
1.32294
1.32262
1.32233
1.32206
1.3218
1.32156
1.32134
1.32113
1.32094
1.32077
1.32061
1.32047
1.32034
1.32023
1.32013
1.32004
1.31998
1.31992
1.31988
1.31986
1.31984
1.31985
1.31987
1.3199
1.31995
1.32001
1.32009
1.32019
1.3203
1.32043
1.32057
1.32073
1.32091
1.32111
1.32133
1.32157
1.32183
1.3221
1.3224
1.32273
1.32307
1.32344
1.32383
1.32425
1.32469
1.32516
1.32566
1.32618
1.32674
1.32732
1.32793
1.32857
1.32924
1.32994
1.33067
1.33143
1.33221
1.33303
1.33388
1.33474
1.33564
1.33656
1.3375
1.33846
1.33944
1.34043
1.34144
1.34246
1.34349
1.34452
1.34556
1.34659
1.34762
1.34865
1.34967
1.35067
1.35167
1.35264
1.35359
1.35453
1.35543
1.3563
1.35714
1.35794
1.35871
1.35943
1.36012
1.36077
1.36137
1.36193
1.36245
1.36293
1.36337
1.36377
1.36414
1.36447
1.36476
1.36503
1.36527
1.36548
1.36568
1.36585
1.366
1.36613
1.36625
1.36635
1.36644
1.36652
1.36659
1.36665
1.3667
1.36675
1.36679
1.36683
1.36686
1.36689
1.36692
1.36694
1.36696
1.36698
1.367
1.36701
1.36703
1.36705
1.36706
1.36708
1.36709
1.36711
1.36712
1.36714
1.36715
1.36716
1.36718
1.36719
1.36721
1.36722
1.36723
1.36725
1.36726
1.36727
1.36729
1.3673
1.36731
1.36733
1.36734
1.36735
1.36736
1.36737
1.36738
1.36739
1.3674
1.36741
1.36742