# vtk DataFile Version 2.0
LBE two cylinders
ASCII
DATASET STRUCTURED_POINTS
DIMENSIONS 400 100 1
ASPECT_RATIO 1 1 1
ORIGIN 0 0 0
POINT_DATA 40000
SCALARS rho double 1
LOOKUP_TABLE default
1.18412
1.16603
1.16712
1.16896
1.16515
1.16415
1.16493
1.1642
1.16359
1.16383
1.16387
1.16374
1.16389
1.16411
1.16425
1.16446
1.16473
1.16498
1.16523
1.16549
1.16573
1.16595
1.16614
1.1663
1.16643
1.16652
1.16658
1.1666
1.1666
1.16657
1.16652
1.16644
1.16635
1.16625
1.16615
1.16604
1.16593
1.16584
1.16576
1.16571
1.16569
1.16571
1.16576
1.16587
1.16602
1.16625
1.16657
1.16701
1.16763
1.16851
1.16982
1.17177
1.17475
1.17925
1.18589
1.19525
1.2075
1.22198
1.23699
1.2503
1.2601
1.26573
1.26772
1.26733
1.26592
1.2645
1.26356
1.26313
1.26299
1.26286
1.26256
1.26204
1.26136
1.2606
1.25985
1.25917
1.25855
1.25797
1.25736
1.25666
1.25584
1.25485
1.25373
1.25249
1.25122
1.24999
1.24888
1.24795
1.24726
1.24685
1.24675
1.24702
1.24771
1.24891
1.25079
1.25352
1.25739
1.26269
1.2697
1.27859
1.28927
1.30126
1.31369
1.32542
1.33532
1.34264
1.34719
1.34928
1.34963
1.34902
1.34814
1.34743
1.34709
1.34712
1.34741
1.34782
1.34819
1.34838
1.34832
1.34793
1.34716
1.346
1.3444
1.34236
1.33985
1.33691
1.33358
1.32996
1.32618
1.32241
1.31877
1.31538
1.3123
1.30955
1.30708
1.30485
1.30279
1.30083
1.29892
1.29703
1.29514
1.29323
1.29133
1.28945
1.28761
1.28584
1.28416
1.28258
1.28111
1.27975
1.27848
1.27731
1.27623
1.27522
1.27427
1.27339
1.27255
1.27175
1.27097
1.27022
1.26947
1.26873
1.26798
1.26722
1.26644
1.26564
1.26482
1.26396
1.26308
1.26217
1.26121
1.26022
1.25919
1.25812
1.25702
1.25589
1.25475
1.25361
1.25248
1.25136
1.25029
1.24927
1.2483
1.24741
1.2466
1.24586
1.24521
1.24463
1.24413
1.24369
1.24331
1.24298
1.2427
1.24246
1.24225
1.24208
1.24194
1.24184
1.24177
1.24174
1.24175
1.2418
1.24189
1.24201
1.24218
1.24238
1.24263
1.24292
1.24326
1.24365
1.2441
1.24461
1.24519
1.24583
1.24655
1.24734
1.24819
1.2491
1.25007
1.25109
1.25215
1.25324
1.25434
1.25545
1.25656
1.25765
1.25873
1.25977
1.26079
1.26177
1.26273
1.26365
1.26454
1.2654
1.26624
1.26706
1.26786
1.26864
1.26941
1.27018
1.27096
1.27175
1.27256
1.27341
1.27431
1.27525
1.27626
1.27735
1.27851
1.27978
1.28114
1.28262
1.28421
1.28591
1.28771
1.28958
1.29153
1.29355
1.29562
1.29777
1.30001
1.3024
1.30497
1.30776
1.31079
1.31406
1.3175
1.32102
1.32448
1.32774
1.33065
1.33313
1.33515
1.33673
1.33796
1.33894
1.33976
1.34051
1.34122
1.34193
1.34262
1.34328
1.34391
1.34448
1.345
1.34548
1.34595
1.34646
1.34707
1.34779
1.34858
1.34925
1.34944
1.34864
1.34626
1.34182
1.3351
1.32626
1.31586
1.30474
1.2938
1.28383
1.27532
1.26848
1.26325
1.25947
1.25688
1.25526
1.25439
1.25412
1.2543
1.25481
1.25555
1.25641
1.25726
1.25802
1.25861
1.259
1.2592
1.25934
1.25958
1.26019
1.26146
1.26373
1.26726
1.27223
1.27861
1.28608
1.29393
1.30103
1.30598
1.30732
1.30394
1.29542
1.28226
1.26572
1.24758
1.22964
1.21345
1.19998
1.18952
1.18186
1.17647
1.17276
1.17023
1.16847
1.16722
1.16629
1.16558
1.165
1.16453
1.16414
1.16381
1.16352
1.16328
1.16307
1.16289
1.16274
1.16261
1.16251
1.16243
1.16237
1.16232
1.16229
1.16226
1.16224
1.16221
1.16218
1.16213
1.16208
1.162
1.16191
1.16179
1.16164
1.16147
1.16126
1.16102
1.16075
1.16045
1.16011
1.15975
1.15935
1.15891
1.15847
1.15804
1.15752
1.15697
1.15658
1.15614
1.15536
1.15483
1.15496
1.1542
1.15242
1.15304
1.15509
1.1509
1.14567
1.15467
1.161
1.17332
1.17192
1.16875
1.16613
1.16578
1.16534
1.16442
1.16408
1.16409
1.1639
1.1638
1.1639
1.164
1.16409
1.16427
1.16448
1.16468
1.16491
1.16515
1.16538
1.1656
1.16581
1.166
1.16615
1.16628
1.16638
1.16645
1.16649
1.1665
1.16649
1.16645
1.1664
1.16633
1.16625
1.16617
1.16608
1.166
1.16593
1.16588
1.16585
1.16584
1.16587
1.16594
1.16606
1.16623
1.16646
1.1668
1.16726
1.16791
1.16885
1.17025
1.17235
1.17556
1.18039
1.18746
1.19724
1.20969
1.22384
1.23786
1.24974
1.25827
1.26336
1.26568
1.26613
1.26555
1.26461
1.26374
1.26313
1.26274
1.26245
1.26212
1.26166
1.26107
1.2604
1.25971
1.25905
1.25844
1.25785
1.25723
1.25652
1.2557
1.25474
1.25367
1.2525
1.2513
1.25013
1.24907
1.24817
1.24749
1.2471
1.24703
1.24734
1.24811
1.24944
1.2515
1.25448
1.25864
1.26425
1.27153
1.28055
1.29107
1.30255
1.31413
1.32481
1.33377
1.34052
1.34499
1.34746
1.34844
1.34846
1.34804
1.34755
1.34724
1.3472
1.34739
1.3477
1.34801
1.34818
1.3481
1.34771
1.34694
1.34577
1.34417
1.34212
1.33964
1.33675
1.33351
1.33001
1.32636
1.32269
1.31912
1.31576
1.31267
1.30987
1.30735
1.30507
1.30296
1.30097
1.29905
1.29717
1.29529
1.29342
1.29155
1.28971
1.28791
1.28617
1.28451
1.28294
1.28146
1.28008
1.27879
1.27759
1.27648
1.27543
1.27445
1.27353
1.27266
1.27182
1.27102
1.27023
1.26945
1.26868
1.2679
1.26711
1.26631
1.26549
1.26464
1.26377
1.26288
1.26195
1.26099
1.26
1.25898
1.25792
1.25684
1.25575
1.25464
1.25353
1.25244
1.25136
1.25033
1.24934
1.2484
1.24753
1.24674
1.24601
1.24537
1.24479
1.24429
1.24385
1.24346
1.24312
1.24283
1.24258
1.24236
1.24218
1.24203
1.24192
1.24185
1.24182
1.24183
1.24188
1.24196
1.24209
1.24226
1.24247
1.24273
1.24303
1.24337
1.24377
1.24423
1.24475
1.24533
1.24597
1.24668
1.24746
1.2483
1.2492
1.25015
1.25114
1.25218
1.25323
1.25431
1.25539
1.25648
1.25755
1.2586
1.25964
1.26065
1.26163
1.26258
1.26351
1.26441
1.26528
1.26614
1.26697
1.26779
1.26859
1.26939
1.27019
1.27099
1.27181
1.27265
1.27352
1.27444
1.27542
1.27646
1.27757
1.27876
1.28005
1.28143
1.28292
1.28451
1.28619
1.28797
1.28982
1.29174
1.29372
1.29578
1.29792
1.30018
1.30258
1.30517
1.30799
1.31104
1.31432
1.31774
1.32122
1.32462
1.3278
1.33063
1.33306
1.33505
1.33664
1.33789
1.3389
1.33976
1.34052
1.34125
1.34195
1.34263
1.34327
1.34385
1.34437
1.34485
1.34533
1.34585
1.34645
1.34708
1.34767
1.34805
1.34801
1.34728
1.34558
1.34261
1.33815
1.33206
1.3244
1.31545
1.30571
1.29581
1.28641
1.27804
1.27101
1.26543
1.26123
1.25826
1.25631
1.25518
1.25471
1.25474
1.25514
1.25578
1.25656
1.25735
1.25808
1.25868
1.25912
1.25944
1.25972
1.26013
1.2609
1.26231
1.26465
1.26814
1.27284
1.27865
1.28519
1.29184
1.29771
1.3017
1.30265
1.29958
1.29203
1.28033
1.26549
1.24896
1.23222
1.21663
1.20315
1.1923
1.18406
1.17811
1.17395
1.17108
1.16909
1.16769
1.16668
1.1659
1.1653
1.16481
1.1644
1.16406
1.16377
1.16351
1.16329
1.16311
1.16294
1.16281
1.16269
1.16259
1.16251
1.16245
1.16239
1.16233
1.16228
1.16223
1.16217
1.1621
1.16202
1.16192
1.1618
1.16165
1.16148
1.16129
1.16106
1.1608
1.16052
1.16021
1.15987
1.1595
1.15911
1.1587
1.15826
1.15779
1.15736
1.15689
1.15633
1.15584
1.15551
1.15489
1.15409
1.15386
1.1539
1.15237
1.15106
1.15239
1.15259
1.14587
1.14231
1.1683
1.17197
1.16782
1.16484
1.1662
1.16559
1.16409
1.16421
1.16435
1.16391
1.16384
1.16403
1.16404
1.16407
1.16426
1.16442
1.16457
1.16477
1.16498
1.16518
1.16538
1.16557
1.16574
1.1659
1.16603
1.16614
1.16623
1.1663
1.16634
1.16636
1.16636
1.16634
1.16631
1.16628
1.16623
1.16619
1.16615
1.16612
1.1661
1.16611
1.16613
1.16619
1.16629
1.16642
1.16661
1.16687
1.16721
1.16769
1.16835
1.16931
1.17073
1.17289
1.17619
1.18118
1.18849
1.19859
1.21136
1.22565
1.23939
1.25053
1.2581
1.26245
1.26453
1.26517
1.26496
1.26432
1.26359
1.26295
1.26247
1.26206
1.26166
1.2612
1.26068
1.2601
1.2595
1.25891
1.25833
1.25773
1.2571
1.25639
1.25558
1.25467
1.25366
1.25256
1.25144
1.25034
1.24933
1.24848
1.24784
1.24748
1.24746
1.24783
1.24871
1.2502
1.25247
1.25572
1.2602
1.26613
1.27363
1.28268
1.29295
1.30384
1.31455
1.32429
1.33242
1.33865
1.343
1.34573
1.34717
1.34772
1.34775
1.34756
1.34738
1.34734
1.34747
1.34771
1.34796
1.3481
1.34803
1.34765
1.3469
1.34573
1.34411
1.34205
1.33958
1.33673
1.33357
1.33018
1.32664
1.32307
1.31958
1.31625
1.31317
1.31035
1.30779
1.30547
1.30334
1.30133
1.29942
1.29755
1.2957
1.29387
1.29205
1.29026
1.28851
1.28681
1.28517
1.28361
1.28212
1.28072
1.27939
1.27814
1.27696
1.27586
1.27482
1.27383
1.2729
1.272
1.27113
1.27028
1.26945
1.26862
1.26779
1.26696
1.26611
1.26525
1.26437
1.26347
1.26254
1.2616
1.26063
1.25964
1.25863
1.2576
1.25655
1.25549
1.25444
1.25338
1.25234
1.25133
1.25034
1.24941
1.24852
1.24769
1.24693
1.24623
1.2456
1.24503
1.24453
1.24409
1.24369
1.24334
1.24304
1.24277
1.24254
1.24234
1.24218
1.24206
1.24198
1.24195
1.24195
1.242
1.24209
1.24222
1.24239
1.24261
1.24288
1.24319
1.24355
1.24397
1.24443
1.24496
1.24554
1.24618
1.24688
1.24765
1.24846
1.24933
1.25025
1.25121
1.2522
1.25322
1.25425
1.25529
1.25633
1.25737
1.2584
1.25941
1.26041
1.26139
1.26235
1.26328
1.2642
1.2651
1.26598
1.26685
1.2677
1.26855
1.26939
1.27023
1.27108
1.27195
1.27284
1.27377
1.27474
1.27576
1.27685
1.27802
1.27926
1.28059
1.28201
1.28351
1.28511
1.28678
1.28853
1.29034
1.29221
1.29416
1.29617
1.29828
1.30051
1.30291
1.30551
1.30834
1.31142
1.31471
1.31816
1.32165
1.32503
1.32818
1.33096
1.33332
1.33526
1.33681
1.33805
1.33908
1.33995
1.34074
1.34148
1.34217
1.3428
1.34338
1.34391
1.3444
1.34489
1.3454
1.34595
1.34651
1.347
1.34725
1.34708
1.34627
1.34463
1.34205
1.33845
1.33384
1.32824
1.32167
1.31424
1.30614
1.29767
1.28925
1.28132
1.27429
1.26839
1.26373
1.26026
1.25786
1.25636
1.2556
1.2554
1.25564
1.25616
1.25685
1.25759
1.2583
1.25891
1.25941
1.25982
1.26023
1.26077
1.26165
1.26312
1.26543
1.26873
1.27305
1.27822
1.28389
1.28956
1.29453
1.29792
1.29872
1.29597
1.28915
1.27846
1.26486
1.24966
1.23417
1.21944
1.20632
1.19534
1.18668
1.18021
1.17557
1.17232
1.17007
1.16849
1.16736
1.16651
1.16586
1.16535
1.16492
1.16456
1.16426
1.16399
1.16376
1.16355
1.16337
1.16321
1.16306
1.16293
1.16282
1.16271
1.16261
1.16251
1.16242
1.16232
1.16221
1.16209
1.16197
1.16182
1.16166
1.16147
1.16126
1.16102
1.16077
1.16049
1.16018
1.15985
1.15951
1.15914
1.15874
1.15837
1.15796
1.15749
1.15707
1.15672
1.1562
1.15559
1.15534
1.15506
1.15401
1.15335
1.15413
1.15322
1.15001
1.15135
1.15526
1.14704
1.13978
1.16778
1.16679
1.16653
1.1668
1.16558
1.16454
1.16471
1.16457
1.16407
1.16403
1.16411
1.16402
1.16401
1.16412
1.1642
1.16429
1.16443
1.16459
1.16474
1.1649
1.16508
1.16525
1.16541
1.16557
1.16572
1.16585
1.16596
1.16606
1.16614
1.16621
1.16626
1.1663
1.16632
1.16635
1.16636
1.16638
1.1664
1.16643
1.16648
1.16653
1.16661
1.16671
1.16685
1.16702
1.16724
1.16753
1.1679
1.16839
1.16907
1.17005
1.1715
1.17369
1.17705
1.18215
1.18962
1.19995
1.21293
1.22726
1.24075
1.25135
1.25834
1.26231
1.26427
1.26492
1.26471
1.26403
1.26326
1.26262
1.26213
1.26172
1.2613
1.26085
1.26037
1.25985
1.25932
1.25877
1.25821
1.25762
1.25698
1.25626
1.25546
1.25458
1.25363
1.25263
1.25161
1.25061
1.2497
1.24893
1.24835
1.24806
1.24811
1.2486
1.24964
1.25136
1.25394
1.25757
1.26245
1.26872
1.2764
1.28531
1.29502
1.30494
1.31445
1.32302
1.3303
1.33618
1.34068
1.34388
1.34594
1.34707
1.34754
1.34764
1.34762
1.34763
1.34775
1.34794
1.34815
1.34825
1.34817
1.34778
1.34703
1.34585
1.34423
1.34216
1.33968
1.33686
1.33377
1.33048
1.32707
1.32363
1.32025
1.317
1.31395
1.31114
1.30856
1.30622
1.30406
1.30205
1.30013
1.29828
1.29647
1.29469
1.29292
1.29119
1.28948
1.28782
1.28621
1.28464
1.28314
1.2817
1.28031
1.27899
1.27774
1.27654
1.27541
1.27433
1.2733
1.27231
1.27135
1.27042
1.2695
1.2686
1.26769
1.26679
1.26588
1.26496
1.26404
1.26309
1.26214
1.26117
1.26019
1.2592
1.2582
1.25719
1.25618
1.25517
1.25416
1.25317
1.2522
1.25126
1.25034
1.24947
1.24864
1.24786
1.24714
1.24648
1.24588
1.24533
1.24484
1.24439
1.24399
1.24363
1.24331
1.24302
1.24277
1.24256
1.24239
1.24225
1.24216
1.24212
1.24212
1.24216
1.24225
1.24239
1.24258
1.24281
1.24309
1.24342
1.2438
1.24423
1.24471
1.24524
1.24582
1.24646
1.24715
1.24789
1.24868
1.24951
1.25038
1.25129
1.25222
1.25318
1.25415
1.25514
1.25614
1.25713
1.25813
1.25912
1.26011
1.26108
1.26205
1.263
1.26395
1.26488
1.2658
1.26671
1.26762
1.26852
1.26943
1.27034
1.27127
1.27221
1.27318
1.27419
1.27524
1.27634
1.27752
1.27876
1.28008
1.28148
1.28295
1.28449
1.2861
1.28777
1.28949
1.29126
1.29308
1.29496
1.29692
1.29899
1.30118
1.30355
1.30613
1.30897
1.31205
1.31536
1.31882
1.32232
1.3257
1.32883
1.33158
1.3339
1.3358
1.33731
1.33853
1.33954
1.34041
1.3412
1.34192
1.34259
1.34319
1.34372
1.34421
1.34467
1.34515
1.34564
1.34615
1.34658
1.34682
1.34666
1.34586
1.34423
1.34163
1.33809
1.33376
1.32887
1.32364
1.31813
1.3123
1.30604
1.29931
1.29223
1.28509
1.27828
1.27219
1.26706
1.26302
1.26006
1.25807
1.2569
1.25639
1.25638
1.25672
1.25728
1.25794
1.2586
1.25922
1.25976
1.26027
1.26081
1.2615
1.26252
1.26405
1.26629
1.26937
1.2733
1.27791
1.28285
1.28768
1.29179
1.29449
1.29491
1.29218
1.28576
1.27584
1.26338
1.24963
1.23566
1.2222
1.2098
1.19895
1.18998
1.183
1.17782
1.17412
1.17153
1.16972
1.16844
1.1675
1.16679
1.16623
1.16577
1.16539
1.16506
1.16477
1.16451
1.16427
1.16406
1.16386
1.16367
1.16349
1.16332
1.16316
1.163
1.16284
1.16267
1.16251
1.16234
1.16216
1.16196
1.16176
1.16153
1.16129
1.16103
1.16075
1.16045
1.16014
1.1598
1.15945
1.1591
1.15874
1.15837
1.15797
1.15761
1.15726
1.15682
1.15637
1.15612
1.15575
1.15502
1.15467
1.15485
1.15401
1.15249
1.15322
1.15419
1.15081
1.14861
1.15263
1.15362
1.167
1.16561
1.16619
1.16639
1.16477
1.16463
1.16504
1.16442
1.16407
1.16426
1.16418
1.164
1.16405
1.16412
1.1641
1.16416
1.16427
1.16436
1.16447
1.16461
1.16476
1.16491
1.16508
1.16524
1.1654
1.16556
1.16571
1.16585
1.16598
1.1661
1.16622
1.16632
1.16642
1.16652
1.16662
1.16672
1.16682
1.16693
1.16705
1.16719
1.16734
1.1675
1.1677
1.16793
1.1682
1.16852
1.16893
1.16946
1.17016
1.17116
1.17262
1.17482
1.17821
1.18337
1.19098
1.20154
1.21482
1.2294
1.24283
1.25293
1.25912
1.26231
1.26382
1.26444
1.26446
1.26403
1.26337
1.26265
1.26199
1.26142
1.26095
1.26055
1.26016
1.25974
1.25927
1.25875
1.25819
1.25759
1.25693
1.2562
1.25542
1.25459
1.25372
1.25282
1.25192
1.25105
1.25026
1.24958
1.2491
1.24889
1.24906
1.2497
1.25096
1.25297
1.25593
1.26
1.26531
1.2719
1.27964
1.2882
1.29712
1.30586
1.31399
1.32125
1.32757
1.333
1.33756
1.34126
1.34408
1.34604
1.34724
1.34785
1.3481
1.34818
1.34824
1.34835
1.34849
1.34857
1.34848
1.34812
1.34738
1.3462
1.34456
1.3425
1.34005
1.33728
1.33428
1.33111
1.32785
1.32456
1.3213
1.31815
1.31515
1.31236
1.30979
1.30743
1.30526
1.30324
1.30133
1.2995
1.29772
1.29598
1.29426
1.29257
1.29091
1.28928
1.28768
1.28611
1.28458
1.28308
1.28163
1.28021
1.27885
1.27754
1.27628
1.27508
1.27392
1.27281
1.27174
1.27069
1.26967
1.26866
1.26767
1.26668
1.2657
1.26471
1.26373
1.26274
1.26174
1.26075
1.25975
1.25875
1.25776
1.25677
1.25579
1.25482
1.25388
1.25295
1.25204
1.25117
1.25033
1.24952
1.24876
1.24804
1.24737
1.24676
1.24619
1.24566
1.24518
1.24475
1.24434
1.24397
1.24364
1.24334
1.24307
1.24284
1.24265
1.2425
1.2424
1.24234
1.24234
1.24238
1.24248
1.24262
1.24282
1.24307
1.24337
1.24372
1.24412
1.24456
1.24505
1.24559
1.24617
1.2468
1.24747
1.24818
1.24893
1.24971
1.25053
1.25137
1.25224
1.25314
1.25405
1.25498
1.25592
1.25687
1.25784
1.25881
1.25978
1.26076
1.26174
1.26272
1.26369
1.26467
1.26564
1.26662
1.26759
1.26858
1.26957
1.27057
1.2716
1.27264
1.27372
1.27484
1.27601
1.27723
1.27852
1.27987
1.2813
1.28279
1.28434
1.28594
1.28757
1.28924
1.29094
1.29268
1.29445
1.29628
1.29818
1.30018
1.30233
1.30467
1.30723
1.31004
1.31312
1.31644
1.31991
1.3234
1.32677
1.32987
1.33257
1.33483
1.33667
1.33814
1.33933
1.34033
1.3412
1.34198
1.34269
1.34333
1.34389
1.34438
1.34482
1.34525
1.34571
1.34619
1.34663
1.34688
1.34674
1.34596
1.3443
1.34166
1.33803
1.33363
1.32877
1.32382
1.31903
1.31449
1.31007
1.30548
1.30044
1.29482
1.28872
1.28242
1.27636
1.27091
1.26636
1.26282
1.26028
1.25863
1.25773
1.25741
1.2575
1.25787
1.2584
1.25898
1.25958
1.26016
1.26075
1.26141
1.26226
1.26341
1.26503
1.26726
1.27016
1.27372
1.27775
1.28193
1.28583
1.28903
1.29098
1.29104
1.28844
1.28261
1.2736
1.26226
1.24981
1.2372
1.22495
1.21337
1.20282
1.19369
1.18628
1.18061
1.17646
1.17351
1.17145
1.16999
1.16894
1.16816
1.16755
1.16705
1.16663
1.16627
1.16594
1.16564
1.16536
1.16509
1.16484
1.16459
1.16434
1.1641
1.16386
1.16362
1.16337
1.16313
1.16288
1.16262
1.16236
1.16209
1.16181
1.16152
1.16121
1.16089
1.16056
1.16021
1.15985
1.15949
1.15913
1.15875
1.15839
1.15805
1.15768
1.1573
1.15699
1.15669
1.15626
1.1559
1.15576
1.15536
1.15466
1.15463
1.15481
1.15354
1.1527
1.15431
1.15367
1.15046
1.15255
1.15414
1.16534
1.16589
1.16556
1.16487
1.16507
1.16521
1.16454
1.16431
1.16451
1.16432
1.16408
1.16412
1.16412
1.16402
1.16402
1.16408
1.1641
1.16415
1.16426
1.16437
1.16449
1.16465
1.16482
1.16499
1.16518
1.16537
1.16557
1.16576
1.16595
1.16614
1.16633
1.16652
1.16671
1.1669
1.16709
1.16729
1.1675
1.16771
1.16793
1.16816
1.1684
1.16866
1.16894
1.16924
1.16958
1.16998
1.17044
1.17101
1.17175
1.17277
1.17425
1.17646
1.17986
1.18505
1.19276
1.2035
1.21706
1.23186
1.24528
1.255
1.26053
1.26306
1.26413
1.2646
1.26462
1.26422
1.26352
1.26272
1.26198
1.26138
1.26091
1.26053
1.26017
1.25978
1.25933
1.25882
1.25826
1.25763
1.25694
1.25621
1.25544
1.25465
1.25387
1.25309
1.25233
1.25161
1.25095
1.25041
1.25007
1.25
1.25033
1.25119
1.25274
1.25514
1.25855
1.26311
1.26884
1.27565
1.28325
1.29121
1.29904
1.30635
1.31295
1.31888
1.3243
1.32936
1.33409
1.33836
1.34197
1.34477
1.3467
1.34787
1.34847
1.34874
1.34886
1.34896
1.34905
1.34911
1.34901
1.34866
1.34795
1.34682
1.34524
1.34322
1.34083
1.33815
1.33525
1.33223
1.32913
1.32599
1.32288
1.31984
1.31692
1.31417
1.31161
1.30925
1.30708
1.30506
1.30316
1.30134
1.29959
1.29788
1.29619
1.29453
1.2929
1.29128
1.28968
1.28809
1.28652
1.28496
1.28341
1.28189
1.2804
1.27894
1.27753
1.27618
1.27487
1.27361
1.27239
1.27121
1.27006
1.26893
1.26783
1.26674
1.26567
1.2646
1.26355
1.2625
1.26146
1.26043
1.25941
1.2584
1.2574
1.25643
1.25547
1.25454
1.25363
1.25275
1.2519
1.25109
1.25031
1.24957
1.24887
1.24821
1.2476
1.24703
1.2465
1.24601
1.24555
1.24512
1.24473
1.24436
1.24402
1.2437
1.24342
1.24317
1.24297
1.24281
1.24269
1.24263
1.24262
1.24266
1.24276
1.24292
1.24313
1.2434
1.24371
1.24408
1.24449
1.24495
1.24546
1.24599
1.24657
1.24718
1.24782
1.24849
1.2492
1.24993
1.25069
1.25147
1.25228
1.25311
1.25396
1.25484
1.25573
1.25665
1.25759
1.25854
1.25952
1.2605
1.26151
1.26252
1.26354
1.26457
1.26561
1.26666
1.26772
1.2688
1.26989
1.27102
1.27216
1.27334
1.27456
1.27583
1.27714
1.27852
1.27996
1.28146
1.28302
1.28463
1.28627
1.28794
1.28963
1.29132
1.29301
1.29472
1.29645
1.29822
1.30007
1.30203
1.30412
1.30641
1.30893
1.31172
1.31478
1.31808
1.32154
1.32503
1.32837
1.33143
1.33407
1.33626
1.33803
1.33943
1.34057
1.34154
1.34238
1.34313
1.34379
1.34438
1.34489
1.34535
1.34578
1.3462
1.34662
1.347
1.34722
1.34711
1.34642
1.34491
1.34239
1.33882
1.33433
1.32926
1.32403
1.31908
1.3147
1.31098
1.30773
1.30458
1.30111
1.29697
1.29207
1.28656
1.2808
1.27524
1.27029
1.26619
1.26306
1.26086
1.25947
1.25876
1.25854
1.25866
1.259
1.25947
1.26001
1.2606
1.26126
1.26203
1.26301
1.2643
1.266
1.26819
1.27091
1.2741
1.27761
1.28117
1.28439
1.28689
1.28825
1.28797
1.2854
1.27997
1.27169
1.26132
1.25002
1.2387
1.22769
1.21705
1.20698
1.19787
1.19015
1.18402
1.17942
1.17612
1.17379
1.17215
1.17097
1.1701
1.16943
1.16888
1.16841
1.168
1.16762
1.16726
1.16691
1.16658
1.16625
1.16592
1.16559
1.16526
1.16493
1.16459
1.16424
1.1639
1.16355
1.16319
1.16283
1.16247
1.1621
1.16173
1.16134
1.16095
1.16056
1.16016
1.15976
1.15936
1.15897
1.1586
1.15821
1.15784
1.15753
1.1572
1.15682
1.15657
1.15638
1.15595
1.15556
1.15564
1.15545
1.1545
1.15445
1.15534
1.15422
1.15257
1.15433
1.15547
1.15311
1.1527
1.16452
1.16533
1.16504
1.16476
1.16519
1.16489
1.16443
1.16463
1.16458
1.16424
1.1642
1.16423
1.16409
1.164
1.16402
1.16401
1.164
1.16406
1.16415
1.16425
1.16438
1.16455
1.16474
1.16495
1.16518
1.16542
1.16567
1.16593
1.1662
1.16647
1.16675
1.16704
1.16734
1.16764
1.16795
1.16827
1.16859
1.16892
1.16926
1.16961
1.16996
1.17033
1.17071
1.17111
1.17154
1.17201
1.17254
1.17318
1.17397
1.17502
1.17651
1.17872
1.18211
1.18731
1.19508
1.20599
1.21982
1.23491
1.24839
1.25778
1.26262
1.26438
1.26491
1.26513
1.26513
1.26477
1.26405
1.26319
1.26238
1.26174
1.26125
1.26086
1.26049
1.26008
1.25963
1.25912
1.25852
1.25784
1.25711
1.25635
1.25559
1.25486
1.25416
1.25351
1.25289
1.25233
1.25183
1.25146
1.25128
1.2514
1.25196
1.25311
1.25502
1.25786
1.26176
1.26677
1.27282
1.27964
1.28684
1.29391
1.30046
1.30626
1.31138
1.31608
1.32067
1.32537
1.3302
1.33496
1.33933
1.343
1.34578
1.34766
1.34878
1.34935
1.34961
1.34974
1.34982
1.34984
1.34975
1.34944
1.3488
1.34776
1.34627
1.34435
1.34208
1.33953
1.33679
1.33394
1.33103
1.32808
1.32512
1.32221
1.31938
1.31668
1.31414
1.31179
1.30962
1.3076
1.3057
1.3039
1.30217
1.30047
1.29881
1.29717
1.29554
1.29393
1.29231
1.2907
1.28907
1.28743
1.28579
1.28414
1.2825
1.28089
1.27931
1.27778
1.27629
1.27486
1.27347
1.27212
1.27082
1.26955
1.26832
1.26711
1.26594
1.26478
1.26364
1.26253
1.26143
1.26035
1.25929
1.25825
1.25724
1.25625
1.25529
1.25437
1.25349
1.25264
1.25182
1.25105
1.25032
1.24963
1.24898
1.24837
1.24781
1.24728
1.2468
1.24634
1.24591
1.24551
1.24513
1.24477
1.24443
1.24411
1.24382
1.24356
1.24335
1.24318
1.24305
1.24298
1.24297
1.24302
1.24312
1.24329
1.24351
1.24379
1.24412
1.2445
1.24493
1.2454
1.2459
1.24644
1.247
1.24758
1.24819
1.24883
1.24948
1.25016
1.25087
1.25159
1.25235
1.25313
1.25393
1.25477
1.25564
1.25653
1.25746
1.25842
1.25941
1.26042
1.26146
1.26252
1.2636
1.26469
1.26581
1.26696
1.26812
1.26932
1.27055
1.27181
1.27311
1.27445
1.27584
1.27728
1.27878
1.28034
1.28196
1.28364
1.28536
1.2871
1.28887
1.29062
1.29236
1.29408
1.29578
1.29747
1.29917
1.3009
1.3027
1.3046
1.30665
1.30888
1.31136
1.3141
1.31712
1.32039
1.32382
1.32728
1.33059
1.33358
1.33615
1.33825
1.33992
1.34124
1.34232
1.34322
1.34401
1.3447
1.34532
1.34585
1.34633
1.34676
1.34717
1.34757
1.34792
1.34813
1.34803
1.3474
1.346
1.34361
1.34013
1.33565
1.33044
1.32492
1.31957
1.3148
1.31087
1.30781
1.30544
1.30339
1.30119
1.29841
1.29476
1.29025
1.2851
1.27973
1.27458
1.27005
1.26635
1.26356
1.26163
1.26044
1.25982
1.25963
1.25973
1.26004
1.26049
1.26107
1.26178
1.26267
1.26378
1.26521
1.267
1.2692
1.2718
1.27471
1.27778
1.28078
1.28339
1.28529
1.28615
1.28558
1.28303
1.27799
1.2704
1.26092
1.25066
1.24047
1.23059
1.2209
1.21141
1.20246
1.19455
1.18805
1.18305
1.1794
1.1768
1.17498
1.17367
1.17271
1.17197
1.17136
1.17084
1.17036
1.16992
1.16949
1.16907
1.16866
1.16824
1.16782
1.1674
1.16696
1.16652
1.16607
1.16561
1.16515
1.16468
1.16422
1.16375
1.16328
1.16281
1.16233
1.16186
1.16139
1.16092
1.16046
1.16001
1.15956
1.15912
1.15871
1.15832
1.15793
1.15758
1.15729
1.15697
1.15662
1.15643
1.15629
1.15589
1.15559
1.15578
1.15556
1.15478
1.15507
1.15567
1.15462
1.15429
1.15543
1.15518
1.15506
1.16437
1.16448
1.16477
1.1651
1.16483
1.16461
1.16486
1.16476
1.16441
1.16441
1.16443
1.16423
1.16412
1.16413
1.16408
1.16404
1.16408
1.16415
1.16423
1.16437
1.16454
1.16475
1.16498
1.16525
1.16555
1.16586
1.16619
1.16655
1.16691
1.16729
1.16768
1.16809
1.16851
1.16894
1.16938
1.16983
1.17029
1.17075
1.17122
1.17169
1.17217
1.17265
1.17314
1.17365
1.17418
1.17474
1.17535
1.17605
1.17689
1.17798
1.17948
1.18169
1.18506
1.19024
1.19804
1.20907
1.22314
1.23849
1.25206
1.26117
1.26538
1.26641
1.26633
1.26621
1.26611
1.26575
1.26504
1.26413
1.26325
1.26253
1.26199
1.26157
1.26118
1.26077
1.26028
1.25968
1.25897
1.25821
1.25741
1.25662
1.25587
1.25518
1.25455
1.25401
1.25353
1.25313
1.25282
1.25265
1.25269
1.25307
1.25394
1.25545
1.25781
1.26114
1.26553
1.27092
1.27711
1.28369
1.2902
1.29617
1.30133
1.30567
1.30946
1.31309
1.31698
1.32136
1.32622
1.33133
1.33632
1.34078
1.34442
1.3471
1.34885
1.34987
1.35039
1.35063
1.35073
1.35077
1.3507
1.35045
1.34991
1.34898
1.34764
1.34589
1.34379
1.34144
1.33892
1.33629
1.33359
1.33085
1.32808
1.32531
1.32258
1.31993
1.31742
1.31508
1.3129
1.31088
1.30899
1.3072
1.30548
1.3038
1.30215
1.30052
1.2989
1.29728
1.29565
1.29399
1.29231
1.2906
1.28885
1.28709
1.28531
1.28353
1.28178
1.28006
1.27838
1.27675
1.27517
1.27364
1.27216
1.27073
1.26935
1.268
1.2667
1.26542
1.26418
1.26297
1.26179
1.26064
1.25952
1.25843
1.25737
1.25635
1.25537
1.25443
1.25353
1.25268
1.25188
1.25112
1.25041
1.24974
1.24912
1.24855
1.24802
1.24754
1.24709
1.24667
1.24627
1.24589
1.24553
1.24519
1.24486
1.24455
1.24426
1.24401
1.24379
1.24361
1.24349
1.24341
1.2434
1.24345
1.24356
1.24373
1.24396
1.24425
1.24459
1.24498
1.24541
1.24588
1.24638
1.2469
1.24744
1.248
1.24858
1.24917
1.24979
1.25042
1.25108
1.25177
1.25249
1.25324
1.25403
1.25485
1.25571
1.25661
1.25756
1.25854
1.25957
1.26063
1.26173
1.26286
1.26402
1.26521
1.26644
1.2677
1.269
1.27033
1.27172
1.27314
1.27462
1.27615
1.27774
1.27938
1.28109
1.28286
1.28468
1.28654
1.28842
1.29031
1.29219
1.29403
1.29583
1.29758
1.29929
1.30096
1.30263
1.30433
1.30608
1.30792
1.3099
1.31207
1.31448
1.31716
1.32014
1.32336
1.32675
1.33016
1.33341
1.33634
1.33882
1.34082
1.34238
1.3436
1.34457
1.34538
1.34608
1.3467
1.34725
1.34774
1.34818
1.34859
1.34897
1.34929
1.34948
1.34939
1.34881
1.34749
1.34523
1.34188
1.33748
1.33225
1.32655
1.32086
1.31561
1.31114
1.30765
1.30512
1.3034
1.30214
1.30092
1.29927
1.29682
1.29341
1.28909
1.28418
1.2791
1.2743
1.27011
1.26673
1.2642
1.26245
1.26135
1.26078
1.2606
1.26071
1.26106
1.26162
1.26239
1.26338
1.26463
1.26618
1.26808
1.27031
1.27283
1.27555
1.2783
1.28085
1.28296
1.28437
1.28481
1.284
1.28148
1.27675
1.26973
1.26102
1.25167
1.24251
1.23371
1.22498
1.21616
1.20748
1.19949
1.1927
1.18735
1.18337
1.18052
1.17851
1.17708
1.17603
1.17523
1.17456
1.17398
1.17344
1.17293
1.17243
1.17194
1.17144
1.17094
1.17042
1.1699
1.16936
1.1688
1.16824
1.16766
1.16708
1.16649
1.1659
1.16531
1.16472
1.16414
1.16355
1.16298
1.16241
1.16185
1.1613
1.16076
1.16025
1.15975
1.15927
1.15883
1.15843
1.15801
1.15765
1.1574
1.15709
1.1567
1.15657
1.15655
1.1561
1.15578
1.15623
1.15613
1.15518
1.15558
1.1566
1.15577
1.15514
1.15656
1.15723
1.16412
1.16439
1.16473
1.16492
1.16475
1.16487
1.16495
1.16468
1.16461
1.16466
1.1645
1.16436
1.16437
1.16435
1.16429
1.16434
1.16442
1.16452
1.16467
1.16488
1.16512
1.1654
1.16573
1.16609
1.16648
1.16691
1.16735
1.16782
1.16831
1.16882
1.16935
1.16989
1.17045
1.17102
1.1716
1.17219
1.17278
1.17337
1.17397
1.17456
1.17515
1.17574
1.17633
1.17693
1.17755
1.17819
1.17887
1.17963
1.18051
1.18161
1.18311
1.18529
1.18862
1.19376
1.20155
1.21266
1.22691
1.2425
1.25617
1.26504
1.26866
1.26895
1.26824
1.26773
1.26747
1.26707
1.26635
1.26542
1.2645
1.26376
1.2632
1.26274
1.2623
1.2618
1.2612
1.26048
1.25968
1.25883
1.25795
1.25711
1.25634
1.25566
1.25509
1.25463
1.25428
1.25404
1.25393
1.25398
1.25429
1.25499
1.25622
1.25818
1.26102
1.26485
1.26966
1.27527
1.28134
1.2874
1.29298
1.29772
1.30153
1.3046
1.30732
1.31014
1.31346
1.31751
1.32228
1.32755
1.33296
1.33808
1.34251
1.34601
1.34853
1.35015
1.35108
1.35156
1.35179
1.35186
1.35182
1.35161
1.35115
1.35037
1.3492
1.34767
1.34582
1.34371
1.34145
1.33909
1.33666
1.33416
1.3316
1.32899
1.32637
1.32379
1.32131
1.31897
1.31679
1.31477
1.31288
1.31109
1.30939
1.30773
1.30611
1.3045
1.3029
1.30128
1.29964
1.29796
1.29625
1.29448
1.29266
1.29079
1.28889
1.28698
1.28506
1.28316
1.28129
1.27947
1.27769
1.27597
1.27431
1.27269
1.27114
1.26963
1.26817
1.26675
1.26538
1.26405
1.26275
1.26149
1.26028
1.2591
1.25796
1.25687
1.25582
1.25482
1.25388
1.25299
1.25215
1.25136
1.25064
1.24997
1.24935
1.24879
1.24828
1.24781
1.24738
1.24699
1.24662
1.24628
1.24594
1.24562
1.24531
1.24501
1.24474
1.24449
1.24428
1.24411
1.24399
1.24392
1.24391
1.24396
1.24407
1.24425
1.24448
1.24477
1.24512
1.24551
1.24594
1.2464
1.24688
1.24739
1.2479
1.24844
1.24898
1.24955
1.25013
1.25074
1.25138
1.25205
1.25277
1.25352
1.25432
1.25516
1.25606
1.25701
1.25801
1.25906
1.26016
1.2613
1.26249
1.26373
1.26501
1.26633
1.26769
1.2691
1.27055
1.27206
1.27362
1.27523
1.27691
1.27864
1.28044
1.2823
1.28422
1.28619
1.2882
1.29023
1.29226
1.29427
1.29623
1.29814
1.29997
1.30173
1.30342
1.30507
1.3067
1.30833
1.31001
1.31178
1.31368
1.31577
1.3181
1.32072
1.32362
1.32679
1.33012
1.33348
1.33666
1.33951
1.3419
1.34379
1.34524
1.34634
1.34719
1.34789
1.34848
1.34901
1.34948
1.34993
1.35034
1.35072
1.35105
1.35124
1.35116
1.35061
1.34937
1.3472
1.34396
1.33964
1.33442
1.32863
1.3227
1.31708
1.31212
1.30806
1.30499
1.30289
1.30159
1.30084
1.30028
1.29949
1.29808
1.29575
1.29242
1.28822
1.28349
1.27866
1.27415
1.27024
1.2671
1.26476
1.26313
1.26213
1.26163
1.26152
1.26176
1.26229
1.2631
1.26421
1.26561
1.2673
1.2693
1.27157
1.27404
1.2766
1.2791
1.28131
1.28303
1.28405
1.28418
1.28318
1.28066
1.27617
1.26962
1.26156
1.25302
1.24478
1.23697
1.22919
1.22109
1.21278
1.20481
1.19781
1.19216
1.18788
1.1848
1.18262
1.18109
1.17996
1.1791
1.17839
1.17777
1.17719
1.17663
1.17607
1.17551
1.17495
1.17437
1.17378
1.17317
1.17254
1.1719
1.17123
1.17055
1.16986
1.16916
1.16845
1.16774
1.16703
1.16632
1.16561
1.16491
1.16422
1.16355
1.16289
1.16225
1.16163
1.16104
1.16047
1.15993
1.15945
1.15901
1.15854
1.15815
1.15789
1.15756
1.15716
1.15705
1.15704
1.15662
1.15639
1.15681
1.15672
1.1562
1.15655
1.15704
1.15689
1.15705
1.15738
1.16394
1.16452
1.16472
1.16475
1.16499
1.1651
1.1649
1.16489
1.16499
1.16485
1.16473
1.1648
1.1648
1.16477
1.16486
1.16501
1.16515
1.16535
1.16563
1.16595
1.16631
1.16673
1.16719
1.16768
1.16822
1.16879
1.16938
1.17
1.17064
1.1713
1.17197
1.17266
1.17335
1.17405
1.17476
1.17546
1.17616
1.17686
1.17754
1.17822
1.17889
1.17955
1.18021
1.18087
1.18153
1.18222
1.18293
1.18371
1.1846
1.18569
1.18716
1.18928
1.19253
1.19759
1.20533
1.21645
1.23083
1.24661
1.26037
1.26905
1.27214
1.27173
1.27038
1.26943
1.26896
1.26853
1.26785
1.26694
1.26603
1.26527
1.26466
1.26415
1.26365
1.26305
1.26233
1.2615
1.26059
1.25961
1.25865
1.25775
1.25694
1.25626
1.25572
1.25533
1.25509
1.25499
1.25507
1.25538
1.25601
1.25708
1.25876
1.26122
1.26457
1.26885
1.27395
1.27956
1.28525
1.29054
1.29503
1.29855
1.30119
1.30324
1.30516
1.3074
1.31028
1.314
1.31856
1.32379
1.32939
1.33495
1.34005
1.34437
1.34771
1.35006
1.35155
1.3524
1.35282
1.35298
1.35296
1.35279
1.3524
1.35174
1.35075
1.34944
1.34785
1.34604
1.34409
1.34204
1.33992
1.3377
1.33537
1.33295
1.33046
1.32796
1.32551
1.32317
1.32098
1.31894
1.31705
1.31528
1.31359
1.31198
1.31039
1.30883
1.30726
1.30568
1.30406
1.3024
1.30069
1.29891
1.29706
1.29516
1.29319
1.29119
1.28916
1.28712
1.2851
1.28311
1.28116
1.27926
1.27741
1.27562
1.27388
1.2722
1.27057
1.26899
1.26746
1.26597
1.26452
1.26312
1.26176
1.26045
1.25918
1.25797
1.25681
1.25571