# vtk DataFile Version 2.0
LBE two cylinders
ASCII
DATASET STRUCTURED_POINTS
DIMENSIONS 400 100 1
ASPECT_RATIO 1 1 1
ORIGIN 0 0 0
POINT_DATA 40000
SCALARS rho double 1
LOOKUP_TABLE default
1.33824
1.33547
1.33572
1.33573
1.33478
1.33424
1.3339
1.33321
1.33257
1.33202
1.33141
1.33078
1.33019
1.32961
1.32902
1.32846
1.32791
1.32738
1.32686
1.32637
1.32589
1.32543
1.325
1.32458
1.32418
1.3238
1.32344
1.3231
1.32278
1.32248
1.3222
1.32193
1.32169
1.32145
1.32124
1.32105
1.32086
1.3207
1.32055
1.32042
1.32031
1.3202
1.32012
1.32005
1.32
1.31996
1.31993
1.31993
1.31993
1.31996
1.32
1.32006
1.32013
1.32022
1.32033
1.32045
1.3206
1.32076
1.32094
1.32114
1.32136
1.32161
1.32187
1.32215
1.32246
1.32279
1.32314
1.32352
1.32392
1.32434
1.32479
1.32527
1.32577
1.32631
1.32686
1.32745
1.32806
1.3287
1.32936
1.33005
1.33077
1.33151
1.33228
1.33307
1.33389
1.33473
1.33559
1.33646
1.33736
1.33827
1.33919
1.34013
1.34107
1.34203
1.34298
1.34394
1.3449
1.34585
1.3468
1.34774
1.34866
1.34957
1.35047
1.35135
1.3522
1.35303
1.35383
1.35461
1.35535
1.35607
1.35675
1.3574
1.35801
1.35859
1.35913
1.35964
1.36011
1.36055
1.36095
1.36132
1.36166
1.36197
1.36225
1.3625
1.36272
1.36292
1.3631
1.36325
1.36339
1.36351
1.36361
1.36369
1.36376
1.36383
1.36387
1.36391
1.36394
1.36396
1.36398
1.36399
1.36399
1.36399
1.36399
1.36399
1.36398
1.36397
1.36396
1.36395
1.36394
1.36392
1.36391
1.3639
1.36389
1.36388
1.36387
1.36386
1.36385
1.36385
1.36384
1.36383
1.36383
1.36383
1.36382
1.36382
1.36382
1.36382
1.36382
1.36382
1.36382
1.36383
1.36383
1.36383
1.36384
1.36384
1.36385
1.36385
1.36386
1.36386
1.36387
1.36388
1.36388
1.36389
1.3639
1.3639
1.36391
1.36392
1.36392
1.36393
1.36394
1.36395
1.36396
1.36397
1.36398
1.36399
1.364
1.36401
1.36402
1.36403
1.36404
1.36405
1.36406
1.36407
1.36408
1.3641
1.36411
1.36412
1.36413
1.36415
1.36416
1.36417
1.36419
1.3642
1.36421
1.36423
1.36424
1.36425
1.36426
1.36428
1.36429
1.3643
1.36431
1.36433
1.36434
1.36435
1.36436
1.36437
1.36437
1.36438
1.36439
1.36439
1.3644
1.3644
1.3644
1.3644
1.3644
1.36439
1.36438
1.36437
1.36436
1.36435
1.36433
1.36431
1.36429
1.36426
1.36423
1.3642
1.36417
1.36413
1.36409
1.36405
1.364
1.36395
1.3639
1.36384
1.36379
1.36373
1.36366
1.3636
1.36353
1.36346
1.36339
1.36331
1.36324
1.36315
1.36307
1.36298
1.36289
1.3628
1.3627
1.36259
1.36248
1.36236
1.36223
1.3621
1.36195
1.36179
1.36161
1.36143
1.36122
1.361
1.36076
1.36049
1.3602
1.35989
1.35955
1.35918
1.35878
1.35835
1.35789
1.35739
1.35686
1.3563
1.3557
1.35508
1.35442
1.35373
1.35301
1.35226
1.35149
1.35069
1.34987
1.34903
1.34818
1.34731
1.34643
1.34553
1.34463
1.34373
1.34282
1.34192
1.34101
1.34011
1.33921
1.33832
1.33743
1.33656
1.33569
1.33484
1.33399
1.33317
1.33235
1.33155
1.33076
1.32999
1.32924
1.3285
1.32778
1.32707
1.32638
1.3257
1.32505
1.3244
1.32378
1.32317
1.32257
1.32199
1.32143
1.32088
1.32035
1.31983
1.31932
1.31883
1.31836
1.3179
1.31745
1.31701
1.31659
1.31618
1.31578
1.3154
1.31503
1.31467
1.31432
1.31398
1.31366
1.31334
1.31304
1.31275
1.31247
1.3122
1.31194
1.31169
1.31145
1.31122
1.311
1.31079
1.31059
1.3104
1.31022
1.31005
1.30988
1.30973
1.30959
1.30945
1.30933
1.30921
1.30911
1.30901
1.30893
1.30885
1.30879
1.30875
1.30868
1.30866
1.3087
1.30866
1.30857
1.30872
1.3089
1.30858
1.30847
1.30942
1.30933
1.30729
1.30828
1.31219
1.3076
1.2989
1.30946
1.31853
1.33634
1.33646
1.33595
1.33526
1.33494
1.33444
1.33383
1.33324
1.33268
1.33206
1.33144
1.33085
1.33024
1.32965
1.32907
1.32851
1.32796
1.32742
1.32691
1.32641
1.32593
1.32548
1.32504
1.32462
1.32422
1.32384
1.32348
1.32314
1.32282
1.32252
1.32223
1.32197
1.32172
1.32149
1.32127
1.32108
1.32089
1.32073
1.32058
1.32045
1.32033
1.32023
1.32015
1.32008
1.32002
1.31998
1.31996
1.31995
1.31996
1.31998
1.32002
1.32008
1.32015
1.32024
1.32035
1.32047
1.32062
1.32078
1.32096
1.32116
1.32138
1.32162
1.32188
1.32216
1.32247
1.3228
1.32315
1.32352
1.32392
1.32435
1.3248
1.32527
1.32577
1.3263
1.32685
1.32744
1.32805
1.32868
1.32934
1.33003
1.33075
1.33149
1.33225
1.33304
1.33386
1.33469
1.33555
1.33642
1.33731
1.33822
1.33914
1.34008
1.34102
1.34197
1.34292
1.34388
1.34483
1.34579
1.34673
1.34767
1.3486
1.34951
1.3504
1.35128
1.35213
1.35297
1.35377
1.35455
1.35529
1.35601
1.35669
1.35734
1.35796
1.35854
1.35909
1.3596
1.36007
1.36051
1.36092
1.36129
1.36163
1.36194
1.36222
1.36248
1.36271
1.36291
1.36309
1.36324
1.36338
1.3635
1.3636
1.36369
1.36376
1.36383
1.36387
1.36392
1.36394
1.36397
1.36399
1.364
1.364
1.364
1.364
1.364
1.36399
1.36398
1.36397
1.36396
1.36395
1.36394
1.36392
1.36391
1.3639
1.36389
1.36388
1.36387
1.36387
1.36386
1.36385
1.36385
1.36384
1.36384
1.36384
1.36384
1.36383
1.36383
1.36383
1.36384
1.36384
1.36384
1.36384
1.36385
1.36385
1.36386
1.36386
1.36387
1.36387
1.36388
1.36388
1.36389
1.3639
1.3639
1.36391
1.36392
1.36392
1.36393
1.36394
1.36395
1.36395
1.36396
1.36397
1.36398
1.36399
1.364
1.36401
1.36402
1.36403
1.36404
1.36405
1.36406
1.36407
1.36408
1.36409
1.36411
1.36412
1.36413
1.36414
1.36416
1.36417
1.36418
1.36419
1.36421
1.36422
1.36423
1.36425
1.36426
1.36427
1.36428
1.3643
1.36431
1.36432
1.36433
1.36434
1.36435
1.36436
1.36437
1.36438
1.36438
1.36439
1.36439
1.3644
1.3644
1.3644
1.3644
1.36439
1.36439
1.36438
1.36437
1.36436
1.36434
1.36433
1.36431
1.36428
1.36426
1.36423
1.3642
1.36416
1.36412
1.36408
1.36404
1.36399
1.36394
1.36389
1.36383
1.36377
1.36371
1.36365
1.36358
1.36351
1.36344
1.36337
1.36329
1.36321
1.36313
1.36304
1.36295
1.36286
1.36276
1.36266
1.36255
1.36243
1.36231
1.36218
1.36204
1.36189
1.36173
1.36155
1.36136
1.36116
1.36093
1.36068
1.36042
1.36013
1.35981
1.35947
1.3591
1.3587
1.35827
1.35781
1.35732
1.35679
1.35623
1.35564
1.35501
1.35436
1.35367
1.35296
1.35221
1.35144
1.35065
1.34984
1.349
1.34815
1.34729
1.34641
1.34552
1.34463
1.34373
1.34283
1.34192
1.34102
1.34012
1.33923
1.33834
1.33746
1.33658
1.33572
1.33487
1.33403
1.3332
1.33239
1.33159
1.33081
1.33004
1.32929
1.32855
1.32782
1.32712
1.32643
1.32575
1.3251
1.32445
1.32383
1.32322
1.32262
1.32204
1.32148
1.32093
1.32039
1.31987
1.31937
1.31888
1.3184
1.31793
1.31748
1.31705
1.31662
1.31621
1.31581
1.31543
1.31505
1.31469
1.31434
1.31401
1.31368
1.31336
1.31306
1.31277
1.31248
1.31221
1.31195
1.3117
1.31146
1.31122
1.311
1.31079
1.31059
1.31039
1.31021
1.31004
1.30987
1.30972
1.30957
1.30943
1.3093
1.30918
1.30907
1.30897
1.30888
1.3088
1.30872
1.30867
1.30863
1.30857
1.30852
1.30855
1.30856
1.30844
1.30845
1.30872
1.30856
1.30808
1.30852
1.30921
1.30751
1.30605
1.30872
1.30819
1.29835
1.2929
1.33566
1.33664
1.3359
1.33517
1.33513
1.33455
1.33382
1.33332
1.33276
1.33209
1.33149
1.3309
1.33028
1.32968
1.32911
1.32854
1.32798
1.32745
1.32693
1.32644
1.32596
1.3255
1.32506
1.32464
1.32424
1.32386
1.3235
1.32316
1.32283
1.32253
1.32225
1.32198
1.32173
1.3215
1.32129
1.32109
1.32091
1.32074
1.32059
1.32046
1.32034
1.32024
1.32016
1.32009
1.32003
1.31999
1.31997
1.31996
1.31997
1.31999
1.32003
1.32009
1.32016
1.32025
1.32035
1.32048
1.32062
1.32078
1.32096
1.32116
1.32137
1.32161
1.32187
1.32216
1.32246
1.32278
1.32313
1.32351
1.3239
1.32433
1.32477
1.32524
1.32574
1.32627
1.32682
1.3274
1.328
1.32864
1.3293
1.32998
1.33069
1.33143
1.3322
1.33299
1.3338
1.33463
1.33548
1.33636
1.33725
1.33816
1.33908
1.34001
1.34095
1.3419
1.34286
1.34381
1.34477
1.34572
1.34667
1.34761
1.34854
1.34945
1.35035
1.35123
1.35209
1.35292
1.35373
1.35451
1.35526
1.35598
1.35667
1.35732
1.35794
1.35853
1.35908
1.35959
1.36007
1.36051
1.36092
1.3613
1.36164
1.36195
1.36223
1.36249
1.36272
1.36292
1.3631
1.36326
1.3634
1.36352
1.36362
1.36371
1.36379
1.36385
1.3639
1.36394
1.36397
1.36399
1.36401
1.36402
1.36403
1.36403
1.36403
1.36402
1.36402
1.36401
1.364
1.36399
1.36398
1.36397
1.36395
1.36394
1.36393
1.36392
1.36391
1.3639
1.3639
1.36389
1.36388
1.36388
1.36387
1.36387
1.36387
1.36387
1.36387
1.36387
1.36387
1.36387
1.36387
1.36387
1.36388
1.36388
1.36388
1.36389
1.36389
1.3639
1.3639
1.36391
1.36392
1.36392
1.36393
1.36394
1.36394
1.36395
1.36396
1.36396
1.36397
1.36398
1.36399
1.364
1.364
1.36401
1.36402
1.36403
1.36404
1.36405
1.36406
1.36407
1.36408
1.36409
1.3641
1.36412
1.36413
1.36414
1.36415
1.36416
1.36417
1.36419
1.3642
1.36421
1.36422
1.36424
1.36425
1.36426
1.36427
1.36429
1.3643
1.36431
1.36432
1.36433
1.36434
1.36435
1.36436
1.36437
1.36438
1.36439
1.3644
1.3644
1.36441
1.36441
1.36442
1.36442
1.36442
1.36442
1.36441
1.36441
1.3644
1.36439
1.36437
1.36436
1.36434
1.36432
1.3643
1.36427
1.36424
1.36421
1.36417
1.36413
1.36409
1.36405
1.364
1.36395
1.36389
1.36384
1.36378
1.36371
1.36365
1.36358
1.36351
1.36344
1.36336
1.36328
1.3632
1.36311
1.36303
1.36293
1.36284
1.36274
1.36263
1.36252
1.36241
1.36228
1.36215
1.36201
1.36185
1.36169
1.36151
1.36132
1.36111
1.36088
1.36064
1.36037
1.36008
1.35976
1.35942
1.35905
1.35865
1.35822
1.35776
1.35727
1.35674
1.35618
1.35559
1.35497
1.35431
1.35363
1.35291
1.35217
1.3514
1.35061
1.3498
1.34897
1.34812
1.34726
1.34639
1.3455
1.34461
1.34371
1.34281
1.34191
1.34101
1.34012
1.33923
1.33834
1.33746
1.33659
1.33573
1.33488
1.33404
1.33322
1.33241
1.33161
1.33083
1.33006
1.32931
1.32857
1.32785
1.32714
1.32646
1.32578
1.32512
1.32448
1.32386
1.32324
1.32265
1.32207
1.32151
1.32096
1.32042
1.3199
1.31939
1.3189
1.31842
1.31796
1.31751
1.31707
1.31665
1.31624
1.31584
1.31545
1.31507
1.31471
1.31436
1.31402
1.31369
1.31338
1.31307
1.31278
1.31249
1.31222
1.31196
1.3117
1.31146
1.31123
1.311
1.31079
1.31058
1.31039
1.3102
1.31003
1.30986
1.3097
1.30955
1.30941
1.30927
1.30915
1.30904
1.30893
1.30883
1.30876
1.30867
1.30859
1.30855
1.30852
1.30842
1.30838
1.30849
1.30842
1.30813
1.30838
1.30878
1.30793
1.30736
1.30923
1.30891
1.30414
1.30615
1.31299
1.30066
1.28854
1.33609
1.33614
1.33599
1.33572
1.33518
1.3345
1.33402
1.33343
1.33276
1.33215
1.33155
1.33091
1.3303
1.32971
1.32912
1.32854
1.32799
1.32745
1.32693
1.32643
1.32595
1.32549
1.32505
1.32463
1.32423
1.32385
1.32349
1.32315
1.32283
1.32252
1.32224
1.32197
1.32172
1.32149
1.32128
1.32108
1.3209
1.32074
1.32059
1.32045
1.32034
1.32024
1.32015
1.32008
1.32002
1.31999
1.31996
1.31995
1.31996
1.31998
1.32002
1.32007
1.32014
1.32023
1.32034
1.32046
1.3206
1.32076
1.32094
1.32113
1.32135
1.32159
1.32184
1.32212
1.32242
1.32275
1.32309
1.32346
1.32385
1.32427
1.32472
1.32519
1.32568
1.3262
1.32675
1.32733
1.32793
1.32856
1.32922
1.3299
1.33061
1.33135
1.33211
1.3329
1.33371
1.33454
1.33539
1.33627
1.33716
1.33807
1.33899
1.33992
1.34086
1.34182
1.34277
1.34373
1.34469
1.34565
1.3466
1.34755
1.34848
1.3494
1.3503
1.35119
1.35205
1.35289
1.35371
1.35449
1.35525
1.35598
1.35667
1.35733
1.35795
1.35854
1.35909
1.35961
1.36009
1.36054
1.36095
1.36133
1.36167
1.36199
1.36227
1.36253
1.36276
1.36297
1.36315
1.36331
1.36344
1.36356
1.36367
1.36376
1.36383
1.36389
1.36394
1.36398
1.36401
1.36404
1.36405
1.36406
1.36407
1.36407
1.36407
1.36407
1.36406
1.36405
1.36404
1.36403
1.36402
1.36401
1.364
1.36399
1.36398
1.36397
1.36396
1.36395
1.36394
1.36394
1.36393
1.36393
1.36392
1.36392
1.36392
1.36392
1.36391
1.36392
1.36392
1.36392
1.36392
1.36392
1.36393
1.36393
1.36394
1.36394
1.36395
1.36395
1.36396
1.36396
1.36397
1.36398
1.36398
1.36399
1.364
1.364
1.36401
1.36402
1.36403
1.36404
1.36404
1.36405
1.36406
1.36407
1.36408
1.36409
1.3641
1.36411
1.36412
1.36413
1.36414
1.36415
1.36416
1.36417
1.36418
1.36419
1.3642
1.36421
1.36423
1.36424
1.36425
1.36426
1.36427
1.36429
1.3643
1.36431
1.36432
1.36433
1.36434
1.36436
1.36437
1.36438
1.36439
1.3644
1.36441
1.36442
1.36443
1.36443
1.36444
1.36445
1.36445
1.36446
1.36446
1.36446
1.36446
1.36445
1.36445
1.36444
1.36444
1.36442
1.36441
1.3644
1.36438
1.36436
1.36433
1.3643
1.36427
1.36424
1.3642
1.36416
1.36412
1.36407
1.36402
1.36397
1.36392
1.36386
1.3638
1.36373
1.36367
1.3636
1.36352
1.36345
1.36337
1.36329
1.36321
1.36312
1.36303
1.36294
1.36284
1.36274
1.36263
1.36251
1.3624
1.36227
1.36213
1.36199
1.36184
1.36167
1.36149
1.3613
1.36109
1.36086
1.36061
1.36034
1.36005
1.35973
1.35938
1.35901
1.35861
1.35818
1.35772
1.35722
1.35669
1.35613
1.35554
1.35491
1.35426
1.35357
1.35286
1.35211
1.35135
1.35056
1.34974
1.34891
1.34806
1.3472
1.34633
1.34545
1.34456
1.34366
1.34276
1.34186
1.34097
1.34007
1.33918
1.3383
1.33742
1.33655
1.3357
1.33485
1.33401
1.33319
1.33238
1.33159
1.33081
1.33004
1.32929
1.32856
1.32784
1.32714
1.32645
1.32578
1.32512
1.32449
1.32386
1.32325
1.32266
1.32208
1.32152
1.32097
1.32043
1.31991
1.31941
1.31892
1.31844
1.31798
1.31753
1.31709
1.31666
1.31625
1.31585
1.31547
1.31509
1.31473
1.31438
1.31404
1.31371
1.31339
1.31308
1.31279
1.3125
1.31223
1.31197
1.31171
1.31147
1.31123
1.31101
1.31079
1.31059
1.31039
1.3102
1.31002
1.30985
1.30969
1.30954
1.3094
1.30926
1.30914
1.30902
1.30892
1.30881
1.30872
1.30865
1.30858
1.30848
1.30845
1.30847
1.30836
1.30824
1.30842
1.3085
1.30801
1.30804
1.30893
1.30833
1.30666
1.30831
1.30998
1.30527
1.30323
1.30861
1.30926
1.33686
1.33653
1.33636
1.33598
1.33523
1.33466
1.33419
1.33346
1.33279
1.33221
1.33156
1.3309
1.3303
1.32969
1.32909
1.32852
1.32796
1.32742
1.32689
1.3264
1.32591
1.32545
1.32501
1.32459
1.32419
1.32381
1.32345
1.32311
1.32279
1.32249
1.3222
1.32194
1.32169
1.32146
1.32125
1.32105
1.32087
1.32071
1.32056
1.32043
1.32031
1.32021
1.32012
1.32005
1.32
1.31996
1.31993
1.31993
1.31993
1.31995
1.31999
1.32004
1.32011
1.3202
1.3203
1.32042
1.32056
1.32072
1.32089
1.32109
1.3213
1.32154
1.32179
1.32207
1.32236
1.32268
1.32302
1.32339
1.32378
1.3242
1.32464
1.3251
1.32559
1.32611
1.32666
1.32723
1.32783
1.32846
1.32911
1.32979
1.3305
1.33123
1.33199
1.33278
1.33358
1.33442
1.33527
1.33615
1.33704
1.33795
1.33887
1.33981
1.34076
1.34171
1.34267
1.34364
1.3446
1.34557
1.34652
1.34748
1.34841
1.34934
1.35025
1.35115
1.35202
1.35287
1.35369
1.35448
1.35525
1.35598
1.35668
1.35735
1.35798
1.35858
1.35913
1.35966
1.36014
1.36059
1.36101
1.36139
1.36174
1.36205
1.36234
1.3626
1.36282
1.36303
1.36321
1.36337
1.36351
1.36363
1.36373
1.36382
1.36389
1.36395
1.364
1.36404
1.36407
1.36409
1.36411
1.36412
1.36413
1.36413
1.36413
1.36412
1.36412
1.36411
1.3641
1.36409
1.36408
1.36407
1.36406
1.36405
1.36404
1.36403
1.36402
1.36401
1.364
1.364
1.36399
1.36399
1.36398
1.36398
1.36398
1.36398
1.36398
1.36398
1.36398
1.36399
1.36399
1.36399
1.364
1.364
1.36401
1.36401
1.36402
1.36402
1.36403
1.36404
1.36404
1.36405
1.36406
1.36406
1.36407
1.36408
1.36409
1.36409
1.3641
1.36411
1.36412
1.36413
1.36413
1.36414
1.36415
1.36416
1.36417
1.36418
1.36419
1.3642
1.36421
1.36422
1.36423
1.36424
1.36425
1.36426
1.36428
1.36429
1.3643
1.36431
1.36432
1.36433
1.36434
1.36436
1.36437
1.36438
1.36439
1.3644
1.36441
1.36442
1.36443
1.36444
1.36445
1.36446
1.36447
1.36448
1.36449
1.3645
1.3645
1.36451
1.36451
1.36452
1.36452
1.36452
1.36452
1.36451
1.36451
1.3645
1.36449
1.36448
1.36447
1.36445
1.36443
1.36441
1.36438
1.36435
1.36432
1.36429
1.36425
1.36421
1.36417
1.36412
1.36407
1.36401
1.36396
1.3639
1.36383
1.36377
1.3637
1.36363
1.36355
1.36348
1.3634
1.36331
1.36323
1.36314
1.36305
1.36295
1.36285
1.36275
1.36264
1.36253
1.36241
1.36228
1.36214
1.36199
1.36184
1.36167
1.36149
1.36129
1.36108
1.36084
1.36059
1.36032
1.36002
1.3597
1.35935
1.35898
1.35857
1.35814
1.35767
1.35717
1.35664
1.35607
1.35547
1.35484
1.35418
1.35349
1.35277
1.35202
1.35125
1.35046
1.34964
1.34881
1.34796
1.34709
1.34622
1.34534
1.34445
1.34355
1.34265
1.34175
1.34086
1.33997
1.33908
1.3382
1.33732
1.33646
1.3356
1.33476
1.33393
1.33311
1.33231
1.33152
1.33074
1.32998
1.32924
1.32851
1.3278
1.3271
1.32641
1.32575
1.3251
1.32446
1.32384
1.32323
1.32264
1.32207
1.32151
1.32096
1.32043
1.31992
1.31941
1.31892
1.31845
1.31799
1.31754
1.3171
1.31668
1.31627
1.31587
1.31548
1.31511
1.31475
1.3144
1.31406
1.31373
1.31341
1.31311
1.31281
1.31253
1.31225
1.31199
1.31173
1.31149
1.31125
1.31103
1.31081
1.31061
1.31041
1.31022
1.31004
1.30987
1.30971
1.30956
1.30942
1.30928
1.30916
1.30904
1.30894
1.30884
1.30874
1.30866
1.30862
1.30855
1.30846
1.30846
1.30852
1.30837
1.30828
1.30862
1.3086
1.30799
1.30848
1.30949
1.30798
1.30705
1.31045
1.30978
1.30486
1.30821
1.31075
1.33775
1.33731
1.33674
1.33608
1.33552
1.33493
1.3342
1.3335
1.33289
1.33221
1.33152
1.33089
1.33027
1.32964
1.32904
1.32846
1.32789
1.32735
1.32682
1.32632
1.32584
1.32538
1.32494
1.32452
1.32412
1.32374
1.32338
1.32304
1.32272
1.32242
1.32214
1.32188
1.32163
1.3214
1.32119
1.321
1.32082
1.32066
1.32051
1.32038
1.32026
1.32016
1.32008
1.32001
1.31995
1.31992
1.31989
1.31988
1.31989
1.31991
1.31994
1.32
1.32006
1.32015
1.32025
1.32037
1.3205
1.32066
1.32083
1.32102
1.32123
1.32146
1.32171
1.32199
1.32228
1.32259
1.32293
1.32329
1.32368
1.32409
1.32453
1.32499
1.32547
1.32599
1.32653
1.3271
1.32769
1.32831
1.32896
1.32964
1.33035
1.33108
1.33184
1.33262
1.33343
1.33426
1.33512
1.33599
1.33689
1.3378
1.33873
1.33967
1.34062
1.34158
1.34255
1.34352
1.34449
1.34546
1.34643
1.34739
1.34834
1.34928
1.3502
1.3511
1.35198
1.35284
1.35367
1.35448
1.35525
1.356
1.35671
1.35738
1.35802
1.35863
1.35919
1.35972
1.36021
1.36067
1.36108
1.36147
1.36182
1.36214
1.36242
1.36268
1.36291
1.36311
1.36329
1.36345
1.36359
1.36371
1.36381
1.3639
1.36397
1.36403
1.36408
1.36412
1.36414
1.36417
1.36418
1.36419
1.3642
1.3642
1.3642
1.36419
1.36419
1.36418
1.36417
1.36416
1.36415
1.36414
1.36413
1.36412
1.36411
1.3641
1.36409
1.36409
1.36408
1.36408
1.36407
1.36407
1.36406
1.36406
1.36406
1.36406
1.36406
1.36407
1.36407
1.36407
1.36407
1.36408
1.36408
1.36409
1.36409
1.3641
1.36411
1.36411
1.36412
1.36413
1.36413
1.36414
1.36415
1.36416
1.36416
1.36417
1.36418
1.36419
1.36419
1.3642
1.36421
1.36422
1.36423
1.36424
1.36425
1.36426
1.36426
1.36427
1.36428
1.36429
1.3643
1.36431
1.36432
1.36434
1.36435
1.36436
1.36437
1.36438
1.36439
1.3644
1.36441
1.36442
1.36443
1.36445
1.36446
1.36447
1.36448
1.36449
1.3645
1.36451
1.36452
1.36453
1.36454
1.36455
1.36456
1.36456
1.36457
1.36458
1.36458
1.36459
1.36459
1.36459
1.36459
1.36459
1.36459
1.36459
1.36458
1.36457
1.36456
1.36455
1.36454
1.36452
1.3645
1.36448
1.36445
1.36442
1.36439
1.36435
1.36431
1.36427
1.36423
1.36418
1.36413
1.36407
1.36401
1.36395
1.36389
1.36382
1.36375
1.36368
1.3636
1.36352
1.36344
1.36336
1.36327
1.36318
1.36309
1.36299
1.36289
1.36278
1.36267
1.36256
1.36243
1.3623
1.36216
1.36202
1.36185
1.36168
1.3615
1.3613
1.36108
1.36085
1.36059
1.36031
1.36001
1.35968
1.35933
1.35895
1.35853
1.35809
1.35761
1.35711
1.35656
1.35599
1.35538
1.35474
1.35407
1.35337
1.35265
1.35189
1.35111
1.35031
1.34949
1.34865
1.3478
1.34693
1.34605
1.34517
1.34428
1.34338
1.34248
1.34158
1.34069
1.3398
1.33891
1.33803
1.33716
1.3363
1.33545
1.33461
1.33378
1.33297
1.33217
1.33139
1.33062
1.32987
1.32913
1.32841
1.3277
1.32701
1.32633
1.32567
1.32503
1.3244
1.32379
1.32319
1.3226
1.32203
1.32148
1.32094
1.32042
1.3199
1.31941
1.31892
1.31845
1.31799
1.31755
1.31711
1.31669
1.31629
1.31589
1.31551
1.31514
1.31478
1.31443
1.31409
1.31376
1.31345
1.31314
1.31285
1.31257
1.31229
1.31203
1.31178
1.31153
1.3113
1.31108
1.31086
1.31066
1.31046
1.31027
1.3101
1.30993
1.30977
1.30962
1.30948
1.30935
1.30923
1.30911
1.30901
1.30892
1.30885
1.30876
1.30869
1.30869
1.30866
1.30855
1.30859
1.30878
1.30861
1.30844
1.30902
1.30925
1.30831
1.30879
1.31064
1.30927
1.30759
1.3109
1.31273
1.30975
1.30943
1.33878
1.33795
1.3372
1.33644
1.33581
1.33504
1.33425
1.33359
1.3329
1.33216
1.33149
1.33085
1.33018
1.32955
1.32895
1.32835
1.32778
1.32724
1.32671
1.32621
1.32572
1.32526
1.32482
1.32441
1.32401
1.32364
1.32328
1.32294
1.32263
1.32233
1.32205
1.32179
1.32155
1.32132
1.32111
1.32092
1.32075
1.32059
1.32044
1.32031
1.3202
1.3201
1.32002
1.31995
1.31989
1.31985
1.31983
1.31982
1.31982
1.31985
1.31988
1.31993
1.32
1.32008
1.32018
1.3203
1.32043
1.32058
1.32075
1.32094
1.32114
1.32137
1.32162
1.32188
1.32217
1.32248
1.32282
1.32317
1.32355
1.32396
1.32439
1.32484
1.32533
1.32584
1.32637
1.32694
1.32752
1.32814
1.32879
1.32947
1.33017
1.3309
1.33165
1.33244
1.33325
1.33408
1.33493
1.33581
1.33671
1.33762
1.33855
1.3395
1.34046
1.34143
1.3424
1.34338
1.34436
1.34534
1.34631
1.34729
1.34825
1.34919
1.35013
1.35104
1.35194
1.35281
1.35366
1.35448
1.35526
1.35602
1.35674
1.35743
1.35807
1.35869
1.35926
1.3598
1.36029
1.36075
1.36118
1.36156
1.36191
1.36224
1.36252
1.36278
1.36301
1.36322
1.36339
1.36355
1.36369
1.3638
1.3639
1.36399
1.36406
1.36412
1.36416
1.3642
1.36423
1.36425
1.36427
1.36428
1.36428
1.36428
1.36428
1.36428
1.36427
1.36427
1.36426
1.36425
1.36424
1.36423
1.36422
1.36421
1.3642
1.36419
1.36418
1.36418
1.36417
1.36417
1.36416
1.36416
1.36416
1.36416
1.36416
1.36416
1.36416
1.36417
1.36417
1.36417
1.36418
1.36418
1.36419
1.36419
1.3642
1.36421
1.36421
1.36422
1.36423
1.36423
1.36424
1.36425
1.36426
1.36426
1.36427
1.36428
1.36429
1.3643
1.36431
1.36431
1.36432
1.36433
1.36434
1.36435
1.36436
1.36437
1.36438
1.36439
1.3644
1.36441
1.36442
1.36443
1.36444
1.36445
1.36446
1.36447
1.36448
1.36449
1.3645
1.36451
1.36452
1.36453
1.36454
1.36455
1.36456
1.36457
1.36458
1.36459
1.3646
1.36461
1.36462
1.36463
1.36464
1.36465
1.36466
1.36466
1.36467
1.36468
1.36468
1.36468
1.36469
1.36469
1.36469
1.36469
1.36468
1.36468
1.36467
1.36466
1.36465
1.36464
1.36462
1.36461
1.36458
1.36456
1.36453
1.3645
1.36447
1.36443
1.36439
1.36435
1.3643
1.36425
1.3642
1.36414
1.36408
1.36402
1.36395
1.36388
1.36381
1.36374
1.36366
1.36358
1.3635
1.36341
1.36333
1.36323
1.36314
1.36304
1.36294
1.36283
1.36272
1.3626
1.36248
1.36235
1.3622
1.36205
1.36189
1.36172
1.36153
1.36132
1.3611
1.36086
1.3606
1.36032
1.36001
1.35967
1.35931
1.35892
1.35849
1.35804
1.35755
1.35703
1.35648
1.35589
1.35527
1.35462
1.35394
1.35322
1.35249
1.35172
1.35093
1.35012
1.34929
1.34845
1.34758
1.34671
1.34583
1.34494
1.34405
1.34315
1.34225
1.34135
1.34045
1.33956
1.33868
1.3378
1.33693
1.33607
1.33523
1.33439
1.33357
1.33277
1.33198
1.3312
1.33044
1.32969
1.32897
1.32825
1.32755
1.32687
1.32621
1.32556
1.32492
1.32431
1.3237
1.32311
1.32254
1.32198
1.32143
1.3209
1.32038
1.31988
1.31939
1.31891
1.31845
1.318
1.31756
1.31713
1.31672
1.31631
1.31592
1.31554
1.31518
1.31482
1.31448
1.31414
1.31382
1.31351
1.31321
1.31291
1.31263
1.31236
1.3121
1.31185
1.31161
1.31138
1.31116
1.31095
1.31074
1.31055
1.31037
1.31019
1.31003
1.30987
1.30973
1.30959
1.30947
1.30935
1.30925
1.30916
1.30906
1.309
1.30896
1.3089
1.30885
1.30891
1.30892
1.30882
1.30897
1.30924
1.30905
1.30902
1.30987
1.30997
1.30916
1.3104
1.31191
1.31054
1.31077
1.31333
1.31361
1.31428
1.33979
1.33852
1.33769
1.33685
1.33596
1.33512
1.33438
1.33362
1.33283
1.33211
1.33143
1.33072
1.33005
1.32942
1.3288
1.3282
1.32763
1.32708
1.32656
1.32605
1.32557
1.32511
1.32468
1.32426
1.32387
1.3235
1.32315
1.32282
1.3225
1.32221
1.32194
1.32168
1.32144
1.32122
1.32101
1.32083
1.32065
1.3205
1.32035
1.32023
1.32012
1.32002
1.31994
1.31987
1.31982
1.31978
1.31975
1.31974
1.31975
1.31977
1.3198
1.31985
1.31992
1.32
1.32009
1.32021
1.32034
1.32049
1.32065
1.32083
1.32104
1.32126
1.3215
1.32176
1.32205
1.32235
1.32268
1.32303
1.32341
1.3238
1.32423
1.32468
1.32515
1.32565
1.32619
1.32674
1.32733
1.32794
1.32859
1.32925
1.32995
1.33068
1.33143
1.33222
1.33302
1.33386
1.33471
1.33559
1.33649
1.33741
1.33835
1.3393
1.34026
1.34124
1.34222
1.34321
1.3442
1.34519
1.34618
1.34716
1.34813
1.34909
1.35004
1.35097
1.35188
1.35277
1.35363
1.35446
1.35527
1.35604
1.35677
1.35747
1.35813
1.35876
1.35934
1.35988
1.36039
1.36085
1.36128
1.36167
1.36203
1.36235
1.36264
1.3629
1.36312
1.36333
1.36351
1.36366
1.36379
1.36391
1.36401
1.36409
1.36416
1.36422
1.36427
1.3643
1.36433
1.36435
1.36436
1.36438
1.36438
1.36438
1.36438
1.36438
1.36437
1.36436
1.36435
1.36435
1.36433
1.36433
1.36432
1.36431
1.3643
1.36429
1.36429
1.36428
1.36428
1.36427
1.36427
1.36427
1.36427
1.36427
1.36427
1.36427
1.36427
1.36428
1.36428
1.36429
1.36429
1.3643
1.3643
1.36431
1.36432
1.36433
1.36433
1.36434
1.36435
1.36436
1.36436
1.36437
1.36438
1.36439
1.3644
1.36441
1.36442
1.36443
1.36443
1.36444
1.36445
1.36446
1.36447
1.36448
1.36449
1.3645
1.36451
1.36452
1.36453
1.36454
1.36455
1.36456
1.36457
1.36458
1.36459
1.3646
1.36461
1.36462
1.36463
1.36464
1.36465
1.36466
1.36467
1.36468
1.36469
1.3647
1.36471
1.36472
1.36473
1.36473
1.36474
1.36475
1.36476
1.36477
1.36477
1.36478
1.36478
1.36479
1.36479
1.3648
1.3648
1.3648
1.3648
1.3648
1.36479
1.36479
1.36478
1.36477
1.36476
1.36474
1.36472
1.3647
1.36468
1.36466
1.36463
1.3646
1.36456
1.36452
1.36448
1.36444
1.36439
1.36434
1.36428
1.36422
1.36416
1.3641
1.36403
1.36396
1.36389
1.36381
1.36374
1.36365
1.36357
1.36349
1.3634
1.3633
1.36321
1.36311
1.363
1.3629
1.36278
1.36266
1.36254
1.3624
1.36226
1.36211
1.36194
1.36176
1.36157
1.36136
1.36114
1.36089
1.36062
1.36033
1.36001
1.35967
1.35929
1.35889
1.35845
1.35798
1.35748
1.35695
1.35637
1.35577
1.35514
1.35447
1.35377
1.35304
1.35229
1.35151
1.35071
1.34989
1.34905
1.34819
1.34732
1.34644
1.34556
1.34466
1.34376
1.34286
1.34196
1.34105
1.34016
1.33927
1.33838
1.33751
1.33664
1.33579
1.33495
1.33412
1.33331
1.33251
1.33172
1.33095
1.33021
1.32947
1.32875
1.32805
1.32736
1.32669
1.32604
1.3254
1.32478
1.32417
1.32358
1.323
1.32244
1.32189
1.32136
1.32084
1.32033
1.31984
1.31936
1.31889
1.31844
1.318
1.31757
1.31715
1.31674
1.31635
1.31596
1.31559
1.31523
1.31488
1.31454
1.31421
1.3139
1.31359
1.31329
1.31301
1.31273
1.31246
1.31221
1.31196
1.31172
1.3115
1.31128
1.31107
1.31087
1.31068
1.3105
1.31034
1.31018
1.31003
1.30989
1.30976
1.30965
1.30954
1.30944
1.30937
1.3093
1.30923
1.30921
1.30922
1.30917
1.30916
1.30932
1.30939
1.30928
1.30957
1.31004
1.30982
1.30984
1.31112
1.31138
1.31052
1.31199
1.31412
1.31357
1.31359
1.31642
1.31848
1.3406
1.3391
1.33811
1.3371
1.33611
1.33524
1.3344
1.33355
1.33275
1.33202
1.33128
1.33056
1.32989
1.32925
1.32861
1.32801
1.32744
1.32689
1.32636
1.32586
1.32538
1.32493
1.3245
1.32409
1.3237
1.32333
1.32299
1.32266
1.32236
1.32207
1.3218
1.32155
1.32131
1.3211
1.3209
1.32071
1.32054
1.32039
1.32025
1.32013
1.32002
1.31992
1.31984
1.31978
1.31973
1.31969
1.31966
1.31965
1.31966
1.31968
1.31971
1.31976
1.31982
1.3199
1.31999
1.32011
1.32023
1.32038
1.32054
1.32072
1.32092
1.32113
1.32137
1.32163
1.3219
1.3222
1.32252
1.32287
1.32323
1.32363
1.32405
1.32449
1.32495
1.32545
1.32598
1.32652
1.32711
1.32772
1.32835
1.32902
1.32971
1.33043
1.33118
1.33197
1.33277
1.3336
1.33446
1.33534
1.33624
1.33717
1.3381
1.33906
1.34004
1.34101
1.34201
1.34301
1.34401
1.34501
1.34601
1.347
1.34799
1.34897
1.34993
1.35088
1.35181
1.35271
1.35359
1.35444
1.35526
1.35605
1.3568
1.35751
1.35819
1.35883
1.35942
1.35997
1.36049
1.36096
1.36139
1.36179
1.36215
1.36247
1.36276
1.36302
1.36325
1.36345
1.36363
1.36379
1.36392
1.36403
1.36413
1.36421
1.36428
1.36433
1.36438
1.36441
1.36444
1.36446
1.36447
1.36448
1.36449
1.36449
1.36449
1.36448
1.36448
1.36447
1.36446
1.36445
1.36444
1.36444
1.36443
1.36442
1.36441
1.36441
1.3644
1.3644
1.36439
1.36439
1.36439
1.36439
1.36439
1.36439
1.36439
1.3644
1.3644
1.36441
1.36441
1.36442
1.36442
1.36443
1.36444
1.36444
1.36445
1.36446
1.36447
1.36448
1.36449
1.36449
1.3645
1.36451
1.36452
1.36453
1.36454
1.36455
1.36456
1.36457
1.36458
1.36459
1.3646
1.36461
1.36461
1.36462
1.36463
1.36464
1.36465
1.36466
1.36467
1.36468
1.36469
1.3647
1.36471
1.36472
1.36473
1.36474
1.36475
1.36476
1.36477
1.36478
1.36479
1.3648
1.36481
1.36482
1.36483
1.36484
1.36485
1.36485
1.36486
1.36487
1.36488
1.36489
1.36489
1.3649
1.36491
1.36491
1.36492
1.36492
1.36492
1.36492
1.36492
1.36492
1.36492
1.36492
1.36491
1.36491
1.3649
1.36489
1.36487
1.36486
1.36484
1.36482
1.36479
1.36476
1.36473
1.3647
1.36466
1.36462
1.36458
1.36453
1.36448
1.36443
1.36438
1.36432
1.36425
1.36419
1.36412
1.36405
1.36398
1.3639
1.36382
1.36374
1.36365
1.36357
1.36348
1.36339
1.36329
1.36319
1.36309
1.36297
1.36286
1.36274
1.36261
1.36247
1.36233
1.36218
1.362
1.36182
1.36163
1.36141
1.36118
1.36093
1.36065
1.36035
1.36002
1.35966
1.35928
1.35886
1.35841
1.35792
1.3574
1.35685
1.35626
1.35564
1.35498
1.35429
1.35358
1.35283
1.35206
1.35127
1.35045
1.34962
1.34876
1.3479
1.34702
1.34613
1.34524
1.34434
1.34343
1.34252
1.34162
1.34072
1.33982
1.33893
1.33804
1.33717
1.33631
1.33545
1.33462
1.3338
1.33299
1.33219
1.33142
1.33066
1.32992
1.3292
1.32849
1.3278
1.32713
1.32647
1.32583
1.3252
1.3246
1.324
1.32343
1.32287
1.32232
1.32178
1.32127
1.32076
1.32027
1.31979
1.31932
1.31887
1.31842
1.31799
1.31758
1.31717
1.31677
1.31639
1.31601
1.31565
1.3153
1.31496
1.31463
1.31431
1.314
1.3137
1.31341
1.31313
1.31286
1.31259
1.31234
1.3121
1.31187
1.31165
1.31144
1.31124
1.31104
1.31086
1.31069
1.31053
1.31037
1.31023
1.3101
1.30998
1.30988
1.30979
1.3097
1.30963
1.3096
1.30956
1.30952
1.30955
1.30962
1.30961
1.30967
1.30994
1.31006
1.31002
1.3105
1.31108
1.3109
1.31129
1.3127
1.313
1.31293
1.31452
1.31608
1.31692
1.31826
1.31986
1.34117
1.33953
1.33838
1.33723
1.33621
1.33526
1.33431
1.33344
1.33264
1.33184
1.33107
1.33036
1.32968
1.32901
1.32838
1.32778
1.3272
1.32665
1.32613
1.32563
1.32516
1.32471
1.32429
1.32388
1.3235
1.32314
1.3228
1.32248
1.32218
1.3219
1.32164
1.3214
1.32117
1.32096
1.32076
1.32058
1.32042
1.32027
1.32013
1.32001
1.31991
1.31982
1.31974
1.31967
1.31962
1.31959
1.31956
1.31955
1.31956
1.31957
1.31961
1.31965
1.31972
1.31979
1.31988
1.31999
1.32011
1.32025
1.32041
1.32059
1.32078
1.32099
1.32122
1.32147
1.32174
1.32203
1.32235
1.32268
1.32304
1.32343
1.32384
1.32427
1.32474
1.32522
1.32573
1.32628
1.32686
1.32745
1.32808
1.32875
1.32943
1.33015
1.3309
1.33168
1.33248
1.33331
1.33417
1.33505
1.33596
1.33688
1.33783
1.33879
1.33977
1.34076
1.34176
1.34277
1.34378
1.3448
1.34581
1.34682
1.34782
1.34881
1.34979
1.35076
1.35171
1.35263
1.35353
1.3544
1.35524
1.35605
1.35682
1.35755
1.35824
1.35889
1.3595
1.36007
1.36059
1.36107
1.36152
1.36192
1.36228
1.36261
1.3629
1.36315
1.36339
1.36359
1.36376
1.36392
1.36405
1.36416
1.36425
1.36434
1.3644
1.36445
1.3645
1.36453
1.36456
1.36458
1.36459
1.3646
1.3646
1.36461
1.3646
1.3646
1.36459
1.36459
1.36458
1.36457
1.36456
1.36456
1.36455
1.36454
1.36454
1.36453
1.36453
1.36453
1.36452
1.36452
1.36452
1.36452
1.36452
1.36453
1.36453
1.36453
1.36454
1.36455
1.36455
1.36456
1.36456
1.36457
1.36458
1.36459
1.3646
1.36461
1.36462
1.36463
1.36464
1.36465
1.36465