# vtk DataFile Version 2.0
LBE two cylinders
ASCII
DATASET STRUCTURED_POINTS
DIMENSIONS 400 100 1
ASPECT_RATIO 1 1 1
ORIGIN 0 0 0
POINT_DATA 40000
SCALARS rho double 1
LOOKUP_TABLE default
1.33828
1.33553
1.33581
1.33584
1.33491
1.33439
1.33406
1.33339
1.33276
1.33223
1.33163
1.33101
1.33044
1.32986
1.32928
1.32873
1.32819
1.32766
1.32715
1.32666
1.32619
1.32573
1.3253
1.32488
1.32448
1.3241
1.32374
1.3234
1.32308
1.32277
1.32248
1.32222
1.32196
1.32173
1.32151
1.32131
1.32113
1.32096
1.32081
1.32067
1.32055
1.32044
1.32035
1.32028
1.32022
1.32017
1.32014
1.32013
1.32013
1.32015
1.32018
1.32023
1.32029
1.32038
1.32047
1.32059
1.32072
1.32087
1.32104
1.32123
1.32144
1.32167
1.32192
1.32219
1.32248
1.3228
1.32314
1.32351
1.3239
1.32431
1.32475
1.32522
1.32572
1.32624
1.32679
1.32737
1.32798
1.32862
1.32928
1.32998
1.3307
1.33145
1.33223
1.33303
1.33386
1.33471
1.33558
1.33648
1.3374
1.33833
1.33928
1.34024
1.34122
1.3422
1.34319
1.34419
1.34518
1.34618
1.34717
1.34815
1.34913
1.35009
1.35104
1.35198
1.35289
1.35378
1.35465
1.35549
1.35631
1.35709
1.35785
1.35857
1.35926
1.35992
1.36054
1.36114
1.36169
1.36222
1.36271
1.36317
1.36359
1.36399
1.36436
1.36471
1.36502
1.36532
1.36559
1.36583
1.36606
1.36627
1.36646
1.36664
1.3668
1.36695
1.36708
1.3672
1.36732
1.36742
1.36752
1.3676
1.36768
1.36776
1.36783
1.36789
1.36795
1.368
1.36805
1.3681
1.36814
1.36819
1.36822
1.36826
1.3683
1.36833
1.36836
1.36839
1.36842
1.36845
1.36847
1.3685
1.36852
1.36855
1.36857
1.36859
1.36861
1.36863
1.36865
1.36868
1.36869
1.36871
1.36873
1.36875
1.36877
1.36879
1.3688
1.36882
1.36884
1.36885
1.36887
1.36889
1.3689
1.36892
1.36893
1.36895
1.36896
1.36898
1.36899
1.369
1.36902
1.36903
1.36904
1.36906
1.36907
1.36908
1.3691
1.36911
1.36912
1.36913
1.36914
1.36916
1.36917
1.36918
1.36919
1.3692
1.36921
1.36923
1.36924
1.36925
1.36926
1.36927
1.36929
1.3693
1.36931
1.36932
1.36933
1.36935
1.36936
1.36937
1.36938
1.36939
1.3694
1.36941
1.36941
1.36942
1.36942
1.36943
1.36943
1.36943
1.36942
1.36942
1.36941
1.3694
1.36938
1.36936
1.36934
1.36932
1.36928
1.36925
1.36921
1.36916
1.36911
1.36906
1.369
1.36893
1.36886
1.36878
1.3687
1.36861
1.36852
1.36842
1.36831
1.3682
1.36809
1.36797
1.36784
1.36771
1.36757
1.36743
1.36729
1.36714
1.36699
1.36683
1.36667
1.36651
1.36634
1.36617
1.36599
1.36581
1.36562
1.36543
1.36523
1.36502
1.3648
1.36458
1.36434
1.36409
1.36383
1.36355
1.36326
1.36295
1.36262
1.36227
1.3619
1.3615
1.36108
1.36063
1.36015
1.35964
1.3591
1.35853
1.35793
1.3573
1.35663
1.35593
1.35521
1.35445
1.35367
1.35286
1.35203
1.35118
1.35031
1.34942
1.34851
1.3476
1.34667
1.34574
1.3448
1.34386
1.34292
1.34198
1.34104
1.34011
1.33919
1.33827
1.33737
1.33648
1.3356
1.33473
1.33388
1.33304
1.33222
1.33141
1.33063
1.32985
1.3291
1.32837
1.32765
1.32695
1.32627
1.3256
1.32496
1.32433
1.32372
1.32312
1.32254
1.32198
1.32144
1.32091
1.32039
1.31989
1.31941
1.31894
1.31848
1.31804
1.31761
1.3172
1.3168
1.3164
1.31603
1.31566
1.31531
1.31496
1.31463
1.31431
1.314
1.3137
1.31341
1.31313
1.31286
1.3126
1.31235
1.31211
1.31187
1.31165
1.31144
1.31123
1.31103
1.31084
1.31066
1.31049
1.31033
1.31017
1.31003
1.30989
1.30976
1.30964
1.30953
1.30943
1.30934
1.30925
1.30919
1.30913
1.30906
1.30902
1.30905
1.309
1.30889
1.30903
1.3092
1.30886
1.30873
1.30967
1.30956
1.3075
1.30847
1.31236
1.30775
1.29903
1.30956
1.31861
1.33639
1.33653
1.33604
1.33537
1.33507
1.33459
1.33399
1.33342
1.33288
1.33227
1.33166
1.33108
1.33049
1.3299
1.32934
1.32878
1.32824
1.32771
1.3272
1.32671
1.32623
1.32578
1.32534
1.32492
1.32452
1.32414
1.32378
1.32344
1.32311
1.32281
1.32252
1.32225
1.32199
1.32176
1.32154
1.32134
1.32115
1.32099
1.32083
1.3207
1.32057
1.32047
1.32038
1.3203
1.32024
1.3202
1.32017
1.32015
1.32015
1.32017
1.3202
1.32025
1.32031
1.3204
1.32049
1.32061
1.32074
1.32089
1.32106
1.32125
1.32145
1.32168
1.32193
1.3222
1.3225
1.32281
1.32315
1.32351
1.3239
1.32432
1.32476
1.32522
1.32572
1.32624
1.32679
1.32736
1.32797
1.32861
1.32927
1.32996
1.33068
1.33143
1.3322
1.333
1.33383
1.33468
1.33555
1.33644
1.33735
1.33828
1.33923
1.34019
1.34116
1.34214
1.34313
1.34413
1.34512
1.34611
1.3471
1.34809
1.34906
1.35003
1.35098
1.35191
1.35282
1.35372
1.35459
1.35543
1.35624
1.35703
1.35779
1.35851
1.35921
1.35987
1.36049
1.36109
1.36164
1.36217
1.36266
1.36313
1.36356
1.36396
1.36433
1.36467
1.36499
1.36529
1.36556
1.36581
1.36604
1.36625
1.36644
1.36662
1.36678
1.36693
1.36706
1.36719
1.3673
1.3674
1.3675
1.36759
1.36767
1.36774
1.36781
1.36787
1.36793
1.36799
1.36804
1.36808
1.36813
1.36817
1.36821
1.36825
1.36828
1.36831
1.36834
1.36837
1.3684
1.36843
1.36846
1.36848
1.36851
1.36853
1.36855
1.36857
1.3686
1.36862
1.36864
1.36866
1.36868
1.3687
1.36871
1.36873
1.36875
1.36877
1.36878
1.3688
1.36882
1.36884
1.36885
1.36887
1.36888
1.3689
1.36891
1.36893
1.36894
1.36896
1.36897
1.36898
1.369
1.36901
1.36902
1.36904
1.36905
1.36906
1.36907
1.36908
1.3691
1.36911
1.36912
1.36913
1.36914
1.36915
1.36917
1.36918
1.36919
1.3692
1.36921
1.36922
1.36924
1.36925
1.36926
1.36927
1.36928
1.36929
1.36931
1.36932
1.36933
1.36934
1.36935
1.36936
1.36937
1.36937
1.36938
1.36939
1.36939
1.36939
1.36939
1.36939
1.36939
1.36938
1.36937
1.36936
1.36935
1.36933
1.36931
1.36928
1.36925
1.36921
1.36917
1.36913
1.36908
1.36902
1.36896
1.36889
1.36882
1.36875
1.36866
1.36857
1.36848
1.36838
1.36827
1.36816
1.36805
1.36792
1.3678
1.36767
1.36753
1.36739
1.36725
1.3671
1.36694
1.36679
1.36663
1.36646
1.36629
1.36612
1.36594
1.36575
1.36556
1.36537
1.36516
1.36495
1.36473
1.36451
1.36427
1.36402
1.36375
1.36347
1.36318
1.36287
1.36254
1.36219
1.36181
1.36142
1.36099
1.36054
1.36006
1.35956
1.35902
1.35845
1.35785
1.35722
1.35656
1.35586
1.35514
1.35439
1.35361
1.35281
1.35199
1.35114
1.35027
1.34939
1.34849
1.34758
1.34665
1.34573
1.34479
1.34386
1.34292
1.34199
1.34105
1.34013
1.33921
1.3383
1.3374
1.33651
1.33563
1.33477
1.33392
1.33308
1.33226
1.33146
1.33067
1.3299
1.32915
1.32842
1.3277
1.327
1.32632
1.32566
1.32501
1.32438
1.32377
1.32317
1.32259
1.32203
1.32148
1.32095
1.32044
1.31994
1.31945
1.31898
1.31852
1.31808
1.31765
1.31723
1.31683
1.31644
1.31606
1.31569
1.31533
1.31499
1.31465
1.31433
1.31402
1.31372
1.31343
1.31314
1.31287
1.31261
1.31236
1.31211
1.31188
1.31165
1.31144
1.31123
1.31103
1.31084
1.31065
1.31048
1.31031
1.31016
1.31001
1.30986
1.30973
1.30961
1.30949
1.30938
1.30929
1.3092
1.30911
1.30905
1.309
1.30893
1.30887
1.30889
1.30888
1.30875
1.30875
1.309
1.30882
1.30833
1.30874
1.30942
1.3077
1.30622
1.30887
1.30831
1.29845
1.29298
1.33571
1.33671
1.33599
1.33528
1.33526
1.3347
1.33399
1.33351
1.33296
1.3323
1.33171
1.33114
1.33053
1.32994
1.32937
1.32881
1.32826
1.32774
1.32722
1.32673
1.32625
1.3258
1.32536
1.32494
1.32454
1.32416
1.32379
1.32345
1.32312
1.32282
1.32253
1.32226
1.32201
1.32177
1.32155
1.32135
1.32116
1.321
1.32084
1.3207
1.32058
1.32048
1.32038
1.32031
1.32025
1.3202
1.32017
1.32016
1.32016
1.32018
1.32021
1.32025
1.32032
1.3204
1.32049
1.32061
1.32074
1.32089
1.32106
1.32124
1.32145
1.32168
1.32192
1.32219
1.32248
1.3228
1.32314
1.3235
1.32388
1.3243
1.32473
1.3252
1.32569
1.32621
1.32675
1.32733
1.32793
1.32856
1.32922
1.32991
1.33063
1.33138
1.33215
1.33294
1.33377
1.33461
1.33548
1.33638
1.33729
1.33822
1.33916
1.34012
1.34109
1.34208
1.34306
1.34406
1.34505
1.34605
1.34704
1.34802
1.349
1.34997
1.35092
1.35185
1.35277
1.35366
1.35453
1.35538
1.3562
1.35699
1.35775
1.35848
1.35917
1.35984
1.36046
1.36106
1.36162
1.36215
1.36264
1.36311
1.36354
1.36394
1.36431
1.36466
1.36498
1.36527
1.36555
1.36579
1.36602
1.36623
1.36643
1.3666
1.36676
1.36691
1.36705
1.36717
1.36728
1.36739
1.36748
1.36757
1.36765
1.36772
1.36779
1.36785
1.36791
1.36796
1.36801
1.36806
1.3681
1.36815
1.36818
1.36822
1.36825
1.36829
1.36832
1.36835
1.36837
1.3684
1.36843
1.36845
1.36848
1.3685
1.36852
1.36854
1.36857
1.36859
1.36861
1.36863
1.36864
1.36866
1.36868
1.3687
1.36872
1.36874
1.36875
1.36877
1.36879
1.3688
1.36882
1.36883
1.36885
1.36886
1.36888
1.36889
1.36891
1.36892
1.36893
1.36895
1.36896
1.36897
1.36899
1.369
1.36901
1.36902
1.36904
1.36905
1.36906
1.36907
1.36908
1.36909
1.3691
1.36912
1.36913
1.36914
1.36915
1.36916
1.36917
1.36918
1.36919
1.36921
1.36922
1.36923
1.36924
1.36925
1.36926
1.36927
1.36928
1.36929
1.3693
1.36931
1.36932
1.36933
1.36934
1.36934
1.36935
1.36935
1.36935
1.36935
1.36934
1.36934
1.36933
1.36932
1.3693
1.36928
1.36926
1.36923
1.3692
1.36917
1.36913
1.36908
1.36903
1.36898
1.36891
1.36885
1.36878
1.3687
1.36862
1.36853
1.36843
1.36833
1.36823
1.36812
1.368
1.36788
1.36775
1.36762
1.36748
1.36734
1.3672
1.36705
1.36689
1.36673
1.36657
1.3664
1.36623
1.36606
1.36588
1.36569
1.3655
1.3653
1.3651
1.36489
1.36467
1.36444
1.3642
1.36395
1.36368
1.3634
1.36311
1.3628
1.36246
1.36211
1.36174
1.36134
1.36092
1.36047
1.35999
1.35948
1.35895
1.35838
1.35778
1.35715
1.35649
1.3558
1.35508
1.35434
1.35356
1.35276
1.35194
1.35109
1.35023
1.34935
1.34845
1.34754
1.34663
1.3457
1.34477
1.34384
1.34291
1.34197
1.34105
1.34012
1.33921
1.3383
1.3374
1.33651
1.33564
1.33478
1.33393
1.3331
1.33228
1.33148
1.3307
1.32993
1.32918
1.32844
1.32773
1.32703
1.32635
1.32569
1.32504
1.32441
1.3238
1.3232
1.32263
1.32206
1.32152
1.32098
1.32047
1.31997
1.31948
1.31901
1.31855
1.31811
1.31767
1.31726
1.31685
1.31646
1.31608
1.31571
1.31535
1.315
1.31467
1.31435
1.31403
1.31373
1.31343
1.31315
1.31288
1.31261
1.31236
1.31211
1.31188
1.31165
1.31143
1.31122
1.31102
1.31083
1.31064
1.31047
1.3103
1.31014
1.30998
1.30984
1.3097
1.30958
1.30946
1.30934
1.30924
1.30915
1.30906
1.30897
1.30892
1.30888
1.30877
1.30871
1.30881
1.30873
1.30842
1.30866
1.30904
1.30818
1.30759
1.30944
1.3091
1.30431
1.3063
1.31312
1.30076
1.28861
1.33613
1.33621
1.33608
1.33583
1.33531
1.33465
1.33419
1.33361
1.33296
1.33236
1.33177
1.33115
1.33054
1.32996
1.32938
1.32881
1.32827
1.32774
1.32722
1.32672
1.32625
1.32579
1.32535
1.32493
1.32453
1.32415
1.32378
1.32344
1.32311
1.32281
1.32252
1.32225
1.32199
1.32176
1.32154
1.32134
1.32115
1.32099
1.32083
1.32069
1.32057
1.32047
1.32037
1.3203
1.32024
1.32019
1.32016
1.32015
1.32015
1.32016
1.32019
1.32024
1.3203
1.32038
1.32048
1.32059
1.32072
1.32087
1.32103
1.32122
1.32142
1.32165
1.32189
1.32216
1.32245
1.32276
1.32309
1.32345
1.32384
1.32425
1.32468
1.32514
1.32563
1.32614
1.32669
1.32726
1.32786
1.32849
1.32915
1.32983
1.33055
1.33129
1.33206
1.33286
1.33368
1.33452
1.33539
1.33628
1.33719
1.33812
1.33907
1.34003
1.341
1.34199
1.34298
1.34397
1.34497
1.34597
1.34696
1.34795
1.34893
1.3499
1.35086
1.3518
1.35272
1.35362
1.35449
1.35535
1.35617
1.35696
1.35773
1.35846
1.35916
1.35983
1.36046
1.36106
1.36162
1.36215
1.36264
1.36311
1.36354
1.36394
1.36432
1.36466
1.36498
1.36527
1.36554
1.36579
1.36602
1.36623
1.36642
1.36659
1.36675
1.3669
1.36703
1.36715
1.36726
1.36737
1.36746
1.36754
1.36762
1.3677
1.36776
1.36782
1.36788
1.36793
1.36798
1.36803
1.36807
1.36811
1.36815
1.36818
1.36822
1.36825
1.36828
1.36831
1.36834
1.36836
1.36839
1.36841
1.36844
1.36846
1.36848
1.3685
1.36852
1.36854
1.36856
1.36858
1.3686
1.36862
1.36864
1.36866
1.36867
1.36869
1.36871
1.36872
1.36874
1.36876
1.36877
1.36879
1.3688
1.36882
1.36883
1.36885
1.36886
1.36887
1.36889
1.3689
1.36891
1.36893
1.36894
1.36895
1.36896
1.36897
1.36899
1.369
1.36901
1.36902
1.36903
1.36904
1.36905
1.36906
1.36907
1.36909
1.3691
1.36911
1.36912
1.36913
1.36914
1.36915
1.36916
1.36917
1.36918
1.3692
1.36921
1.36922
1.36923
1.36924
1.36925
1.36926
1.36926
1.36927
1.36928
1.36928
1.36929
1.36929
1.36929
1.36929
1.36929
1.36928
1.36927
1.36926
1.36924
1.36923
1.3692
1.36918
1.36915
1.36911
1.36907
1.36903
1.36898
1.36892
1.36886
1.36879
1.36872
1.36865
1.36856
1.36847
1.36838
1.36828
1.36817
1.36806
1.36795
1.36782
1.3677
1.36757
1.36743
1.36729
1.36714
1.36699
1.36684
1.36668
1.36651
1.36635
1.36618
1.366
1.36582
1.36563
1.36544
1.36524
1.36504
1.36482
1.3646
1.36437
1.36413
1.36388
1.36361
1.36334
1.36304
1.36273
1.3624
1.36204
1.36167
1.36127
1.36085
1.3604
1.35992
1.35941
1.35888
1.35831
1.35771
1.35708
1.35642
1.35573
1.35501
1.35426
1.35349
1.35269
1.35186
1.35102
1.35016
1.34928
1.34838
1.34748
1.34656
1.34564
1.34471
1.34378
1.34285
1.34192
1.34099
1.34007
1.33916
1.33826
1.33736
1.33648
1.33561
1.33475
1.3339
1.33307
1.33226
1.33146
1.33068
1.32992
1.32917
1.32844
1.32773
1.32703
1.32635
1.32569
1.32505
1.32442
1.32381
1.32321
1.32264
1.32208
1.32153
1.321
1.32048
1.31998
1.3195
1.31902
1.31857
1.31812
1.31769
1.31727
1.31687
1.31647
1.31609
1.31572
1.31536
1.31502
1.31468
1.31436
1.31404
1.31374
1.31344
1.31316
1.31288
1.31262
1.31236
1.31212
1.31188
1.31165
1.31143
1.31122
1.31102
1.31082
1.31064
1.31046
1.31029
1.31013
1.30997
1.30983
1.30969
1.30956
1.30944
1.30933
1.30921
1.30911
1.30904
1.30896
1.30885
1.30881
1.30882
1.30869
1.30856
1.30873
1.30879
1.30829
1.3083
1.30918
1.30856
1.30687
1.3085
1.31015
1.30542
1.30336
1.30871
1.30934
1.33691
1.33661
1.33646
1.33609
1.33536
1.33482
1.33436
1.33365
1.333
1.33243
1.33179
1.33114
1.33055
1.32995
1.32936
1.32879
1.32824
1.3277
1.32718
1.32669
1.32621
1.32575
1.32531
1.32489
1.32449
1.3241
1.32374
1.3234
1.32307
1.32277
1.32248
1.32221
1.32196
1.32172
1.32151
1.32131
1.32112
1.32095
1.3208
1.32066
1.32054
1.32044
1.32034
1.32027
1.32021
1.32016
1.32013
1.32012
1.32012
1.32013
1.32016
1.32021
1.32027
1.32035
1.32044
1.32055
1.32068
1.32083
1.32099
1.32117
1.32137
1.3216
1.32184
1.3221
1.32239
1.3227
1.32303
1.32338
1.32376
1.32417
1.3246
1.32506
1.32554
1.32605
1.32659
1.32716
1.32776
1.32839
1.32904
1.32972
1.33043
1.33117
1.33194
1.33274
1.33356
1.3344
1.33527
1.33616
1.33707
1.338
1.33895
1.33991
1.34089
1.34187
1.34287
1.34387
1.34487
1.34587
1.34687
1.34787
1.34885
1.34983
1.35079
1.35174
1.35266
1.35357
1.35445
1.35531
1.35614
1.35694
1.35771
1.35845
1.35916
1.35983
1.36046
1.36106
1.36163
1.36216
1.36266
1.36312
1.36355
1.36396
1.36433
1.36467
1.36499
1.36528
1.36555
1.36579
1.36602
1.36622
1.36641
1.36658
1.36674
1.36688
1.36701
1.36713
1.36724
1.36734
1.36743
1.36752
1.36759
1.36766
1.36773
1.36779
1.36784
1.3679
1.36794
1.36799
1.36803
1.36807
1.3681
1.36814
1.36817
1.3682
1.36823
1.36826
1.36829
1.36831
1.36834
1.36836
1.36838
1.36841
1.36843
1.36845
1.36847
1.36849
1.36851
1.36853
1.36855
1.36857
1.36858
1.3686
1.36862
1.36863
1.36865
1.36867
1.36868
1.3687
1.36871
1.36873
1.36874
1.36876
1.36877
1.36879
1.3688
1.36881
1.36883
1.36884
1.36885
1.36886
1.36888
1.36889
1.3689
1.36891
1.36892
1.36893
1.36894
1.36896
1.36897
1.36898
1.36899
1.369
1.36901
1.36902
1.36903
1.36904
1.36905
1.36906
1.36907
1.36908
1.36909
1.36911
1.36912
1.36913
1.36914
1.36915
1.36916
1.36917
1.36918
1.36919
1.3692
1.3692
1.36921
1.36921
1.36922
1.36922
1.36922
1.36922
1.36922
1.36921
1.3692
1.36919
1.36918
1.36916
1.36914
1.36911
1.36908
1.36905
1.36901
1.36896
1.36891
1.36886
1.3688
1.36873
1.36866
1.36858
1.3685
1.36841
1.36832
1.36822
1.36811
1.368
1.36789
1.36776
1.36764
1.36751
1.36737
1.36723
1.36708
1.36693
1.36678
1.36662
1.36645
1.36629
1.36611
1.36594
1.36576
1.36557
1.36538
1.36518
1.36498
1.36476
1.36454
1.36431
1.36407
1.36382
1.36355
1.36327
1.36298
1.36266
1.36233
1.36198
1.3616
1.3612
1.36078
1.36032
1.35984
1.35933
1.35879
1.35822
1.35762
1.35699
1.35632
1.35563
1.35491
1.35415
1.35338
1.35257
1.35175
1.3509
1.35004
1.34916
1.34826
1.34735
1.34644
1.34552
1.34459
1.34366
1.34273
1.34181
1.34088
1.33997
1.33906
1.33815
1.33726
1.33638
1.33552
1.33466
1.33382
1.333
1.33219
1.33139
1.33062
1.32986
1.32912
1.32839
1.32768
1.32699
1.32632
1.32566
1.32502
1.3244
1.32379
1.3232
1.32263
1.32207
1.32153
1.321
1.32048
1.31999
1.3195
1.31903
1.31858
1.31813
1.3177
1.31728
1.31688
1.31649
1.31611
1.31574
1.31538
1.31503
1.3147
1.31437
1.31406
1.31375
1.31346
1.31318
1.3129
1.31264
1.31238
1.31213
1.31189
1.31167
1.31145
1.31123
1.31103
1.31084
1.31065
1.31047
1.3103
1.31014
1.30999
1.30984
1.3097
1.30957
1.30945
1.30934
1.30924
1.30913
1.30904
1.30899
1.30892
1.30881
1.30881
1.30885
1.30869
1.30859
1.30891
1.30888
1.30825
1.30872
1.30972
1.30818
1.30724
1.31062
1.30992
1.30499
1.30831
1.31082
1.33781
1.33739
1.33685
1.3362
1.33567
1.33509
1.33438
1.33369
1.3331
1.33243
1.33175
1.33114
1.33052
1.3299
1.32931
1.32873
1.32817
1.32763
1.32711
1.32661
1.32613
1.32567
1.32523
1.32481
1.32441
1.32403
1.32367
1.32333
1.323
1.3227
1.32241
1.32215
1.3219
1.32166
1.32145
1.32125
1.32106
1.3209
1.32075
1.32061
1.32049
1.32039
1.32029
1.32022
1.32016
1.32011
1.32008
1.32007
1.32007
1.32008
1.32011
1.32015
1.32021
1.32029
1.32038
1.32049
1.32062
1.32076
1.32092
1.3211
1.3213
1.32152
1.32176
1.32202
1.3223
1.32261
1.32294
1.32329
1.32366
1.32406
1.32449
1.32494
1.32542
1.32593
1.32647
1.32703
1.32762
1.32825
1.3289
1.32958
1.33029
1.33102
1.33179
1.33258
1.3334
1.33425
1.33511
1.33601
1.33692
1.33785
1.3388
1.33977
1.34075
1.34174
1.34273
1.34374
1.34475
1.34576
1.34676
1.34776
1.34876
1.34974
1.35071
1.35167
1.3526
1.35352
1.35441
1.35528
1.35612
1.35693
1.3577
1.35845
1.35916
1.35984
1.36047
1.36108
1.36165
1.36218
1.36268
1.36315
1.36358
1.36398
1.36435
1.36469
1.365
1.36529
1.36556
1.3658
1.36602
1.36622
1.36641
1.36658
1.36673
1.36687
1.367
1.36711
1.36722
1.36732
1.3674
1.36748
1.36756
1.36763
1.36769
1.36775
1.3678
1.36785
1.36789
1.36794
1.36798
1.36802
1.36805
1.36808
1.36811
1.36815
1.36817
1.3682
1.36823
1.36825
1.36828
1.3683
1.36832
1.36834
1.36836
1.36839
1.3684
1.36842
1.36844
1.36846
1.36848
1.3685
1.36852
1.36853
1.36855
1.36857
1.36858
1.3686
1.36861
1.36863
1.36864
1.36866
1.36867
1.36869
1.3687
1.36871
1.36873
1.36874
1.36875
1.36877
1.36878
1.36879
1.3688
1.36881
1.36882
1.36884
1.36885
1.36886
1.36887
1.36888
1.36889
1.3689
1.36891
1.36892
1.36893
1.36894
1.36895
1.36896
1.36897
1.36898
1.36899
1.369
1.36901
1.36903
1.36904
1.36905
1.36906
1.36907
1.36908
1.36909
1.3691
1.36911
1.36911
1.36912
1.36913
1.36913
1.36914
1.36914
1.36914
1.36914
1.36914
1.36913
1.36912
1.36911
1.3691
1.36908
1.36906
1.36903
1.369
1.36897
1.36893
1.36889
1.36884
1.36878
1.36873
1.36866
1.36859
1.36851
1.36843
1.36834
1.36825
1.36815
1.36804
1.36793
1.36782
1.3677
1.36757
1.36744
1.3673
1.36716
1.36702
1.36687
1.36671
1.36656
1.36639
1.36623
1.36605
1.36588
1.3657
1.36551
1.36532
1.36512
1.36492
1.3647
1.36449
1.36425
1.36401
1.36376
1.36349
1.36321
1.36292
1.3626
1.36227
1.36191
1.36153
1.36113
1.3607
1.36024
1.35975
1.35924
1.35869
1.35812
1.35751
1.35687
1.3562
1.35549
1.35476
1.35401
1.35322
1.35241
1.35158
1.35073
1.34986
1.34898
1.34808
1.34717
1.34626
1.34533
1.34441
1.34348
1.34255
1.34163
1.3407
1.33979
1.33888
1.33798
1.3371
1.33622
1.33536
1.33451
1.33368
1.33286
1.33206
1.33127
1.3305
1.32975
1.32901
1.32829
1.32759
1.32691
1.32624
1.32559
1.32496
1.32435
1.32374
1.32316
1.32259
1.32204
1.3215
1.32098
1.32047
1.31998
1.3195
1.31903
1.31858
1.31814
1.31771
1.3173
1.3169
1.31651
1.31613
1.31576
1.3154
1.31506
1.31472
1.3144
1.31409
1.31378
1.31349
1.31321
1.31293
1.31267
1.31242
1.31217
1.31193
1.3117
1.31149
1.31127
1.31107
1.31088
1.31069
1.31052
1.31035
1.31019
1.31004
1.30989
1.30976
1.30964
1.30952
1.3094
1.30931
1.30923
1.30914
1.30906
1.30905
1.30901
1.30888
1.30892
1.30909
1.30892
1.30873
1.3093
1.30951
1.30855
1.30902
1.31084
1.30945
1.30776
1.31105
1.31285
1.30984
1.30951
1.33885
1.33805
1.33731
1.33658
1.33596
1.33521
1.33444
1.33379
1.33311
1.33238
1.33173
1.33109
1.33043
1.32981
1.32922
1.32863
1.32806
1.32752
1.327
1.3265
1.32602
1.32556
1.32512
1.3247
1.3243
1.32392
1.32357
1.32323
1.32291
1.32261
1.32232
1.32206
1.32181
1.32158
1.32136
1.32117
1.32099
1.32082
1.32067
1.32054
1.32042
1.32032
1.32023
1.32015
1.32009
1.32005
1.32002
1.32
1.32
1.32001
1.32004
1.32009
1.32014
1.32022
1.32031
1.32042
1.32054
1.32068
1.32084
1.32102
1.32121
1.32143
1.32166
1.32192
1.3222
1.3225
1.32282
1.32317
1.32354
1.32393
1.32435
1.3248
1.32528
1.32578
1.32631
1.32687
1.32746
1.32808
1.32872
1.3294
1.3301
1.33084
1.3316
1.33239
1.33321
1.33406
1.33492
1.33582
1.33673
1.33767
1.33862
1.33959
1.34057
1.34157
1.34257
1.34358
1.3446
1.34562
1.34663
1.34764
1.34864
1.34964
1.35062
1.35158
1.35253
1.35346
1.35436
1.35524
1.35609
1.3569
1.35769
1.35845
1.35916
1.35985
1.36049
1.3611
1.36167
1.36221
1.36271
1.36317
1.36361
1.36401
1.36437
1.36471
1.36502
1.36531
1.36557
1.36581
1.36603
1.36623
1.3664
1.36657
1.36672
1.36685
1.36697
1.36709
1.36719
1.36728
1.36737
1.36745
1.36752
1.36758
1.36764
1.3677
1.36775
1.3678
1.36784
1.36788
1.36792
1.36795
1.36799
1.36802
1.36805
1.36808
1.36811
1.36813
1.36816
1.36818
1.3682
1.36823
1.36825
1.36827
1.36829
1.36831
1.36833
1.36835
1.36837
1.36839
1.3684
1.36842
1.36844
1.36845
1.36847
1.36849
1.3685
1.36852
1.36853
1.36855
1.36856
1.36858
1.36859
1.3686
1.36862
1.36863
1.36864
1.36866
1.36867
1.36868
1.36869
1.3687
1.36871
1.36873
1.36874
1.36875
1.36876
1.36877
1.36878
1.36879
1.3688
1.36881
1.36882
1.36883
1.36884
1.36885
1.36886
1.36887
1.36888
1.36889
1.3689
1.36891
1.36892
1.36893
1.36894
1.36895
1.36896
1.36898
1.36899
1.369
1.369
1.36901
1.36902
1.36903
1.36904
1.36904
1.36905
1.36905
1.36905
1.36905
1.36905
1.36904
1.36903
1.36902
1.36901
1.36899
1.36897
1.36895
1.36892
1.36888
1.36885
1.3688
1.36876
1.3687
1.36864
1.36858
1.36851
1.36843
1.36835
1.36826
1.36817
1.36807
1.36797
1.36786
1.36774
1.36762
1.3675
1.36737
1.36723
1.36709
1.36695
1.3668
1.36665
1.36649
1.36633
1.36616
1.36599
1.36582
1.36564
1.36545
1.36526
1.36507
1.36486
1.36465
1.36443
1.3642
1.36396
1.36371
1.36344
1.36316
1.36286
1.36254
1.3622
1.36184
1.36146
1.36105
1.36061
1.36015
1.35966
1.35913
1.35858
1.35799
1.35737
1.35672
1.35604
1.35533
1.35459
1.35382
1.35303
1.35221
1.35137
1.35051
1.34964
1.34875
1.34785
1.34694
1.34602
1.34509
1.34416
1.34323
1.34231
1.34138
1.34046
1.33955
1.33865
1.33775
1.33687
1.336
1.33514
1.3343
1.33347
1.33266
1.33186
1.33109
1.33033
1.32958
1.32886
1.32815
1.32745
1.32678
1.32613
1.32548
1.32486
1.32426
1.32367
1.32309
1.32253
1.32199
1.32146
1.32094
1.32044
1.31996
1.31948
1.31903
1.31858
1.31814
1.31772
1.31731
1.31692
1.31653
1.31616
1.31579
1.31544
1.3151
1.31477
1.31445
1.31414
1.31384
1.31355
1.31326
1.31299
1.31273
1.31248
1.31223
1.312
1.31177
1.31156
1.31135
1.31115
1.31096
1.31078
1.3106
1.31044
1.31028
1.31014
1.31
1.30987
1.30975
1.30965
1.30955
1.30945
1.30938
1.30934
1.30926
1.30921
1.30926
1.30925
1.30914
1.30928
1.30954
1.30933
1.3093
1.31013
1.31021
1.30938
1.31061
1.3121
1.3107
1.31091
1.31345
1.31371
1.31435
1.33987
1.33863
1.33781
1.337
1.33612
1.3353
1.33457
1.33382
1.33304
1.33234
1.33167
1.33097
1.33031
1.32969
1.32908
1.32848
1.32792
1.32737
1.32685
1.32635
1.32587
1.32541
1.32497
1.32456
1.32416
1.32379
1.32343
1.3231
1.32278
1.32248
1.3222
1.32194
1.3217
1.32147
1.32126
1.32107
1.32089
1.32073
1.32058
1.32045
1.32033
1.32023
1.32014
1.32007
1.32001
1.31996
1.31993
1.31992
1.31992
1.31993
1.31996
1.32
1.32006
1.32013
1.32022
1.32032
1.32044
1.32058
1.32074
1.32091
1.3211
1.32131
1.32154
1.3218
1.32207
1.32236
1.32268
1.32302
1.32339
1.32378
1.32419
1.32464
1.3251
1.3256
1.32613
1.32668
1.32726
1.32788
1.32852
1.32919
1.32989
1.33062
1.33138
1.33217
1.33299
1.33383
1.3347
1.3356
1.33651
1.33745
1.33841
1.33938
1.34037
1.34137
1.34238
1.3434
1.34442
1.34544
1.34647
1.34749
1.3485
1.34951
1.3505
1.35148
1.35244
1.35338
1.35429
1.35518
1.35605
1.35688
1.35767
1.35844
1.35916
1.35985
1.36051
1.36112
1.3617
1.36224
1.36274
1.36321
1.36364
1.36404
1.3644
1.36474
1.36505
1.36533
1.36559
1.36582
1.36603
1.36622
1.3664
1.36656
1.3667
1.36683
1.36695
1.36706
1.36716
1.36725
1.36733
1.3674
1.36747
1.36753
1.36759
1.36764
1.36769
1.36773
1.36777
1.36781
1.36785
1.36788
1.36792
1.36795
1.36798
1.368
1.36803
1.36805
1.36808
1.3681
1.36812
1.36815
1.36817
1.36819
1.36821
1.36823
1.36824
1.36826
1.36828
1.3683
1.36831
1.36833
1.36835
1.36836
1.36838
1.3684
1.36841
1.36843
1.36844
1.36846
1.36847
1.36848
1.3685
1.36851
1.36852
1.36854
1.36855
1.36856
1.36857
1.36858
1.36859
1.36861
1.36862
1.36863
1.36864
1.36865
1.36866
1.36867
1.36868
1.36869
1.3687
1.36871
1.36872
1.36873
1.36874
1.36875
1.36876
1.36877
1.36878
1.36879
1.3688
1.36881
1.36882
1.36883
1.36884
1.36885
1.36886
1.36887
1.36888
1.36889
1.3689
1.36891
1.36892
1.36893
1.36893
1.36894
1.36894
1.36895
1.36895
1.36895
1.36895
1.36894
1.36894
1.36893
1.36891
1.3689
1.36887
1.36885
1.36882
1.36879
1.36875
1.36871
1.36866
1.36861
1.36855
1.36849
1.36842
1.36834
1.36826
1.36818
1.36809
1.36799
1.36788
1.36778
1.36766
1.36754
1.36742
1.36729
1.36716
1.36702
1.36688
1.36673
1.36658
1.36642
1.36626
1.3661
1.36593
1.36576
1.36558
1.3654
1.36521
1.36501
1.36481
1.3646
1.36438
1.36415
1.36391
1.36365
1.36339
1.3631
1.3628
1.36248
1.36214
1.36177
1.36138
1.36097
1.36052
1.36005
1.35955
1.35901
1.35844
1.35784
1.35721
1.35655
1.35586
1.35513
1.35438
1.3536
1.35279
1.35196
1.35111
1.35025
1.34936
1.34847
1.34756
1.34664
1.34572
1.34479
1.34386
1.34293
1.342
1.34108
1.34016
1.33925
1.33835
1.33746
1.33658
1.33571
1.33486
1.33402
1.3332
1.3324
1.33161
1.33084
1.33009
1.32936
1.32864
1.32795
1.32727
1.3266
1.32596
1.32534
1.32472
1.32413
1.32355
1.32299
1.32244
1.32191
1.32139
1.32089
1.3204
1.31992
1.31946
1.31901
1.31857
1.31815
1.31773
1.31733
1.31694
1.31656
1.31619
1.31584
1.31549
1.31516
1.31483
1.31451
1.31421
1.31391
1.31363
1.31335
1.31308
1.31282
1.31257
1.31233
1.3121
1.31188
1.31167
1.31146
1.31127
1.31108
1.31091
1.31074
1.31058
1.31043
1.31029
1.31016
1.31004
1.30993
1.30983
1.30975
1.30968
1.3096
1.30957
1.30957
1.30952
1.3095
1.30965
1.30971
1.30959
1.30986
1.31033
1.31008
1.31009
1.31135
1.3116
1.31072
1.31217
1.31428
1.31371
1.31371
1.31652
1.31855
1.3407
1.33922
1.33824
1.33725
1.33627
1.33542
1.3346
1.33376
1.33297
1.33226
1.33152
1.33081
1.33016
1.32951
1.32888
1.32829
1.32773
1.32718
1.32665
1.32615
1.32568
1.32522
1.32479
1.32438
1.32399
1.32362
1.32327
1.32294
1.32263
1.32234
1.32206
1.3218
1.32156
1.32134
1.32114
1.32095
1.32077
1.32061
1.32047
1.32034
1.32023
1.32013
1.32004
1.31997
1.31991
1.31987
1.31984
1.31982
1.31982
1.31983
1.31986
1.3199
1.31996
1.32003
1.32011
1.32021
1.32033
1.32047
1.32062
1.32079
1.32098
1.32118
1.32141
1.32166
1.32192
1.32221
1.32252
1.32286
1.32322
1.3236
1.32401
1.32444
1.3249
1.3254
1.32592
1.32646
1.32704
1.32765
1.32828
1.32895
1.32965
1.33037
1.33113
1.33192
1.33273
1.33357
1.33444
1.33534
1.33625
1.33719
1.33815
1.33913
1.34013
1.34113
1.34215
1.34318
1.3442
1.34524
1.34628
1.34731
1.34833
1.34935
1.35036
1.35135
1.35232
1.35328
1.35421
1.35511
1.35599
1.35684
1.35764
1.35842
1.35916
1.35986
1.36052
1.36114
1.36172
1.36227
1.36277
1.36324
1.36367
1.36407
1.36443
1.36476
1.36507
1.36534
1.3656
1.36583
1.36603
1.36622
1.36639
1.36655
1.36668
1.36681
1.36692
1.36703
1.36712
1.3672
1.36728
1.36735
1.36741
1.36747
1.36753
1.36758
1.36762
1.36766
1.3677
1.36774
1.36777
1.36781
1.36784
1.36787
1.36789
1.36792
1.36794
1.36797
1.36799
1.36801
1.36803
1.36805
1.36807
1.36809
1.36811
1.36813
1.36815
1.36817
1.36818
1.3682
1.36822
1.36823
1.36825
1.36826
1.36828
1.3683
1.36831
1.36832
1.36834
1.36835
1.36837
1.36838
1.36839
1.36841
1.36842
1.36843
1.36844
1.36845
1.36846
1.36848
1.36849
1.3685
1.36851
1.36852
1.36853
1.36854
1.36855
1.36856
1.36857
1.36858
1.36859
1.3686
1.36861
1.36862
1.36863
1.36864
1.36865
1.36866
1.36867
1.36868
1.36869
1.3687
1.36871
1.36872
1.36873
1.36874
1.36875
1.36876
1.36877
1.36878
1.36879
1.3688
1.36881
1.36881
1.36882
1.36883
1.36883
1.36884
1.36884
1.36884
1.36884
1.36883
1.36883
1.36882
1.3688
1.36879
1.36877
1.36874
1.36872
1.36868
1.36865
1.36861
1.36856
1.36851
1.36845
1.36839
1.36832
1.36825
1.36817
1.36808
1.36799
1.36789
1.36779
1.36768
1.36757
1.36745
1.36733
1.36721
1.36707
1.36694
1.3668
1.36665
1.3665
1.36635
1.36619
1.36603
1.36587
1.36569
1.36552
1.36534
1.36515
1.36496
1.36476
1.36455
1.36433
1.3641
1.36386
1.3636
1.36334
1.36305
1.36274
1.36242
1.36207
1.3617
1.36131
1.36088
1.36043
1.35994
1.35943
1.35888
1.3583
1.35768
1.35703
1.35636
1.35564
1.3549
1.35413
1.35334
1.35252
1.35168
1.35082
1.34994
1.34905
1.34814
1.34723
1.3463
1.34538
1.34445
1.34351
1.34258
1.34165
1.34072
1.33981
1.3389
1.338
1.33711
1.33623
1.33537
1.33453
1.3337
1.33288
1.33209
1.33131
1.33055
1.32981
1.32909
1.32839
1.3277
1.32704
1.32639
1.32576
1.32515
1.32455
1.32397
1.3234
1.32286
1.32232
1.32181
1.3213
1.32081
1.32034
1.31987
1.31942
1.31898
1.31856
1.31814
1.31774
1.31735
1.31697
1.3166
1.31624
1.31589
1.31556
1.31523
1.31491
1.3146
1.3143
1.31401
1.31373
1.31346
1.3132
1.31294
1.3127
1.31247
1.31224
1.31202
1.31182
1.31162
1.31143
1.31125
1.31108
1.31092
1.31077
1.31062
1.31049
1.31037
1.31026
1.31017
1.31008
1.31001
1.30997
1.30993
1.30988
1.3099
1.30996
1.30995
1.30999
1.31025
1.31036
1.31031
1.31078
1.31135
1.31115
1.31153
1.31292
1.3132
1.31311
1.31468
1.31622
1.31705
1.31836
1.31994
1.34128
1.33966
1.33853
1.3374
1.33639
1.33546
1.33451
1.33366
1.33287
1.33208
1.33132
1.33062
1.32994
1.32928
1.32866
1.32806
1.32749
1.32694
1.32642
1.32593
1.32545
1.325
1.32458
1.32417
1.32379
1.32342
1.32308
1.32276
1.32245
1.32217
1.3219
1.32165
1.32141
1.3212
1.32099
1.32081
1.32064
1.32048
1.32034
1.32022
1.32011
1.32001
1.31993
1.31986
1.3198
1.31976
1.31973
1.31971
1.31971
1.31972
1.31975
1.31979
1.31984
1.31991
1.31999
1.32009
1.32021
1.32034
1.32049
1.32065
1.32083
1.32104
1.32126
1.3215
1.32176
1.32204
1.32235
1.32267
1.32302
1.3234
1.3238
1.32423
1.32469
1.32517
1.32567
1.32622
1.32679
1.32738
1.32802
1.32868
1.32937
1.33009
1.33084
1.33162
1.33244
1.33328
1.33414
1.33504
1.33596
1.3369
1.33786
1.33885
1.33984
1.34086
1.34188
1.34292
1.34396
1.345
1.34605
1.34709
1.34813
1.34916
1.35018
1.35119
1.35218
1.35315
1.3541
1.35502
1.35591
1.35678
1.3576
1.35839
1.35914
1.35986
1.36053
1.36116
1.36174
1.36229
1.3628
1.36327
1.3637
1.3641
1.36446
1.36479
1.36509
1.36536
1.36561
1.36583
1.36604
1.36621
1.36638
1.36653
1.36666
1.36678
1.36689
1.36699
1.36707
1.36716
1.36723
1.3673
1.36735
1.36741
1.36746
1.36751
1.36755
1.36759
1.36762
1.36766
1.36769
1.36772
1.36775
1.36778
1.3678
1.36783
1.36785
1.36787
1.36789
1.36792
1.36793
1.36795
1.36797
1.36799
1.36801
1.36803
1.36804
1.36806
1.36808
1.36809
1.36811
1.36813
1.36814
1.36816
1.36817
1.36819
1.3682
1.36821
1.36823
1.36824
1.36825
1.36827