# vtk DataFile Version 2.0
LBE two cylinders
ASCII
DATASET STRUCTURED_POINTS
DIMENSIONS 400 100 1
ASPECT_RATIO 1 1 1
ORIGIN 0 0 0
POINT_DATA 40000
SCALARS rho double 1
LOOKUP_TABLE default
1.33582
1.33258
1.33269
1.33259
1.3315
1.33088
1.33045
1.3297
1.32899
1.32838
1.32771
1.32703
1.32639
1.32577
1.32515
1.32456
1.324
1.32347
1.32297
1.32251
1.32208
1.32168
1.32132
1.321
1.3207
1.32045
1.32022
1.32002
1.31985
1.31969
1.31956
1.31944
1.31934
1.31925
1.31917
1.31911
1.31905
1.31901
1.31898
1.31896
1.31895
1.31896
1.31899
1.31903
1.31909
1.31916
1.31924
1.31935
1.31946
1.31958
1.31972
1.31986
1.32001
1.32016
1.32032
1.32048
1.32065
1.32083
1.32103
1.32123
1.32145
1.32169
1.32195
1.32222
1.32252
1.32283
1.32316
1.32351
1.32388
1.32427
1.32468
1.32511
1.32557
1.32607
1.3266
1.32717
1.32778
1.32843
1.32913
1.32988
1.33067
1.3315
1.33236
1.33326
1.33419
1.33513
1.3361
1.33707
1.33805
1.33903
1.34002
1.341
1.34198
1.34295
1.34392
1.34489
1.34586
1.34682
1.34777
1.34871
1.34964
1.35056
1.35146
1.35234
1.3532
1.35402
1.35482
1.35558
1.3563
1.35699
1.35764
1.35824
1.3588
1.35932
1.3598
1.36024
1.36063
1.36099
1.3613
1.36158
1.36183
1.36204
1.36221
1.36235
1.36246
1.36254
1.36258
1.3626
1.36258
1.36254
1.36247
1.36237
1.36224
1.36209
1.36192
1.36172
1.3615
1.36127
1.36101
1.36074
1.36045
1.36015
1.35983
1.3595
1.35916
1.35881
1.35845
1.35808
1.35771
1.35733
1.35695
1.35656
1.35618
1.35579
1.35541
1.35504
1.35467
1.3543
1.35395
1.35361
1.35327
1.35295
1.35264
1.35234
1.35205
1.35178
1.35152
1.35127
1.35103
1.3508
1.35059
1.35039
1.3502
1.35003
1.34987
1.34972
1.34959
1.34947
1.34937
1.34929
1.34922
1.34917
1.34914
1.34912
1.34913
1.34915
1.34919
1.34924
1.3493
1.34938
1.34946
1.34954
1.34963
1.34971
1.34978
1.34985
1.3499
1.34993
1.34995
1.34995
1.34993
1.3499
1.34985
1.34978
1.34971
1.34963
1.34954
1.34945
1.34937
1.34928
1.3492
1.34913
1.34907
1.34901
1.34897
1.34893
1.3489
1.34888
1.34887
1.34888
1.34889
1.34891
1.34895
1.349
1.34906
1.34914
1.34924
1.34935
1.34947
1.34961
1.34978
1.34995
1.35015
1.35036
1.35059
1.35084
1.35111
1.35139
1.35168
1.35199
1.35232
1.35266
1.35301
1.35337
1.35374
1.35412
1.3545
1.3549
1.35529
1.35569
1.35608
1.35647
1.35686
1.35724
1.35761
1.35796
1.35831
1.35865
1.35897
1.35927
1.35956
1.35984
1.3601
1.36034
1.36056
1.36076
1.36095
1.36111
1.36126
1.36138
1.36149
1.36157
1.36164
1.36168
1.3617
1.3617
1.36168
1.36164
1.36157
1.36149
1.36137
1.36123
1.36106
1.36086
1.36063
1.36037
1.36007
1.35973
1.35935
1.35893
1.35847
1.35796
1.35741
1.35682
1.35618
1.3555
1.35478
1.35403
1.35324
1.35241
1.35156
1.35068
1.34977
1.34885
1.34791
1.34695
1.34599
1.34502
1.34405
1.34308
1.34212
1.34115
1.3402
1.33925
1.33831
1.33739
1.33647
1.33557
1.33469
1.33381
1.33295
1.3321
1.33127
1.33046
1.32966
1.32888
1.32812
1.32739
1.32667
1.32599
1.32533
1.32469
1.32409
1.32351
1.32295
1.32242
1.32191
1.32141
1.32094
1.32048
1.32003
1.31959
1.31916
1.31874
1.31832
1.31791
1.31751
1.3171
1.3167
1.3163
1.31591
1.31551
1.31512
1.31473
1.31434
1.31395
1.31356
1.31317
1.31278
1.31239
1.312
1.31161
1.31122
1.31084
1.31046
1.31008
1.30971
1.30934
1.30898
1.30864
1.3083
1.30798
1.30767
1.30738
1.3071
1.30685
1.30662
1.30641
1.30623
1.30607
1.30595
1.30586
1.30577
1.30575
1.3058
1.30579
1.30576
1.30599
1.30626
1.30603
1.30605
1.30714
1.30718
1.30528
1.30643
1.31048
1.30603
1.29744
1.30805
1.31715
1.33379
1.33363
1.33292
1.33211
1.33165
1.33108
1.33038
1.32972
1.32911
1.32843
1.32775
1.32711
1.32646
1.32583
1.32522
1.32464
1.32407
1.32354
1.32305
1.32258
1.32215
1.32175
1.32139
1.32107
1.32077
1.32051
1.32028
1.32008
1.3199
1.31975
1.31961
1.31949
1.31938
1.31929
1.31921
1.31914
1.31908
1.31904
1.31901
1.31899
1.31898
1.31899
1.31901
1.31905
1.31911
1.31918
1.31926
1.31936
1.31947
1.31959
1.31972
1.31986
1.32001
1.32016
1.32032
1.32049
1.32066
1.32084
1.32103
1.32124
1.32146
1.3217
1.32196
1.32223
1.32253
1.32284
1.32317
1.32352
1.32389
1.32427
1.32468
1.32512
1.32558
1.32608
1.3266
1.32717
1.32778
1.32843
1.32913
1.32987
1.33065
1.33148
1.33234
1.33323
1.33415
1.33509
1.33605
1.33701
1.33799
1.33897
1.33995
1.34093
1.34191
1.34288
1.34385
1.34482
1.34578
1.34674
1.34769
1.34863
1.34956
1.35048
1.35138
1.35225
1.35311
1.35393
1.35473
1.35549
1.35621
1.3569
1.35755
1.35815
1.35872
1.35924
1.35972
1.36016
1.36056
1.36092
1.36124
1.36152
1.36177
1.36198
1.36215
1.3623
1.36241
1.36249
1.36254
1.36255
1.36254
1.3625
1.36243
1.36233
1.36221
1.36206
1.36189
1.3617
1.36148
1.36125
1.361
1.36073
1.36044
1.36014
1.35983
1.3595
1.35916
1.35882
1.35846
1.35809
1.35772
1.35735
1.35697
1.35658
1.3562
1.35582
1.35544
1.35507
1.3547
1.35434
1.35398
1.35364
1.35331
1.35299
1.35267
1.35238
1.35209
1.35181
1.35155
1.3513
1.35106
1.35084
1.35063
1.35043
1.35024
1.35006
1.3499
1.34976
1.34962
1.34951
1.3494
1.34932
1.34925
1.3492
1.34917
1.34916
1.34916
1.34918
1.34922
1.34927
1.34933
1.3494
1.34948
1.34956
1.34964
1.34972
1.34979
1.34985
1.3499
1.34993
1.34994
1.34994
1.34993
1.34989
1.34984
1.34978
1.34971
1.34963
1.34955
1.34946
1.34938
1.3493
1.34922
1.34915
1.34909
1.34904
1.34899
1.34896
1.34893
1.34891
1.34891
1.34891
1.34893
1.34895
1.34899
1.34904
1.34911
1.34919
1.34928
1.34939
1.34952
1.34966
1.34982
1.35
1.3502
1.35041
1.35064
1.35088
1.35115
1.35142
1.35172
1.35203
1.35235
1.35268
1.35303
1.35339
1.35376
1.35413
1.35451
1.3549
1.35529
1.35568
1.35607
1.35646
1.35684
1.35721
1.35758
1.35793
1.35828
1.35861
1.35892
1.35922
1.35951
1.35978
1.36003
1.36027
1.36048
1.36068
1.36086
1.36102
1.36116
1.36128
1.36138
1.36146
1.36152
1.36156
1.36158
1.36158
1.36155
1.36151
1.36144
1.36135
1.36124
1.36109
1.36092
1.36073
1.3605
1.36023
1.35993
1.3596
1.35922
1.3588
1.35835
1.35785
1.3573
1.35671
1.35609
1.35541
1.3547
1.35396
1.35317
1.35235
1.35151
1.35063
1.34974
1.34882
1.34789
1.34694
1.34599
1.34503
1.34406
1.3431
1.34213
1.34118
1.34023
1.33928
1.33835
1.33743
1.33652
1.33562
1.33473
1.33386
1.333
1.33216
1.33133
1.33051
1.32972
1.32894
1.32818
1.32745
1.32673
1.32605
1.32539
1.32475
1.32414
1.32356
1.32301
1.32247
1.32196
1.32146
1.32098
1.32052
1.32007
1.31963
1.31919
1.31877
1.31835
1.31793
1.31752
1.31712
1.31671
1.31631
1.31592
1.31552
1.31513
1.31473
1.31434
1.31395
1.31356
1.31317
1.31278
1.31238
1.31199
1.31161
1.31122
1.31083
1.31045
1.31008
1.3097
1.30934
1.30898
1.30863
1.3083
1.30797
1.30766
1.30737
1.30709
1.30684
1.3066
1.30639
1.3062
1.30604
1.3059
1.3058
1.30574
1.30568
1.30564
1.3057
1.30576
1.30571
1.30581
1.30618
1.30614
1.30579
1.30637
1.3072
1.30566
1.30435
1.30713
1.30673
1.297
1.29162
1.33299
1.33376
1.33283
1.33196
1.33184
1.33118
1.33037
1.32981
1.3292
1.32846
1.32781
1.32718
1.32652
1.32588
1.32528
1.3247
1.32413
1.3236
1.32311
1.32264
1.32221
1.32181
1.32145
1.32112
1.32083
1.32057
1.32034
1.32013
1.31995
1.31979
1.31965
1.31953
1.31942
1.31932
1.31924
1.31917
1.31911
1.31906
1.31903
1.31901
1.319
1.319
1.31902
1.31906
1.31911
1.31918
1.31926
1.31936
1.31946
1.31958
1.31971
1.31985
1.32
1.32015
1.32031
1.32047
1.32064
1.32083
1.32102
1.32123
1.32145
1.32169
1.32194
1.32222
1.32251
1.32282
1.32315
1.3235
1.32387
1.32426
1.32467
1.3251
1.32556
1.32606
1.32658
1.32715
1.32776
1.3284
1.3291
1.32983
1.33061
1.33143
1.33228
1.33317
1.33408
1.33502
1.33597
1.33693
1.33791
1.33888
1.33986
1.34084
1.34182
1.34279
1.34376
1.34473
1.34569
1.34665
1.3476
1.34854
1.34947
1.35039
1.35128
1.35216
1.35302
1.35384
1.35464
1.3554
1.35613
1.35682
1.35747
1.35807
1.35864
1.35916
1.35965
1.36009
1.36049
1.36085
1.36117
1.36146
1.36171
1.36192
1.3621
1.36224
1.36236
1.36244
1.36249
1.36251
1.3625
1.36246
1.36239
1.3623
1.36218
1.36203
1.36186
1.36167
1.36146
1.36123
1.36099
1.36072
1.36044
1.36014
1.35984
1.35951
1.35918
1.35884
1.35849
1.35813
1.35776
1.35739
1.35701
1.35663
1.35625
1.35587
1.3555
1.35513
1.35476
1.3544
1.35405
1.35371
1.35338
1.35305
1.35274
1.35244
1.35216
1.35188
1.35162
1.35137
1.35113
1.3509
1.35069
1.35049
1.3503
1.35012
1.34996
1.34981
1.34968
1.34956
1.34946
1.34938
1.34931
1.34926
1.34923
1.34921
1.34921
1.34923
1.34927
1.34932
1.34937
1.34944
1.34952
1.3496
1.34967
1.34975
1.34981
1.34987
1.34991
1.34994
1.34995
1.34995
1.34993
1.3499
1.34985
1.34979
1.34972
1.34965
1.34957
1.34949
1.34941
1.34933
1.34926
1.34919
1.34914
1.34909
1.34904
1.34901
1.34899
1.34897
1.34897
1.34898
1.349
1.34903
1.34907
1.34912
1.34919
1.34928
1.34937
1.34948
1.34961
1.34976
1.34992
1.35009
1.35029
1.3505
1.35073
1.35097
1.35123
1.35151
1.3518
1.3521
1.35242
1.35275
1.35309
1.35345
1.35381
1.35418
1.35456
1.35494
1.35532
1.35571
1.35609
1.35647
1.35684
1.35721
1.35757
1.35792
1.35825
1.35858
1.35889
1.35918
1.35946
1.35972
1.35997
1.36019
1.3604
1.36059
1.36076
1.36092
1.36105
1.36117
1.36126
1.36133
1.36139
1.36142
1.36144
1.36143
1.3614
1.36136
1.36129
1.3612
1.36108
1.36094
1.36077
1.36058
1.36035
1.36009
1.35979
1.35946
1.35909
1.35867
1.35822
1.35773
1.35719
1.35661
1.35598
1.35532
1.35462
1.35387
1.3531
1.35229
1.35145
1.35058
1.34969
1.34878
1.34785
1.34691
1.34596
1.34501
1.34405
1.34309
1.34213
1.34118
1.34023
1.33929
1.33836
1.33745
1.33654
1.33564
1.33476
1.33389
1.33303
1.33218
1.33136
1.33054
1.32975
1.32897
1.32821
1.32747
1.32676
1.32608
1.32542
1.32478
1.32417
1.32359
1.32303
1.3225
1.32198
1.32148
1.321
1.32054
1.32008
1.31964
1.3192
1.31877
1.31835
1.31793
1.31752
1.31711
1.31671
1.31631
1.31591
1.31551
1.31511
1.31472
1.31433
1.31394
1.31355
1.31315
1.31276
1.31237
1.31198
1.3116
1.31121
1.31083
1.31044
1.31007
1.3097
1.30933
1.30898
1.30863
1.30829
1.30797
1.30766
1.30736
1.30708
1.30682
1.30659
1.30637
1.30617
1.30602
1.30587
1.30574
1.30568
1.30564
1.30555
1.30554
1.30571
1.3057
1.3055
1.30585
1.30637
1.30564
1.30521
1.30723
1.30705
1.30242
1.30455
1.31151
1.2993
1.28721
1.33326
1.33311
1.33283
1.33248
1.33186
1.33111
1.33056
1.32992
1.3292
1.32853
1.32789
1.32721
1.32656
1.32594
1.32532
1.32473
1.32417
1.32364
1.32314
1.32268
1.32225
1.32185
1.32149
1.32116
1.32087
1.32061
1.32037
1.32016
1.31998
1.31982
1.31968
1.31955
1.31944
1.31934
1.31926
1.31918
1.31912
1.31907
1.31904
1.31901
1.319
1.31901
1.31902
1.31906
1.3191
1.31917
1.31925
1.31934
1.31944
1.31956
1.31968
1.31982
1.31996
1.32011
1.32027
1.32043
1.3206
1.32079
1.32098
1.32118
1.32141
1.32164
1.3219
1.32217
1.32247
1.32278
1.32311
1.32346
1.32383
1.32421
1.32462
1.32506
1.32552
1.32601
1.32654
1.3271
1.3277
1.32835
1.32904
1.32977
1.33054
1.33135
1.3322
1.33308
1.33399
1.33492
1.33587
1.33683
1.3378
1.33877
1.33975
1.34073
1.3417
1.34268
1.34365
1.34462
1.34558
1.34654
1.34749
1.34843
1.34937
1.35028
1.35118
1.35206
1.35292
1.35375
1.35455
1.35531
1.35604
1.35673
1.35738
1.35799
1.35856
1.35909
1.35958
1.36002
1.36042
1.36079
1.36111
1.3614
1.36165
1.36186
1.36204
1.36219
1.3623
1.36238
1.36243
1.36245
1.36244
1.36241
1.36234
1.36225
1.36214
1.362
1.36183
1.36165
1.36144
1.36122
1.36098
1.36072
1.36044
1.36015
1.35985
1.35954
1.35921
1.35887
1.35853
1.35817
1.35781
1.35745
1.35708
1.3567
1.35633
1.35596
1.35558
1.35522
1.35485
1.3545
1.35415
1.35381
1.35348
1.35316
1.35285
1.35255
1.35226
1.35199
1.35172
1.35147
1.35123
1.351
1.35079
1.35058
1.35039
1.35022
1.35005
1.3499
1.34977
1.34965
1.34954
1.34946
1.34939
1.34934
1.3493
1.34929
1.34929
1.34931
1.34934
1.34939
1.34944
1.34951
1.34958
1.34965
1.34972
1.34979
1.34985
1.3499
1.34994
1.34996
1.34997
1.34997
1.34995
1.34991
1.34987
1.34981
1.34975
1.34968
1.3496
1.34953
1.34946
1.34938
1.34932
1.34926
1.3492
1.34916
1.34912
1.34909
1.34907
1.34907
1.34907
1.34908
1.3491
1.34914
1.34918
1.34924
1.34932
1.3494
1.3495
1.34962
1.34975
1.34989
1.35006
1.35023
1.35043
1.35064
1.35086
1.35111
1.35136
1.35163
1.35192
1.35222
1.35253
1.35286
1.3532
1.35354
1.3539
1.35426
1.35463
1.35501
1.35538
1.35576
1.35613
1.3565
1.35687
1.35723
1.35758
1.35792
1.35824
1.35856
1.35886
1.35914
1.35941
1.35966
1.3599
1.36012
1.36032
1.3605
1.36066
1.3608
1.36093
1.36103
1.36112
1.36119
1.36124
1.36127
1.36128
1.36127
1.36124
1.36119
1.36112
1.36102
1.36091
1.36077
1.3606
1.3604
1.36018
1.35992
1.35963
1.3593
1.35893
1.35852
1.35807
1.35758
1.35704
1.35647
1.35585
1.35519
1.35449
1.35375
1.35298
1.35217
1.35134
1.35048
1.34959
1.34869
1.34777
1.34683
1.34589
1.34494
1.34398
1.34303
1.34208
1.34113
1.34019
1.33925
1.33833
1.33741
1.33651
1.33562
1.33474
1.33387
1.33301
1.33217
1.33134
1.33053
1.32974
1.32896
1.3282
1.32747
1.32676
1.32607
1.32541
1.32478
1.32417
1.32358
1.32303
1.32249
1.32197
1.32148
1.32099
1.32053
1.32007
1.31962
1.31919
1.31876
1.31833
1.31791
1.3175
1.31709
1.31668
1.31628
1.31588
1.31549
1.31509
1.3147
1.31431
1.31392
1.31353
1.31314
1.31275
1.31236
1.31198
1.31159
1.3112
1.31082
1.31044
1.31007
1.3097
1.30934
1.30898
1.30863
1.3083
1.30797
1.30766
1.30737
1.30709
1.30683
1.30659
1.30637
1.30617
1.306
1.30587
1.30575
1.30562
1.30558
1.30562
1.30553
1.30546
1.30572
1.30588
1.30549
1.30563
1.30666
1.30619
1.30466
1.30645
1.30826
1.30369
1.30174
1.30716
1.30781
1.33378
1.33335
1.33311
1.33268
1.33187
1.33125
1.33073
1.32996
1.32925
1.32862
1.32793
1.32723
1.3266
1.32596
1.32534
1.32475
1.32419
1.32366
1.32316
1.32269
1.32226
1.32187
1.32151
1.32118
1.32089
1.32062
1.32039
1.32018
1.31999
1.31983
1.31968
1.31956
1.31944
1.31934
1.31926
1.31918
1.31912
1.31907
1.31903
1.31901
1.31899
1.31899
1.31901
1.31904
1.31908
1.31914
1.31922
1.3193
1.3194
1.31951
1.31964
1.31977
1.31991
1.32005
1.32021
1.32037
1.32054
1.32072
1.32091
1.32112
1.32134
1.32158
1.32183
1.32211
1.3224
1.32271
1.32304
1.32339
1.32375
1.32414
1.32455
1.32499
1.32545
1.32594
1.32646
1.32702
1.32763
1.32827
1.32895
1.32968
1.33044
1.33125
1.33209
1.33296
1.33386
1.33479
1.33573
1.33669
1.33765
1.33862
1.3396
1.34058
1.34156
1.34253
1.3435
1.34448
1.34544
1.3464
1.34736
1.3483
1.34924
1.35016
1.35106
1.35194
1.3528
1.35364
1.35444
1.35521
1.35594
1.35664
1.35729
1.35791
1.35848
1.35901
1.3595
1.35995
1.36035
1.36072
1.36104
1.36133
1.36158
1.36179
1.36197
1.36212
1.36224
1.36232
1.36237
1.36239
1.36239
1.36235
1.36229
1.36221
1.36209
1.36196
1.3618
1.36162
1.36142
1.36121
1.36097
1.36072
1.36045
1.36017
1.35988
1.35957
1.35925
1.35892
1.35858
1.35824
1.35789
1.35753
1.35716
1.3568
1.35643
1.35606
1.3557
1.35533
1.35498
1.35462
1.35428
1.35394
1.35361
1.35329
1.35298
1.35269
1.3524
1.35212
1.35186
1.35161
1.35136
1.35113
1.35092
1.35071
1.35052
1.35034
1.35017
1.35002
1.34989
1.34976
1.34966
1.34957
1.3495
1.34945
1.34941
1.34939
1.34939
1.34941
1.34944
1.34948
1.34953
1.34959
1.34966
1.34973
1.34979
1.34985
1.34991
1.34995
1.34998
1.35
1.35
1.35
1.34998
1.34994
1.3499
1.34985
1.34979
1.34973
1.34966
1.34959
1.34952
1.34946
1.3494
1.34934
1.34929
1.34926
1.34922
1.3492
1.34919
1.34919
1.3492
1.34921
1.34924
1.34929
1.34934
1.3494
1.34948
1.34957
1.34968
1.3498
1.34993
1.35008
1.35024
1.35042
1.35061
1.35082
1.35105
1.35129
1.35154
1.35181
1.35209
1.35238
1.35269
1.35301
1.35334
1.35368
1.35402
1.35438
1.35474
1.3551
1.35547
1.35584
1.3562
1.35656
1.35692
1.35727
1.35761
1.35793
1.35825
1.35855
1.35884
1.35912
1.35937
1.35961
1.35984
1.36004
1.36023
1.3604
1.36055
1.36069
1.3608
1.3609
1.36098
1.36103
1.36108
1.3611
1.3611
1.36109
1.36105
1.361
1.36093
1.36083
1.36072
1.36057
1.36041
1.36021
1.35998
1.35972
1.35943
1.3591
1.35873
1.35833
1.35788
1.35739
1.35685
1.35628
1.35566
1.355
1.35431
1.35357
1.3528
1.352
1.35117
1.35031
1.34943
1.34853
1.34762
1.34669
1.34575
1.3448
1.34386
1.34291
1.34196
1.34102
1.34008
1.33915
1.33823
1.33732
1.33642
1.33554
1.33466
1.3338
1.33294
1.33211
1.33128
1.33047
1.32968
1.3289
1.32815
1.32742
1.32671
1.32602
1.32536
1.32473
1.32413
1.32355
1.32299
1.32245
1.32194
1.32144
1.32096
1.32049
1.32004
1.31959
1.31915
1.31872
1.3183
1.31788
1.31746
1.31705
1.31665
1.31625
1.31585
1.31546
1.31506
1.31468
1.31429
1.3139
1.31352
1.31313
1.31274
1.31236
1.31197
1.31159
1.31121
1.31083
1.31045
1.31008
1.30972
1.30936
1.30901
1.30866
1.30833
1.30801
1.3077
1.30741
1.30713
1.30687
1.30663
1.30641
1.30622
1.30604
1.30589
1.30581
1.30571
1.3056
1.30562
1.30571
1.3056
1.30558
1.30601
1.30608
1.30558
1.3062
1.30734
1.30597
1.30518
1.30868
1.30813
1.30331
1.30668
1.30918
1.33438
1.33397
1.3334
1.33271
1.33212
1.33151
1.33075
1.33001
1.32937
1.32865
1.32793
1.32726
1.32661
1.32595
1.32533
1.32474
1.32417
1.32364
1.32314
1.32268
1.32225
1.32185
1.32149
1.32117
1.32087
1.32061
1.32038
1.32017
1.31998
1.31981
1.31967
1.31954
1.31943
1.31933
1.31924
1.31916
1.3191
1.31905
1.31901
1.31898
1.31897
1.31897
1.31898
1.319
1.31905
1.3191
1.31917
1.31925
1.31935
1.31945
1.31957
1.3197
1.31983
1.31998
1.32013
1.32029
1.32046
1.32063
1.32083
1.32103
1.32125
1.32148
1.32174
1.32201
1.3223
1.32261
1.32294
1.32329
1.32365
1.32404
1.32445
1.32488
1.32534
1.32584
1.32636
1.32692
1.32752
1.32815
1.32883
1.32955
1.33031
1.33111
1.33195
1.33281
1.3337
1.33462
1.33556
1.33651
1.33747
1.33844
1.33942
1.34039
1.34137
1.34235
1.34333
1.3443
1.34527
1.34623
1.34719
1.34814
1.34908
1.35001
1.35091
1.3518
1.35267
1.3535
1.35431
1.35509
1.35583
1.35653
1.35719
1.35781
1.35838
1.35892
1.35941
1.35986
1.36027
1.36064
1.36097
1.36125
1.36151
1.36172
1.3619
1.36205
1.36217
1.36225
1.3623
1.36233
1.36233
1.36229
1.36224
1.36215
1.36205
1.36192
1.36177
1.36159
1.3614
1.36119
1.36097
1.36072
1.36047
1.36019
1.35991
1.35961
1.3593
1.35898
1.35866
1.35832
1.35798
1.35763
1.35727
1.35691
1.35655
1.35619
1.35583
1.35548
1.35512
1.35478
1.35444
1.3541
1.35378
1.35346
1.35315
1.35285
1.35257
1.35229
1.35203
1.35177
1.35153
1.3513
1.35108
1.35087
1.35068
1.3505
1.35033
1.35017
1.35004
1.34991
1.3498
1.34971
1.34964
1.34959
1.34955
1.34953
1.34952
1.34954
1.34956
1.3496
1.34965
1.34971
1.34977
1.34983
1.34988
1.34994
1.34998
1.35002
1.35004
1.35006
1.35006
1.35005
1.35002
1.34999
1.34995
1.34991
1.34985
1.34979
1.34973
1.34967
1.34961
1.34956
1.3495
1.34946
1.34942
1.34938
1.34936
1.34934
1.34934
1.34934
1.34936
1.34938
1.34942
1.34947
1.34953
1.3496
1.34968
1.34978
1.34989
1.35001
1.35015
1.3503
1.35047
1.35065
1.35084
1.35105
1.35127
1.3515
1.35175
1.35201
1.35229
1.35258
1.35288
1.35319
1.35351
1.35384
1.35418
1.35452
1.35487
1.35523
1.35558
1.35594
1.35629
1.35664
1.35698
1.35732
1.35765
1.35796
1.35827
1.35856
1.35883
1.35909
1.35934
1.35957
1.35978
1.35997
1.36015
1.36031
1.36045
1.36057
1.36067
1.36076
1.36082
1.36087
1.36091
1.36092
1.36092
1.3609
1.36086
1.3608
1.36072
1.36062
1.3605
1.36036
1.36019
1.35999
1.35976
1.3595
1.3592
1.35887
1.3585
1.35809
1.35764
1.35715
1.35661
1.35603
1.35542
1.35476
1.35406
1.35333
1.35256
1.35176
1.35093
1.35008
1.3492
1.3483
1.34739
1.34647
1.34553
1.34459
1.34365
1.34271
1.34176
1.34083
1.3399
1.33897
1.33806
1.33716
1.33626
1.33538
1.33451
1.33365
1.33281
1.33197
1.33115
1.33035
1.32956
1.32879
1.32804
1.32731
1.3266
1.32592
1.32527
1.32464
1.32404
1.32346
1.32291
1.32238
1.32187
1.32138
1.3209
1.32043
1.31998
1.31953
1.3191
1.31867
1.31824
1.31783
1.31741
1.31701
1.3166
1.31621
1.31581
1.31542
1.31504
1.31465
1.31427
1.31389
1.31351
1.31313
1.31275
1.31237
1.31199
1.31161
1.31124
1.31086
1.31049
1.31013
1.30977
1.30941
1.30906
1.30873
1.3084
1.30808
1.30778
1.30749
1.30721
1.30696
1.30673
1.30651
1.30632
1.30617
1.30602
1.3059
1.30587
1.30583
1.30572
1.3058
1.30603
1.30593
1.30584
1.30652
1.30686
1.30604
1.30665
1.30862
1.3074
1.30583
1.30922
1.31111
1.30816
1.30781
1.33516
1.33447
1.33375
1.33301
1.33239
1.33162
1.33081
1.33013
1.32941
1.32864
1.32794
1.32726
1.32657
1.32591
1.3253
1.32469
1.32412
1.32359
1.32309
1.32263
1.3222
1.32181
1.32145
1.32113
1.32084
1.32057
1.32034
1.32013
1.31994
1.31978
1.31963
1.3195
1.31939
1.31929
1.3192
1.31913
1.31906
1.31901
1.31897
1.31894
1.31893
1.31892
1.31893
1.31896
1.319
1.31905
1.31911
1.31919
1.31928
1.31938
1.31949
1.31961
1.31974
1.31988
1.32003
1.32019
1.32035
1.32053
1.32072
1.32092
1.32114
1.32137
1.32162
1.32189
1.32218
1.32249
1.32282
1.32316
1.32353
1.32391
1.32432
1.32476
1.32522
1.32571
1.32623
1.32679
1.32738
1.32801
1.32869
1.3294
1.33015
1.33094
1.33177
1.33262
1.33351
1.33442
1.33535
1.3363
1.33725
1.33822
1.33919
1.34017
1.34115
1.34213
1.34311
1.34408
1.34506
1.34603
1.34699
1.34794
1.34889
1.34982
1.35073
1.35163
1.3525
1.35334
1.35416
1.35494
1.35568
1.35639
1.35706
1.35769
1.35827
1.35881
1.35931
1.35976
1.36018
1.36055
1.36088
1.36117
1.36142
1.36164
1.36182
1.36197
1.36209
1.36217
1.36223
1.36225
1.36225
1.36223
1.36217
1.36209
1.362
1.36187
1.36173
1.36156
1.36138
1.36118
1.36097
1.36073
1.36049
1.36022
1.35995
1.35966
1.35937
1.35906
1.35874
1.35841
1.35808
1.35774
1.35739
1.35705
1.3567
1.35634
1.35599
1.35564
1.3553
1.35495
1.35462
1.35429
1.35396
1.35365
1.35335
1.35305
1.35277
1.35249
1.35223
1.35197
1.35173
1.3515
1.35128
1.35107
1.35087
1.35069
1.35052
1.35036
1.35022
1.35009
1.34998
1.34989
1.34982
1.34976
1.34972
1.34969
1.34969
1.3497
1.34972
1.34975
1.34979
1.34984
1.3499
1.34995
1.35
1.35004
1.35008
1.35011
1.35013
1.35013
1.35013
1.35012
1.3501
1.35007
1.35003
1.34999
1.34994
1.34989
1.34984
1.34979
1.34973
1.34969
1.34964
1.3496
1.34957
1.34954
1.34953
1.34952
1.34952
1.34953
1.34955
1.34959
1.34963
1.34969
1.34975
1.34983
1.34992
1.35003
1.35014
1.35027
1.35041
1.35056
1.35073
1.35091
1.3511
1.35131
1.35153
1.35176
1.35201
1.35226
1.35253
1.35281
1.3531
1.35341
1.35372
1.35404
1.35436
1.3547
1.35504
1.35538
1.35572
1.35606
1.3564
1.35674
1.35707
1.35739
1.3577
1.35801
1.3583
1.35857
1.35884
1.35908
1.35931
1.35953
1.35973
1.35991
1.36007
1.36021
1.36034
1.36045
1.36054
1.36061
1.36067
1.36071
1.36073
1.36074
1.36073
1.3607
1.36065
1.36059
1.3605
1.3604
1.36027
1.36012
1.35995
1.35975
1.35951
1.35925
1.35895
1.35861
1.35823
1.35782
1.35736
1.35686
1.35632
1.35574
1.35512
1.35446
1.35376
1.35302
1.35225
1.35145
1.35063
1.34977
1.3489
1.348
1.3471
1.34617
1.34525
1.34431
1.34337
1.34244
1.3415
1.34057
1.33965
1.33873
1.33782
1.33692
1.33604
1.33516
1.3343
1.33345
1.33261
1.33178
1.33097
1.33017
1.32939
1.32862
1.32787
1.32715
1.32645
1.32578
1.32513
1.32451
1.32391
1.32334
1.3228
1.32227
1.32177
1.32128
1.32081
1.32035
1.3199
1.31946
1.31903
1.3186
1.31818
1.31777
1.31736
1.31696
1.31656
1.31617
1.31578
1.3154
1.31502
1.31464
1.31427
1.3139
1.31352
1.31315
1.31278
1.31241
1.31204
1.31166
1.3113
1.31093
1.31057
1.31021
1.30985
1.30951
1.30917
1.30883
1.30851
1.3082
1.30791
1.30763
1.30736
1.30711
1.30689
1.30668
1.30649
1.30635
1.30625
1.30613
1.30606
1.3061
1.30612
1.30604
1.30624
1.30658
1.30647
1.30653
1.30749
1.30771
1.30703
1.30838
1.31001
1.30877
1.30909
1.31168
1.31198
1.31262
1.33599
1.33492
1.33416
1.33339
1.33254
1.3317
1.33096
1.33019
1.32938
1.32864
1.32793
1.3272
1.3265
1.32585
1.32522
1.32461
1.32404
1.32351
1.32301
1.32255
1.32212
1.32173
1.32138
1.32106
1.32077
1.3205
1.32027
1.32006
1.31988
1.31971
1.31957
1.31944
1.31933
1.31923
1.31914
1.31907
1.319
1.31895
1.31892
1.31889
1.31887
1.31887
1.31888
1.3189
1.31893
1.31898
1.31904
1.31911
1.3192
1.31929
1.3194
1.31952
1.31964
1.31978
1.31992
1.32007
1.32023
1.32041
1.32059
1.32079
1.32101
1.32124
1.32149
1.32175
1.32204
1.32235
1.32267
1.32301
1.32338
1.32376
1.32417
1.3246
1.32506
1.32554
1.32607
1.32662
1.32721
1.32784
1.32851
1.32921
1.32996
1.33074
1.33155
1.3324
1.33328
1.33418
1.3351
1.33604
1.337
1.33796
1.33893
1.3399
1.34088
1.34187
1.34285
1.34382
1.3448
1.34577
1.34674
1.3477
1.34865
1.34959
1.35051
1.35141
1.35229
1.35315
1.35397
1.35476
1.35552
1.35623
1.35691
1.35755
1.35814
1.35869
1.35919
1.35965
1.36007
1.36045
1.36078
1.36108
1.36133
1.36155
1.36174
1.36189
1.362
1.36209
1.36215
1.36218
1.36218
1.36215
1.36211
1.36203
1.36194
1.36183
1.36169
1.36153
1.36136
1.36117
1.36097
1.36075
1.36051
1.36026
1.36
1.35972
1.35944
1.35914
1.35883
1.35852
1.3582
1.35787
1.35753
1.35719
1.35685
1.35651
1.35617
1.35582
1.35548
1.35515
1.35482
1.35449
1.35418
1.35387
1.35357
1.35327
1.35299
1.35272
1.35246
1.3522
1.35196
1.35173
1.35151
1.3513
1.3511
1.35092
1.35074
1.35059
1.35044
1.35031
1.3502
1.35011
1.35003
1.34997
1.34992
1.3499
1.34989
1.34989
1.34991
1.34993
1.34997
1.35001
1.35006
1.3501
1.35014
1.35018
1.35021
1.35023
1.35024
1.35024
1.35023
1.35022
1.3502
1.35017
1.35014
1.3501
1.35006
1.35002
1.34997
1.34993
1.34989
1.34985
1.34981
1.34978
1.34975
1.34974
1.34973
1.34973
1.34974
1.34976
1.34979
1.34983
1.34988
1.34994
1.35001
1.3501
1.3502
1.35031
1.35043
1.35056
1.3507
1.35086
1.35103
1.35121
1.3514
1.35161
1.35182
1.35205
1.35229
1.35254
1.3528
1.35307
1.35336
1.35365
1.35395
1.35426
1.35457
1.35489
1.35522
1.35555
1.35587
1.3562
1.35653
1.35685
1.35716
1.35747
1.35777
1.35806
1.35833
1.3586
1.35884
1.35908
1.35929
1.35949
1.35968
1.35984
1.35999
1.36012
1.36023
1.36033
1.36041
1.36047
1.36052
1.36054
1.36055
1.36055
1.36053
1.36049
1.36044
1.36037
1.36028
1.36016
1.36003
1.35988
1.35969
1.35948
1.35925
1.35897
1.35867
1.35832
1.35794
1.35752
1.35705
1.35654
1.356
1.35541
1.35478
1.35411
1.35341
1.35266
1.35189
1.35109
1.35026
1.34941
1.34853
1.34764
1.34674
1.34582
1.3449
1.34397
1.34303
1.3421
1.34117
1.34025
1.33933
1.33842
1.33751
1.33662
1.33574
1.33487
1.33401
1.33317
1.33234
1.33152
1.33071
1.32992
1.32914
1.32839
1.32765
1.32693
1.32624
1.32558
1.32494
1.32432
1.32374
1.32318
1.32264
1.32213
1.32163
1.32115
1.32069
1.32023
1.31979
1.31936
1.31893
1.31851
1.3181
1.31769
1.3173
1.3169
1.31651
1.31613
1.31576
1.31538
1.31501
1.31465
1.31428
1.31392
1.31356
1.31319
1.31283
1.31247
1.31211
1.31175
1.31139
1.31103
1.31067
1.31032
1.30998
1.30964
1.30931
1.30899
1.30868
1.30838
1.30809
1.30782
1.30757
1.30733
1.30711
1.30693
1.30677
1.30661
1.30652
1.30649
1.30641
1.30639
1.30656
1.30665
1.30659
1.30694
1.3075
1.30737
1.30749
1.30888
1.30929
1.30855
1.31013
1.31237
1.31193
1.31201
1.31486
1.31692
1.3367
1.33544
1.33455
1.33363
1.33269
1.33185
1.33104
1.33017
1.32936
1.32862
1.32785
1.3271
1.32641
1.32574
1.32509
1.32449
1.32393
1.32339
1.32289
1.32243
1.32201
1.32163
1.32128
1.32096
1.32067
1.32041
1.32018
1.31997
1.31979
1.31963
1.31948
1.31935
1.31924
1.31915
1.31906
1.31899
1.31893
1.31888
1.31884
1.31882
1.3188
1.3188
1.31881
1.31883
1.31886
1.31891
1.31896
1.31903
1.31911
1.3192
1.3193
1.31941
1.31953
1.31966
1.3198
1.31995
1.32011
1.32027
1.32046
1.32065
1.32086
1.32109
1.32133
1.3216
1.32188
1.32218
1.3225
1.32284
1.3232
1.32358
1.32399
1.32442
1.32487
1.32536
1.32588
1.32643
1.32701
1.32764
1.32829
1.32899
1.32973
1.3305
1.33131
1.33215
1.33301
1.3339
1.33482
1.33575
1.3367
1.33766
1.33862
1.3396
1.34058
1.34156
1.34254
1.34352
1.3445
1.34548
1.34645
1.34742
1.34837
1.34932
1.35025
1.35116
1.35205
1.35291
1.35375
1.35455
1.35532
1.35605
1.35673
1.35738
1.35798
1.35854
1.35906
1.35952
1.35995
1.36033
1.36067
1.36097
1.36123
1.36145
1.36164
1.36179
1.36191
1.362
1.36206
1.36209
1.3621
1.36208
1.36204
1.36197
1.36188
1.36178
1.36165
1.3615
1.36134
1.36117
1.36097
1.36076
1.36054
1.3603
1.36005
1.35979
1.35952
1.35923
1.35894
1.35863
1.35832
1.35801
1.35768
1.35735
1.35702
1.35669
1.35636
1.35602
1.35569
1.35536
1.35504
1.35472
1.35441
1.35411
1.35381
1.35352
1.35324
1.35297
1.35271
1.35246
1.35222
1.35199
1.35177
1.35156
1.35136
1.35118
1.35101
1.35085
1.3507
1.35057
1.35046
1.35036
1.35028
1.35021
1.35017
1.35014
1.35012
1.35012
1.35013
1.35015
1.35018
1.35021
1.35025
1.35028
1.35031
1.35034
1.35036
1.35037
1.35038
1.35038
1.35037
1.35035
1.35033
1.3503
1.35028
1.35024
1.35021
1.35018
1.35014
1.35011
1.35007
1.35004
1.35002
1.35
1.34998
1.34997
1.34997
1.34998
1.34999
1.35002
1.35006
1.3501
1.35016
1.35023
1.35031
1.3504
1.35051
1.35062
1.35075
1.35089
1.35103
1.35119
1.35136
1.35154
1.35173
1.35194
1.35215
1.35237
1.35261
1.35285
1.3531
1.35337
1.35364
1.35392
1.35421
1.3545
1.35481
1.35511
1.35542
1.35574
1.35605
1.35636
1.35667
1.35698
1.35728
1.35757
1.35785
1.35812
1.35838
1.35863
1.35886
1.35908
1.35928
1.35946
1.35963
1.35978
1.35992
1.36003
1.36013
1.36021
1.36028
1.36033
1.36036
1.36037
1.36038
1.36036
1.36033
1.36028
1.36022
1.36014
1.36004
1.35993
1.35979
1.35962
1.35943
1.35921
1.35896
1.35868
1.35837
1.35801
1.35762
1.35718
1.35671
1.35619
1.35564
1.35504
1.3544
1.35372
1.35301
1.35226
1.35149
1.35068
1.34985
1.349
1.34813
1.34723
1.34633
1.34542
1.3445
1.34357
1.34265
1.34172
1.34079
1.33987
1.33896
1.33805
1.33716
1.33627
1.3354
1.33453
1.33368
1.33284
1.33202
1.33121
1.33041
1.32963
1.32886
1.3281
1.32738
1.32667
1.32599
1.32533
1.3247
1.3241
1.32352
1.32297
1.32245
1.32194
1.32146
1.32099
1.32054
1.3201
1.31967
1.31924
1.31883
1.31842
1.31802
1.31762
1.31723
1.31685
1.31647
1.3161
1.31574
1.31538
1.31502
1.31467
1.31431
1.31396
1.31361
1.31326
1.31291
1.31256
1.31221
1.31186
1.31151
1.31116
1.31082
1.31048
1.31015
1.30982
1.30951
1.3092
1.3089
1.30861
1.30833
1.30807
1.30783
1.30761
1.30741
1.30723
1.3071
1.30699
1.30688
1.30686
1.3069
1.30688
1.30695
1.30724
1.30741
1.30743
1.308
1.30867
1.30861
1.30911
1.31064
1.31108
1.31115
1.31284
1.31452
1.31545
1.31682
1.31847
1.33726
1.33587
1.33484
1.33379
1.33285
1.33193
1.331
1.33014
1.32933
1.32851
1.32771
1.32698
1.32627
1.32558
1.32494
1.32434
1.32377
1.32323
1.32274
1.32229
1.32187
1.32149
1.32115
1.32083
1.32055
1.32029
1.32007
1.31986
1.31968
1.31952
1.31938
1.31925
1.31914
1.31904
1.31896
1.31889
1.31884
1.31879
1.31876
1.31873
1.31872
1.31872
1.31873
1.31875
1.31878
1.31882
1.31888
1.31894
1.31902
1.3191
1.3192
1.3193
1.31942
1.31954
1.31967
1.31981
1.31997
1.32013
1.32031
1.3205
1.3207
1.32092
1.32116
1.32142
1.3217
1.322
1.32231
1.32265
1.323
1.32339
1.32379
1.32421
1.32467
1.32515
1.32566
1.32621
1.32679
1.3274
1.32805
1.32875
1.32947
1.33023
1.33103
1.33185
1.33271
1.33359
1.3345
1.33542
1.33636
1.33731
1.33828
1.33925
1.34023
1.34121
1.34219
1.34317
1.34416
1.34514
1.34612
1.34709
1.34805
1.349
1.34994
1.35086
1.35176
1.35264
1.35349
1.3543
1.35508
1.35583
1.35653
1.35719
1.35781
1.35838
1.35891
1.35938
1.35982
1.36021
1.36056
1.36086
1.36112
1.36135
1.36154
1.36169
1.36182
1.36191
1.36197
1.36201
1.36202
1.362
1.36196
1.36191
1.36183
1.36173
1.36161
1.36148
1.36133
1.36116
1.36098
1.36078
1.36057
1.36035
1.36011
1.35986
1.3596
1.35933
1.35905
1.35876
1.35846
1.35815
1.35784
1.35752
1.3572
1.35688
1.35656
1.35623
1.35591
1.35559
1.35527
1.35496
1.35466
1.35436
1.35407
1.35379
1.35352
1.35325
1.353
1.35275
1.35251
1.35228
1.35207
1.35186
1.35166
1.35148
1.3513
1.35114
1.351
1.35087
1.35075
1.35065