# vtk DataFile Version 2.0
LBE two cylinders
ASCII
DATASET STRUCTURED_POINTS
DIMENSIONS 400 100 1
ASPECT_RATIO 1 1 1
ORIGIN 0 0 0
POINT_DATA 40000
SCALARS rho double 1
LOOKUP_TABLE default
1.33861
1.33589
1.33616
1.33617
1.33524
1.33471
1.33437
1.33369
1.33305
1.3325
1.33189
1.33126
1.33067
1.33008
1.32949
1.32892
1.32837
1.32783
1.3273
1.3268
1.32632
1.32585
1.3254
1.32498
1.32457
1.32418
1.32381
1.32346
1.32313
1.32282
1.32253
1.32225
1.32199
1.32176
1.32153
1.32133
1.32114
1.32097
1.32082
1.32068
1.32056
1.32046
1.32037
1.32029
1.32024
1.32019
1.32017
1.32016
1.32016
1.32018
1.32022
1.32028
1.32035
1.32044
1.32055
1.32067
1.32081
1.32097
1.32115
1.32135
1.32157
1.32181
1.32208
1.32236
1.32267
1.323
1.32335
1.32373
1.32413
1.32456
1.32502
1.3255
1.326
1.32654
1.3271
1.32769
1.32831
1.32896
1.32963
1.33033
1.33106
1.33182
1.3326
1.3334
1.33423
1.33508
1.33596
1.33685
1.33776
1.33869
1.33964
1.34059
1.34156
1.34253
1.34351
1.34449
1.34547
1.34645
1.34742
1.34838
1.34934
1.35028
1.3512
1.35211
1.35299
1.35386
1.35469
1.3555
1.35628
1.35703
1.35775
1.35844
1.35909
1.35971
1.36029
1.36084
1.36135
1.36183
1.36228
1.36269
1.36307
1.36343
1.36375
1.36404
1.36431
1.36456
1.36478
1.36498
1.36516
1.36532
1.36546
1.36559
1.3657
1.3658
1.36589
1.36596
1.36603
1.36608
1.36613
1.36618
1.36621
1.36624
1.36627
1.36629
1.3663
1.36632
1.36633
1.36634
1.36634
1.36635
1.36635
1.36635
1.36635
1.36635
1.36635
1.36635
1.36635
1.36634
1.36634
1.36634
1.36633
1.36633
1.36633
1.36632
1.36632
1.36632
1.36632
1.36631
1.36631
1.36631
1.36631
1.3663
1.3663
1.3663
1.3663
1.3663
1.3663
1.3663
1.3663
1.3663
1.3663
1.3663
1.36631
1.36631
1.36631
1.36631
1.36632
1.36632
1.36633
1.36633
1.36634
1.36634
1.36635
1.36636
1.36637
1.36638
1.36639
1.3664
1.36641
1.36642
1.36644
1.36645
1.36646
1.36648
1.3665
1.36651
1.36653
1.36655
1.36657
1.36659
1.36662
1.36664
1.36666
1.36669
1.36671
1.36674
1.36677
1.36679
1.36682
1.36685
1.36687
1.3669
1.36693
1.36696
1.36698
1.36701
1.36703
1.36706
1.36708
1.3671
1.36712
1.36713
1.36715
1.36716
1.36716
1.36717
1.36717
1.36716
1.36716
1.36714
1.36713
1.3671
1.36707
1.36704
1.367
1.36695
1.3669
1.36685
1.36678
1.36671
1.36664
1.36656
1.36647
1.36638
1.36628
1.36618
1.36607
1.36596
1.36584
1.36572
1.36559
1.36546
1.36533
1.36519
1.36505
1.36491
1.36476
1.3646
1.36444
1.36428
1.36411
1.36393
1.36375
1.36355
1.36335
1.36313
1.36291
1.36266
1.3624
1.36213
1.36183
1.36152
1.36118
1.36082
1.36043
1.36001
1.35957
1.35909
1.35858
1.35805
1.35748
1.35687
1.35624
1.35557
1.35488
1.35415
1.3534
1.35262
1.35182
1.35099
1.35015
1.34928
1.3484
1.34751
1.34661
1.3457
1.34478
1.34386
1.34294
1.34202
1.3411
1.34019
1.33928
1.33837
1.33748
1.3366
1.33573
1.33487
1.33402
1.33319
1.33237
1.33157
1.33078
1.33001
1.32925
1.32852
1.32779
1.32709
1.3264
1.32573
1.32508
1.32444
1.32382
1.32321
1.32263
1.32205
1.3215
1.32095
1.32043
1.31992
1.31942
1.31894
1.31847
1.31802
1.31758
1.31715
1.31674
1.31634
1.31595
1.31557
1.31521
1.31486
1.31452
1.31419
1.31387
1.31357
1.31327
1.31299
1.31271
1.31245
1.3122
1.31195
1.31172
1.3115
1.31128
1.31108
1.31088
1.3107
1.31052
1.31035
1.31019
1.31005
1.30991
1.30978
1.30965
1.30954
1.30944
1.30935
1.30926
1.30918
1.30913
1.30908
1.30901
1.30899
1.30902
1.30898
1.30888
1.30903
1.3092
1.30886
1.30874
1.30968
1.30957
1.30752
1.30849
1.31238
1.30777
1.29904
1.30958
1.31863
1.33673
1.33687
1.33638
1.33571
1.3354
1.3349
1.3343
1.33371
1.33316
1.33254
1.33192
1.33133
1.33072
1.33012
1.32954
1.32897
1.32841
1.32787
1.32735
1.32685
1.32636
1.32589
1.32545
1.32502
1.32461
1.32422
1.32385
1.3235
1.32317
1.32285
1.32256
1.32228
1.32203
1.32179
1.32157
1.32136
1.32117
1.321
1.32085
1.32071
1.32059
1.32048
1.32039
1.32032
1.32026
1.32022
1.32019
1.32018
1.32019
1.32021
1.32025
1.3203
1.32037
1.32046
1.32057
1.32069
1.32083
1.32099
1.32117
1.32137
1.32159
1.32183
1.32209
1.32237
1.32268
1.32301
1.32336
1.32374
1.32414
1.32456
1.32502
1.3255
1.326
1.32654
1.3271
1.32768
1.3283
1.32894
1.32961
1.33031
1.33104
1.33179
1.33257
1.33337
1.3342
1.33505
1.33592
1.33681
1.33772
1.33865
1.33959
1.34054
1.3415
1.34247
1.34345
1.34443
1.34541
1.34638
1.34736
1.34832
1.34927
1.35021
1.35114
1.35204
1.35293
1.35379
1.35463
1.35544
1.35622
1.35697
1.35769
1.35838
1.35903
1.35965
1.36024
1.36079
1.36131
1.36179
1.36224
1.36265
1.36304
1.36339
1.36372
1.36402
1.36429
1.36453
1.36476
1.36496
1.36514
1.3653
1.36544
1.36557
1.36569
1.36579
1.36588
1.36595
1.36602
1.36608
1.36613
1.36617
1.3662
1.36624
1.36626
1.36628
1.3663
1.36631
1.36632
1.36633
1.36634
1.36634
1.36635
1.36635
1.36635
1.36635
1.36635
1.36634
1.36634
1.36634
1.36634
1.36633
1.36633
1.36633
1.36632
1.36632
1.36632
1.36631
1.36631
1.36631
1.36631
1.3663
1.3663
1.3663
1.3663
1.3663
1.3663
1.36629
1.36629
1.36629
1.36629
1.36629
1.3663
1.3663
1.3663
1.3663
1.3663
1.36631
1.36631
1.36631
1.36632
1.36632
1.36633
1.36634
1.36634
1.36635
1.36636
1.36637
1.36638
1.36639
1.3664
1.36641
1.36642
1.36644
1.36645
1.36647
1.36648
1.3665
1.36652
1.36654
1.36656
1.36658
1.3666
1.36662
1.36665
1.36667
1.3667
1.36672
1.36675
1.36677
1.3668
1.36683
1.36685
1.36688
1.36691
1.36693
1.36696
1.36699
1.36701
1.36703
1.36705
1.36707
1.36709
1.36711
1.36712
1.36713
1.36714
1.36714
1.36714
1.36714
1.36713
1.36711
1.3671
1.36707
1.36704
1.36701
1.36697
1.36692
1.36687
1.36682
1.36675
1.36668
1.36661
1.36653
1.36644
1.36635
1.36625
1.36614
1.36604
1.36592
1.36581
1.36568
1.36556
1.36543
1.36529
1.36515
1.36501
1.36486
1.36471
1.36455
1.36439
1.36423
1.36405
1.36387
1.36369
1.36349
1.36328
1.36307
1.36284
1.36259
1.36233
1.36205
1.36176
1.36144
1.3611
1.36074
1.36035
1.35993
1.35949
1.35901
1.35851
1.35797
1.3574
1.3568
1.35617
1.35551
1.35482
1.3541
1.35335
1.35257
1.35177
1.35095
1.35011
1.34925
1.34838
1.34749
1.34659
1.34569
1.34478
1.34386
1.34294
1.34203
1.34111
1.3402
1.3393
1.3384
1.33751
1.33663
1.33576
1.3349
1.33406
1.33323
1.33241
1.33161
1.33083
1.33006
1.3293
1.32856
1.32784
1.32714
1.32645
1.32578
1.32513
1.32449
1.32387
1.32326
1.32267
1.3221
1.32154
1.321
1.32047
1.31996
1.31946
1.31898
1.31851
1.31806
1.31761
1.31719
1.31677
1.31637
1.31598
1.3156
1.31524
1.31488
1.31454
1.31421
1.31389
1.31358
1.31329
1.313
1.31273
1.31246
1.3122
1.31196
1.31172
1.3115
1.31128
1.31108
1.31088
1.31069
1.31051
1.31034
1.31018
1.31003
1.30989
1.30975
1.30963
1.30951
1.3094
1.3093
1.30921
1.30913
1.30905
1.309
1.30896
1.3089
1.30884
1.30887
1.30887
1.30875
1.30875
1.309
1.30883
1.30834
1.30876
1.30943
1.30772
1.30624
1.30889
1.30834
1.29847
1.293
1.33606
1.33705
1.33633
1.33562
1.33559
1.33502
1.3343
1.3338
1.33325
1.33257
1.33197
1.33138
1.33076
1.33016
1.32958
1.329
1.32844
1.3279
1.32738
1.32687
1.32638
1.32591
1.32546
1.32503
1.32462
1.32423
1.32386
1.32351
1.32318
1.32287
1.32257
1.3223
1.32204
1.3218
1.32158
1.32137
1.32118
1.32101
1.32086
1.32072
1.3206
1.32049
1.3204
1.32033
1.32027
1.32023
1.3202
1.32019
1.32019
1.32021
1.32025
1.32031
1.32038
1.32046
1.32057
1.32069
1.32083
1.32099
1.32117
1.32137
1.32158
1.32182
1.32208
1.32236
1.32267
1.32299
1.32334
1.32372
1.32412
1.32454
1.32499
1.32547
1.32597
1.3265
1.32706
1.32765
1.32826
1.3289
1.32957
1.33027
1.33099
1.33174
1.33251
1.33331
1.33414
1.33499
1.33586
1.33675
1.33765
1.33858
1.33952
1.34047
1.34143
1.3424
1.34338
1.34436
1.34534
1.34632
1.34729
1.34825
1.34921
1.35015
1.35108
1.35199
1.35288
1.35374
1.35458
1.3554
1.35618
1.35694
1.35766
1.35835
1.35901
1.35963
1.36022
1.36077
1.36129
1.36178
1.36223
1.36264
1.36303
1.36339
1.36371
1.36401
1.36429
1.36453
1.36476
1.36496
1.36514
1.3653
1.36544
1.36557
1.36569
1.36579
1.36587
1.36595
1.36602
1.36608
1.36613
1.36617
1.3662
1.36623
1.36626
1.36628
1.3663
1.36631
1.36632
1.36633
1.36634
1.36634
1.36634
1.36634
1.36634
1.36634
1.36634
1.36634
1.36634
1.36634
1.36633
1.36633
1.36633
1.36632
1.36632
1.36632
1.36631
1.36631
1.36631
1.3663
1.3663
1.3663
1.3663
1.36629
1.36629
1.36629
1.36629
1.36629
1.36629
1.36629
1.36629
1.36629
1.36629
1.36629
1.36629
1.36629
1.3663
1.3663
1.3663
1.36631
1.36631
1.36631
1.36632
1.36633
1.36633
1.36634
1.36635
1.36636
1.36637
1.36638
1.36639
1.3664
1.36641
1.36643
1.36644
1.36645
1.36647
1.36649
1.36651
1.36652
1.36654
1.36656
1.36659
1.36661
1.36663
1.36665
1.36668
1.3667
1.36673
1.36675
1.36678
1.36681
1.36683
1.36686
1.36689
1.36691
1.36694
1.36696
1.36699
1.36701
1.36703
1.36705
1.36707
1.36708
1.36709
1.3671
1.36711
1.36711
1.36711
1.36711
1.3671
1.36709
1.36707
1.36705
1.36702
1.36698
1.36694
1.3669
1.36685
1.36679
1.36673
1.36666
1.36658
1.3665
1.36641
1.36632
1.36622
1.36612
1.36601
1.36589
1.36577
1.36565
1.36552
1.36539
1.36525
1.36511
1.36497
1.36482
1.36467
1.36451
1.36435
1.36418
1.364
1.36382
1.36363
1.36343
1.36323
1.36301
1.36278
1.36253
1.36227
1.36199
1.36169
1.36137
1.36103
1.36067
1.36028
1.35987
1.35942
1.35895
1.35844
1.35791
1.35734
1.35674
1.35611
1.35545
1.35476
1.35404
1.3533
1.35253
1.35173
1.35091
1.35007
1.34922
1.34835
1.34746
1.34657
1.34567
1.34476
1.34384
1.34293
1.34202
1.3411
1.3402
1.33929
1.3384
1.33751
1.33663
1.33577
1.33491
1.33407
1.33324
1.33243
1.33163
1.33085
1.33008
1.32933
1.32859
1.32787
1.32717
1.32648
1.32581
1.32516
1.32452
1.3239
1.32329
1.3227
1.32213
1.32157
1.32103
1.3205
1.31999
1.31949
1.31901
1.31854
1.31808
1.31764
1.31721
1.31679
1.31639
1.316
1.31562
1.31525
1.3149
1.31456
1.31423
1.3139
1.3136
1.3133
1.31301
1.31273
1.31247
1.31221
1.31196
1.31172
1.3115
1.31128
1.31107
1.31087
1.31068
1.3105
1.31033
1.31016
1.31001
1.30986
1.30973
1.3096
1.30948
1.30936
1.30926
1.30916
1.30909
1.309
1.30892
1.30888
1.30885
1.30874
1.30869
1.3088
1.30872
1.30843
1.30867
1.30906
1.30819
1.30761
1.30946
1.30912
1.30433
1.30632
1.31315
1.30079
1.28866
1.33649
1.33656
1.33643
1.33617
1.33564
1.33497
1.3345
1.33391
1.33324
1.33263
1.33203
1.33139
1.33078
1.33018
1.32959
1.329
1.32845
1.3279
1.32737
1.32686
1.32638
1.32591
1.32545
1.32502
1.32461
1.32422
1.32385
1.3235
1.32317
1.32286
1.32256
1.32229
1.32203
1.32179
1.32157
1.32136
1.32117
1.321
1.32085
1.32071
1.32059
1.32048
1.32039
1.32032
1.32026
1.32022
1.32019
1.32018
1.32018
1.3202
1.32024
1.32029
1.32036
1.32045
1.32055
1.32067
1.32081
1.32097
1.32115
1.32134
1.32156
1.32179
1.32205
1.32233
1.32263
1.32296
1.3233
1.32367
1.32407
1.32449
1.32494
1.32541
1.32591
1.32644
1.32699
1.32758
1.32819
1.32882
1.32949
1.33018
1.3309
1.33165
1.33243
1.33322
1.33405
1.33489
1.33576
1.33665
1.33756
1.33849
1.33943
1.34038
1.34134
1.34232
1.34329
1.34428
1.34526
1.34624
1.34722
1.34819
1.34914
1.35009
1.35102
1.35194
1.35283
1.3537
1.35455
1.35537
1.35616
1.35692
1.35765
1.35834
1.359
1.35963
1.36022
1.36078
1.3613
1.36179
1.36224
1.36266
1.36305
1.3634
1.36373
1.36403
1.3643
1.36455
1.36477
1.36497
1.36515
1.36531
1.36546
1.36558
1.3657
1.3658
1.36588
1.36596
1.36603
1.36608
1.36613
1.36617
1.36621
1.36624
1.36626
1.36628
1.3663
1.36631
1.36632
1.36633
1.36633
1.36634
1.36634
1.36634
1.36634
1.36634
1.36634
1.36634
1.36633
1.36633
1.36633
1.36632
1.36632
1.36632
1.36631
1.36631
1.36631
1.3663
1.3663
1.3663
1.36629
1.36629
1.36629
1.36629
1.36628
1.36628
1.36628
1.36628
1.36628
1.36628
1.36628
1.36628
1.36628
1.36628
1.36628
1.36628
1.36629
1.36629
1.36629
1.3663
1.3663
1.3663
1.36631
1.36632
1.36632
1.36633
1.36634
1.36635
1.36635
1.36636
1.36637
1.36639
1.3664
1.36641
1.36643
1.36644
1.36646
1.36647
1.36649
1.36651
1.36653
1.36655
1.36657
1.36659
1.36661
1.36663
1.36666
1.36668
1.36671
1.36673
1.36676
1.36678
1.36681
1.36684
1.36686
1.36689
1.36691
1.36694
1.36696
1.36698
1.36701
1.36702
1.36704
1.36706
1.36707
1.36708
1.36709
1.36709
1.36709
1.36709
1.36708
1.36706
1.36705
1.36702
1.36699
1.36696
1.36692
1.36688
1.36682
1.36677
1.3667
1.36663
1.36656
1.36647
1.36639
1.36629
1.36619
1.36609
1.36598
1.36586
1.36574
1.36562
1.36549
1.36536
1.36522
1.36508
1.36493
1.36478
1.36463
1.36447
1.36431
1.36414
1.36396
1.36378
1.36359
1.36339
1.36318
1.36296
1.36273
1.36248
1.36222
1.36194
1.36164
1.36132
1.36098
1.36061
1.36022
1.35981
1.35936
1.35889
1.35838
1.35785
1.35728
1.35668
1.35605
1.35539
1.3547
1.35398
1.35323
1.35246
1.35166
1.35084
1.35001
1.34915
1.34828
1.3474
1.34651
1.3456
1.3447
1.34379
1.34287
1.34196
1.34105
1.34015
1.33925
1.33836
1.33747
1.3366
1.33573
1.33488
1.33404
1.33322
1.33241
1.33161
1.33083
1.33007
1.32932
1.32858
1.32787
1.32716
1.32648
1.32581
1.32516
1.32452
1.32391
1.3233
1.32271
1.32214
1.32158
1.32104
1.32052
1.32
1.31951
1.31902
1.31855
1.3181
1.31765
1.31723
1.31681
1.31641
1.31601
1.31564
1.31527
1.31491
1.31457
1.31424
1.31392
1.31361
1.31331
1.31302
1.31274
1.31247
1.31221
1.31197
1.31173
1.3115
1.31128
1.31107
1.31087
1.31068
1.3105
1.31032
1.31016
1.31
1.30985
1.30971
1.30958
1.30946
1.30934
1.30924
1.30914
1.30904
1.30898
1.30891
1.30881
1.30877
1.30879
1.30867
1.30855
1.30872
1.30879
1.30829
1.30831
1.30919
1.30858
1.30689
1.30853
1.31018
1.30544
1.30339
1.30875
1.30939
1.33727
1.33697
1.33681
1.33643
1.3357
1.33514
1.33467
1.33394
1.33328
1.3327
1.33204
1.33139
1.33078
1.33017
1.32956
1.32898
1.32842
1.32787
1.32734
1.32683
1.32634
1.32586
1.32541
1.32498
1.32457
1.32418
1.32381
1.32346
1.32313
1.32282
1.32252
1.32225
1.32199
1.32175
1.32153
1.32133
1.32114
1.32097
1.32082
1.32068
1.32056
1.32045
1.32036
1.32029
1.32023
1.32019
1.32016
1.32015
1.32015
1.32017
1.32021
1.32026
1.32033
1.32041
1.32051
1.32063
1.32077
1.32093
1.3211
1.32129
1.32151
1.32174
1.322
1.32227
1.32257
1.32289
1.32323
1.3236
1.324
1.32441
1.32486
1.32533
1.32582
1.32635
1.3269
1.32747
1.32808
1.32872
1.32938
1.33007
1.33079
1.33153
1.3323
1.3331
1.33392
1.33477
1.33564
1.33653
1.33744
1.33836
1.33931
1.34026
1.34123
1.3422
1.34319
1.34417
1.34516
1.34615
1.34713
1.34811
1.34907
1.35002
1.35096
1.35188
1.35279
1.35366
1.35452
1.35534
1.35614
1.35691
1.35764
1.35835
1.35901
1.35964
1.36024
1.3608
1.36133
1.36182
1.36227
1.36269
1.36308
1.36344
1.36376
1.36406
1.36433
1.36458
1.3648
1.365
1.36518
1.36534
1.36548
1.36561
1.36572
1.36581
1.3659
1.36597
1.36604
1.36609
1.36614
1.36618
1.36621
1.36624
1.36626
1.36628
1.3663
1.36631
1.36632
1.36633
1.36633
1.36634
1.36634
1.36634
1.36634
1.36634
1.36633
1.36633
1.36633
1.36633
1.36632
1.36632
1.36631
1.36631
1.36631
1.3663
1.3663
1.3663
1.36629
1.36629
1.36629
1.36628
1.36628
1.36628
1.36628
1.36628
1.36627
1.36627
1.36627
1.36627
1.36627
1.36627
1.36627
1.36627
1.36627
1.36627
1.36628
1.36628
1.36628
1.36629
1.36629
1.36629
1.3663
1.3663
1.36631
1.36632
1.36632
1.36633
1.36634
1.36635
1.36636
1.36637
1.36638
1.3664
1.36641
1.36642
1.36644
1.36646
1.36647
1.36649
1.36651
1.36653
1.36655
1.36657
1.36659
1.36661
1.36664
1.36666
1.36669
1.36671
1.36674
1.36676
1.36679
1.36681
1.36684
1.36687
1.36689
1.36691
1.36694
1.36696
1.36698
1.367
1.36702
1.36703
1.36705
1.36706
1.36706
1.36707
1.36707
1.36706
1.36705
1.36704
1.36702
1.367
1.36697
1.36694
1.3669
1.36685
1.3668
1.36674
1.36668
1.36661
1.36653
1.36645
1.36636
1.36627
1.36617
1.36606
1.36595
1.36584
1.36572
1.36559
1.36546
1.36533
1.36519
1.36505
1.3649
1.36475
1.3646
1.36444
1.36427
1.3641
1.36393
1.36374
1.36355
1.36335
1.36314
1.36292
1.36269
1.36244
1.36217
1.36189
1.36159
1.36127
1.36093
1.36056
1.36017
1.35975
1.3593
1.35882
1.35831
1.35777
1.3572
1.3566
1.35596
1.3553
1.3546
1.35388
1.35313
1.35235
1.35156
1.35074
1.3499
1.34904
1.34817
1.34728
1.34639
1.34549
1.34458
1.34367
1.34276
1.34185
1.34095
1.34004
1.33915
1.33826
1.33738
1.3365
1.33564
1.3348
1.33396
1.33314
1.33234
1.33154
1.33077
1.33001
1.32926
1.32853
1.32782
1.32712
1.32644
1.32578
1.32513
1.3245
1.32389
1.32329
1.3227
1.32213
1.32158
1.32104
1.32052
1.32001
1.31951
1.31903
1.31856
1.31811
1.31767
1.31724
1.31682
1.31642
1.31603
1.31565
1.31528
1.31493
1.31459
1.31425
1.31393
1.31362
1.31332
1.31304
1.31276
1.31249
1.31223
1.31198
1.31175
1.31152
1.3113
1.31109
1.31089
1.31069
1.31051
1.31034
1.31017
1.31002
1.30987
1.30973
1.3096
1.30948
1.30936
1.30926
1.30917
1.30907
1.30898
1.30894
1.30888
1.30878
1.30878
1.30883
1.30867
1.30858
1.30891
1.30889
1.30826
1.30873
1.30974
1.30821
1.30726
1.31065
1.30995
1.30502
1.30835
1.31088
1.33818
1.33775
1.3372
1.33655
1.336
1.33541
1.33469
1.33399
1.33338
1.3327
1.33201
1.33138
1.33075
1.33011
1.32951
1.32892
1.32835
1.32779
1.32726
1.32675
1.32626
1.32579
1.32534
1.32491
1.3245
1.32411
1.32374
1.32339
1.32306
1.32275
1.32246
1.32219
1.32193
1.32169
1.32148
1.32127
1.32109
1.32092
1.32077
1.32063
1.32051
1.3204
1.32032
1.32024
1.32018
1.32014
1.32011
1.3201
1.3201
1.32012
1.32016
1.32021
1.32027
1.32036
1.32046
1.32058
1.32071
1.32086
1.32104
1.32123
1.32144
1.32167
1.32192
1.32219
1.32248
1.3228
1.32314
1.3235
1.32389
1.32431
1.32475
1.32521
1.3257
1.32622
1.32677
1.32734
1.32795
1.32857
1.32923
1.32992
1.33064
1.33138
1.33215
1.33295
1.33377
1.33461
1.33548
1.33637
1.33728
1.33821
1.33916
1.34012
1.34109
1.34207
1.34306
1.34405
1.34504
1.34604
1.34703
1.34801
1.34898
1.34995
1.35089
1.35183
1.35274
1.35362
1.35449
1.35532
1.35613
1.35691
1.35765
1.35836
1.35903
1.35967
1.36027
1.36084
1.36137
1.36186
1.36232
1.36274
1.36313
1.36349
1.36381
1.36411
1.36438
1.36462
1.36484
1.36504
1.36522
1.36537
1.36551
1.36564
1.36574
1.36584
1.36592
1.36599
1.36605
1.36611
1.36615
1.36619
1.36622
1.36625
1.36627
1.36629
1.3663
1.36631
1.36632
1.36633
1.36633
1.36633
1.36634
1.36634
1.36633
1.36633
1.36633
1.36633
1.36632
1.36632
1.36632
1.36631
1.36631
1.3663
1.3663
1.3663
1.36629
1.36629
1.36629
1.36628
1.36628
1.36628
1.36627
1.36627
1.36627
1.36627
1.36627
1.36626
1.36626
1.36626
1.36626
1.36626
1.36626
1.36626
1.36626
1.36626
1.36627
1.36627
1.36627
1.36627
1.36628
1.36628
1.36629
1.36629
1.3663
1.3663
1.36631
1.36632
1.36633
1.36634
1.36635
1.36636
1.36637
1.36638
1.36639
1.36641
1.36642
1.36644
1.36645
1.36647
1.36649
1.36651
1.36653
1.36655
1.36657
1.36659
1.36662
1.36664
1.36666
1.36669
1.36671
1.36674
1.36676
1.36679
1.36682
1.36684
1.36687
1.36689
1.36691
1.36694
1.36696
1.36698
1.36699
1.36701
1.36702
1.36703
1.36704
1.36704
1.36704
1.36704
1.36703
1.36702
1.367
1.36698
1.36695
1.36691
1.36687
1.36683
1.36678
1.36672
1.36666
1.36659
1.36651
1.36643
1.36634
1.36625
1.36615
1.36604
1.36593
1.36581
1.36569
1.36557
1.36544
1.36531
1.36517
1.36503
1.36488
1.36473
1.36457
1.36441
1.36425
1.36408
1.3639
1.36372
1.36353
1.36333
1.36311
1.36289
1.36266
1.36241
1.36214
1.36186
1.36155
1.36123
1.36088
1.36051
1.36011
1.35969
1.35923
1.35875
1.35823
1.35768
1.3571
1.35649
1.35585
1.35518
1.35448
1.35374
1.35299
1.35221
1.3514
1.35058
1.34973
1.34887
1.348
1.34711
1.34622
1.34532
1.34441
1.3435
1.34259
1.34168
1.34077
1.33987
1.33898
1.33809
1.33721
1.33635
1.33549
1.33465
1.33382
1.333
1.3322
1.33142
1.33065
1.32989
1.32916
1.32843
1.32773
1.32704
1.32637
1.32571
1.32507
1.32445
1.32384
1.32324
1.32267
1.3221
1.32155
1.32102
1.3205
1.32
1.3195
1.31903
1.31856
1.31811
1.31768
1.31725
1.31684
1.31644
1.31605
1.31567
1.31531
1.31496
1.31461
1.31428
1.31397
1.31366
1.31336
1.31307
1.31279
1.31253
1.31227
1.31202
1.31179
1.31156
1.31134
1.31113
1.31093
1.31074
1.31056
1.31039
1.31022
1.31007
1.30992
1.30978
1.30965
1.30954
1.30943
1.30932
1.30924
1.30917
1.30908
1.30901
1.30901
1.30898
1.30886
1.3089
1.30908
1.30891
1.30873
1.3093
1.30952
1.30857
1.30903
1.31086
1.30947
1.30778
1.31107
1.31289
1.30988
1.30956
1.33923
1.33842
1.33767
1.33693
1.33629
1.33553
1.33475
1.33409
1.3334
1.33265
1.33198
1.33133
1.33066
1.33002
1.32942
1.32882
1.32824
1.32768
1.32715
1.32663
1.32614
1.32567
1.32522
1.32479
1.32439
1.324
1.32363
1.32329
1.32296
1.32265
1.32237
1.3221
1.32184
1.32161
1.32139
1.32119
1.32101
1.32084
1.32069
1.32056
1.32044
1.32034
1.32025
1.32017
1.32012
1.32007
1.32005
1.32003
1.32004
1.32006
1.32009
1.32014
1.3202
1.32029
1.32038
1.3205
1.32063
1.32078
1.32095
1.32114
1.32134
1.32157
1.32182
1.32209
1.32238
1.32269
1.32302
1.32338
1.32376
1.32417
1.32461
1.32507
1.32555
1.32607
1.32661
1.32718
1.32778
1.3284
1.32906
1.32974
1.33045
1.33119
1.33196
1.33276
1.33358
1.33442
1.33529
1.33618
1.3371
1.33803
1.33898
1.33994
1.34092
1.3419
1.3429
1.3439
1.3449
1.3459
1.3469
1.34789
1.34888
1.34985
1.35081
1.35175
1.35267
1.35357
1.35445
1.3553
1.35612
1.3569
1.35766
1.35837
1.35906
1.3597
1.36031
1.36088
1.36141
1.36191
1.36237
1.3628
1.36319
1.36354
1.36387
1.36416
1.36443
1.36468
1.36489
1.36508
1.36526
1.36541
1.36555
1.36567
1.36577
1.36587
1.36594
1.36601
1.36607
1.36612
1.36617
1.3662
1.36623
1.36626
1.36628
1.36629
1.36631
1.36632
1.36632
1.36633
1.36633
1.36633
1.36633
1.36633
1.36633
1.36633
1.36633
1.36632
1.36632
1.36631
1.36631
1.36631
1.3663
1.3663
1.36629
1.36629
1.36629
1.36628
1.36628
1.36627
1.36627
1.36627
1.36627
1.36626
1.36626
1.36626
1.36626
1.36625
1.36625
1.36625
1.36625
1.36625
1.36625
1.36625
1.36625
1.36625
1.36626
1.36626
1.36626
1.36626
1.36627
1.36627
1.36627
1.36628
1.36628
1.36629
1.3663
1.3663
1.36631
1.36632
1.36633
1.36634
1.36635
1.36636
1.36638
1.36639
1.3664
1.36642
1.36644
1.36645
1.36647
1.36649
1.36651
1.36653
1.36655
1.36657
1.36659
1.36662
1.36664
1.36667
1.36669
1.36672
1.36674
1.36677
1.36679
1.36682
1.36684
1.36687
1.36689
1.36691
1.36693
1.36695
1.36697
1.36698
1.367
1.36701
1.36701
1.36702
1.36702
1.36701
1.367
1.36699
1.36697
1.36695
1.36692
1.36689
1.36685
1.3668
1.36675
1.3667
1.36663
1.36656
1.36649
1.3664
1.36631
1.36622
1.36612
1.36602
1.36591
1.36579
1.36567
1.36555
1.36542
1.36528
1.36515
1.365
1.36486
1.36471
1.36455
1.3644
1.36423
1.36406
1.36388
1.3637
1.36351
1.3633
1.36309
1.36287
1.36263
1.36238
1.36211
1.36182
1.36152
1.36119
1.36084
1.36046
1.36005
1.35962
1.35915
1.35866
1.35813
1.35758
1.35699
1.35636
1.35571
1.35503
1.35431
1.35357
1.35281
1.35202
1.3512
1.35037
1.34952
1.34865
1.34777
1.34688
1.34599
1.34508
1.34417
1.34326
1.34235
1.34144
1.34054
1.33964
1.33874
1.33786
1.33699
1.33612
1.33527
1.33444
1.33361
1.3328
1.33201
1.33123
1.33047
1.32973
1.329
1.32829
1.32759
1.32691
1.32625
1.3256
1.32497
1.32436
1.32375
1.32317
1.3226
1.32205
1.32151
1.32098
1.32047
1.31997
1.31949
1.31902
1.31856
1.31812
1.31768
1.31727
1.31686
1.31646
1.31608
1.31571
1.31535
1.315
1.31466
1.31433
1.31402
1.31371
1.31342
1.31313
1.31286
1.31259
1.31234
1.31209
1.31186
1.31163
1.31141
1.31121
1.31101
1.31082
1.31064
1.31048
1.31031
1.31016
1.31002
1.30989
1.30977
1.30965
1.30956
1.30947
1.30937
1.30932
1.30928
1.30921
1.30916
1.30922
1.30922
1.30912
1.30926
1.30953
1.30933
1.3093
1.31013
1.31022
1.30939
1.31062
1.31211
1.31072
1.31093
1.31347
1.31374
1.31438
1.34027
1.33901
1.33818
1.33735
1.33646
1.33563
1.33488
1.33412
1.33333
1.33261
1.33192
1.33121
1.33054
1.3299
1.32927
1.32866
1.32809
1.32753
1.32699
1.32648
1.32599
1.32552
1.32507
1.32465
1.32424
1.32386
1.3235
1.32316
1.32283
1.32253
1.32225
1.32198
1.32173
1.3215
1.32129
1.32109
1.32091
1.32075
1.3206
1.32047
1.32035
1.32025
1.32016
1.32009
1.32003
1.31999
1.31997
1.31995
1.31996
1.31997
1.32001
1.32005
1.32012
1.3202
1.32029
1.32041
1.32054
1.32068
1.32085
1.32103
1.32123
1.32146
1.3217
1.32196
1.32225
1.32255
1.32288
1.32324
1.32361
1.32401
1.32444
1.3249
1.32538
1.32588
1.32642
1.32699
1.32758
1.3282
1.32885
1.32953
1.33024
1.33097
1.33174
1.33253
1.33335
1.3342
1.33507
1.33596
1.33687
1.33781
1.33876
1.33973
1.34071
1.34171
1.34271
1.34372
1.34473
1.34574
1.34675
1.34775
1.34875
1.34973
1.35071
1.35166
1.3526
1.35351
1.3544
1.35526
1.3561
1.35689
1.35766
1.35839
1.35908
1.35974
1.36035
1.36093
1.36147
1.36197
1.36243
1.36286
1.36325
1.36361
1.36393
1.36423
1.36449
1.36473
1.36495
1.36514
1.36531
1.36546
1.36559
1.36571
1.36581
1.3659
1.36597
1.36604
1.3661
1.36614
1.36618
1.36622
1.36625
1.36627
1.36629
1.3663
1.36631
1.36632
1.36633
1.36633
1.36633
1.36633
1.36633
1.36633
1.36633
1.36632
1.36632
1.36632
1.36631
1.36631
1.3663
1.3663
1.3663
1.36629
1.36629
1.36628
1.36628
1.36627
1.36627
1.36627
1.36626
1.36626
1.36626
1.36625
1.36625
1.36625
1.36625
1.36625
1.36624
1.36624
1.36624
1.36624
1.36624
1.36624
1.36624
1.36624
1.36624
1.36625
1.36625
1.36625
1.36625
1.36626
1.36626
1.36627
1.36627
1.36628
1.36628
1.36629
1.3663
1.36631
1.36632
1.36633
1.36634
1.36635
1.36636
1.36637
1.36639
1.3664
1.36642
1.36643
1.36645
1.36647
1.36649
1.36651
1.36653
1.36655
1.36657
1.3666
1.36662
1.36664
1.36667
1.36669
1.36672
1.36674
1.36677
1.36679
1.36682
1.36684
1.36686
1.36688
1.3669
1.36692
1.36694
1.36696
1.36697
1.36698
1.36699
1.36699
1.36699
1.36699
1.36698
1.36697
1.36695
1.36692
1.3669
1.36686
1.36682
1.36678
1.36673
1.36667
1.3666
1.36653
1.36646
1.36638
1.36629
1.3662
1.3661
1.36599
1.36588
1.36577
1.36565
1.36552
1.3654
1.36526
1.36513
1.36499
1.36484
1.36469
1.36454
1.36438
1.36422
1.36405
1.36387
1.36369
1.36349
1.36329
1.36308
1.36286
1.36262
1.36236
1.36209
1.3618
1.36149
1.36115
1.36079
1.3604
1.35999
1.35955
1.35907
1.35856
1.35803
1.35745
1.35685
1.35621
1.35555
1.35485
1.35412
1.35337
1.35259
1.35178
1.35096
1.35012
1.34926
1.34838
1.3475
1.3466
1.3457
1.34479
1.34388
1.34297
1.34206
1.34115
1.34024
1.33934
1.33845
1.33757
1.3367
1.33584
1.335
1.33416
1.33335
1.33255
1.33176
1.33099
1.33024
1.32951
1.32879
1.32809
1.3274
1.32673
1.32608
1.32545
1.32483
1.32423
1.32364
1.32307
1.32251
1.32197
1.32144
1.32092
1.32042
1.31994
1.31946
1.319
1.31855
1.31812
1.31769
1.31728
1.31688
1.31649
1.31612
1.31575
1.3154
1.31505
1.31472
1.3144
1.31409
1.31379
1.3135
1.31322
1.31295
1.31269
1.31243
1.31219
1.31196
1.31174
1.31153
1.31133
1.31113
1.31095
1.31077
1.31061
1.31046
1.31031
1.31018
1.31005
1.30994
1.30983
1.30974
1.30967
1.30961
1.30954
1.30951
1.30952
1.30948
1.30947
1.30962
1.30968
1.30957
1.30985
1.31032
1.31008
1.31009
1.31135
1.31161
1.31073
1.31218
1.31429
1.31372
1.31372
1.31653
1.31856
1.3411
1.33961
1.33861
1.33761
1.33662
1.33575
1.33491
1.33405
1.33325
1.33252
1.33177
1.33105
1.33038
1.32972
1.32908
1.32847
1.32789
1.32733
1.3268
1.32629
1.3258
1.32533
1.32489
1.32447
1.32407
1.32369
1.32333
1.323
1.32268
1.32238
1.3221
1.32184
1.3216
1.32137
1.32116
1.32097
1.32079
1.32063
1.32049
1.32036
1.32025
1.32015
1.32006
1.31999
1.31994
1.3199
1.31987
1.31986
1.31986
1.31988
1.31991
1.31995
1.32002
1.32009
1.32019
1.3203
1.32042
1.32057
1.32073
1.32091
1.32111
1.32132
1.32156
1.32182
1.3221
1.3224
1.32272
1.32307
1.32344
1.32383
1.32426
1.3247
1.32517
1.32568
1.32621
1.32676
1.32735
1.32797
1.32861
1.32928
1.32999
1.33072
1.33148
1.33227
1.33309
1.33394
1.33481
1.3357
1.33662
1.33756
1.33851
1.33949
1.34048
1.34147
1.34248
1.3435
1.34452
1.34554
1.34657
1.34758
1.34859
1.34959
1.35058
1.35155
1.3525
1.35343
1.35434
1.35521
1.35606
1.35688
1.35766
1.3584
1.35911
1.35977
1.3604
1.36098
1.36153
1.36203
1.3625
1.36293
1.36332
1.36368
1.364
1.3643
1.36456
1.3648
1.36501
1.3652
1.36536
1.36551
1.36564
1.36575
1.36584
1.36593
1.36601
1.36607
1.36612
1.36616
1.3662
1.36623
1.36626
1.36628
1.36629
1.36631
1.36632
1.36632
1.36633
1.36633
1.36633
1.36633
1.36633
1.36633
1.36632
1.36632
1.36632
1.36631
1.36631
1.3663
1.3663
1.36629
1.36629
1.36628
1.36628
1.36627
1.36627
1.36627
1.36626
1.36626
1.36625
1.36625
1.36625
1.36625
1.36624
1.36624
1.36624
1.36624
1.36623
1.36623
1.36623
1.36623
1.36623
1.36623
1.36623
1.36623
1.36623
1.36623
1.36624
1.36624
1.36624
1.36624
1.36625
1.36625
1.36626
1.36626
1.36627
1.36628
1.36628
1.36629
1.3663
1.36631
1.36632
1.36633
1.36634
1.36636
1.36637
1.36638
1.3664
1.36642
1.36643
1.36645
1.36647
1.36649
1.36651
1.36653
1.36655
1.36657
1.3666
1.36662
1.36664
1.36667
1.36669
1.36672
1.36674
1.36677
1.36679
1.36681
1.36684
1.36686
1.36688
1.3669
1.36691
1.36693
1.36694
1.36695
1.36696
1.36696
1.36696
1.36696
1.36695
1.36694
1.36692
1.3669
1.36687
1.36683
1.36679
1.36675
1.3667
1.36664
1.36657
1.3665
1.36643
1.36635
1.36626
1.36617
1.36607
1.36596
1.36585
1.36574
1.36562
1.3655
1.36537
1.36524
1.36511
1.36497
1.36483
1.36468
1.36453
1.36437
1.36421
1.36404
1.36387
1.36368
1.36349
1.36329
1.36307
1.36285
1.36261
1.36235
1.36207
1.36178
1.36146
1.36111
1.36075
1.36035
1.35993
1.35947
1.35898
1.35846
1.3579
1.35731
1.35669
1.35604
1.35535
1.35464
1.3539
1.35313
1.35233
1.35151
1.35068
1.34983
1.34895
1.34807
1.34718
1.34628
1.34537
1.34446
1.34354
1.34263
1.34171
1.3408
1.3399
1.339
1.33811
1.33723
1.33636
1.33551
1.33467
1.33384
1.33303
1.33224
1.33146
1.3307
1.32996
1.32924
1.32853
1.32784
1.32717
1.32652
1.32588
1.32526
1.32465
1.32406
1.32349
1.32293
1.32239
1.32186
1.32135
1.32085
1.32036
1.31989
1.31942
1.31898
1.31854
1.31812
1.3177
1.3173
1.31691
1.31653
1.31617
1.31581
1.31546
1.31513
1.3148
1.31449
1.31418
1.31389
1.3136
1.31333
1.31307
1.31281
1.31256
1.31233
1.3121
1.31189
1.31168
1.31148
1.3113
1.31112
1.31095
1.31079
1.31065
1.31051
1.31038
1.31027
1.31017
1.31008
1.30999
1.30993
1.30989
1.30986
1.30982
1.30985
1.30992
1.30991
1.30996
1.31022
1.31033
1.31029
1.31077
1.31133
1.31114
1.31152
1.31291
1.31319
1.3131
1.31468
1.31622
1.31704
1.31835
1.31993
1.3417
1.34005
1.33891
1.33776
1.33674
1.33579
1.33483
1.33396
1.33315
1.33235
1.33157
1.33086
1.33016
1.32948
1.32885
1.32824
1.32765
1.32709
1.32656
1.32605
1.32557
1.32511
1.32467
1.32426
1.32387
1.32349
1.32314
1.32281
1.3225
1.32221
1.32194
1.32168
1.32145
1.32122
1.32102
1.32083
1.32066
1.32051
1.32037
1.32024
1.32013
1.32003
1.31995
1.31988
1.31983
1.31979
1.31976
1.31975
1.31975
1.31977
1.3198
1.31984
1.3199
1.31998
1.32007
1.32018
1.3203
1.32044
1.3206
1.32077
1.32096
1.32117
1.32141
1.32166
1.32193
1.32222
1.32254
1.32288
1.32324
1.32363
1.32404
1.32448
1.32495
1.32544
1.32596
1.32651
1.3271
1.3277
1.32834
1.32901
1.3297
1.33043
1.33119
1.33198
1.33279
1.33364
1.33451
1.3354
1.33632
1.33726
1.33822
1.3392
1.3402
1.3412
1.34222
1.34325
1.34428
1.34532
1.34635
1.34738
1.3484
1.34942
1.35042
1.35141
1.35238
1.35332
1.35425
1.35515
1.35601
1.35684
1.35764
1.3584
1.35912
1.3598
1.36044
1.36103
1.36159
1.3621
1.36257
1.363
1.3634
1.36376
1.36408
1.36437
1.36463
1.36487
1.36507
1.36526
1.36542
1.36556
1.36568
1.36579
1.36589
1.36596
1.36604
1.3661
1.36614
1.36618
1.36622
1.36625
1.36627
1.36629
1.3663
1.36631
1.36632
1.36633
1.36633
1.36633
1.36633
1.36633
1.36633
1.36632
1.36632
1.36632
1.36631
1.36631
1.3663
1.3663
1.36629
1.36629
1.36628
1.36628
1.36627
1.36627
1.36626
1.36626
1.36625
1.36625
1.36625
1.36624
1.36624
1.36624
1.36623
1.36623
1.36623
1.36623
1.36622
1.36622
1.36622
1.36622
1.36622