# vtk DataFile Version 2.0
LBE two cylinders
ASCII
DATASET STRUCTURED_POINTS
DIMENSIONS 400 100 1
ASPECT_RATIO 1 1 1
ORIGIN 0 0 0
POINT_DATA 40000
SCALARS rho double 1
LOOKUP_TABLE default
1.33847
1.33572
1.33598
1.33599
1.33505
1.33451
1.33417
1.33348
1.33284
1.33229
1.33168
1.33105
1.33046
1.32987
1.32928
1.32872
1.32817
1.32763
1.32711
1.32661
1.32613
1.32566
1.32522
1.3248
1.32439
1.32401
1.32364
1.3233
1.32297
1.32267
1.32238
1.32211
1.32186
1.32162
1.3214
1.32121
1.32102
1.32086
1.32071
1.32058
1.32046
1.32036
1.32028
1.32021
1.32015
1.32012
1.3201
1.32009
1.3201
1.32013
1.32017
1.32023
1.3203
1.3204
1.32051
1.32063
1.32078
1.32094
1.32113
1.32133
1.32155
1.3218
1.32206
1.32235
1.32266
1.32299
1.32335
1.32373
1.32413
1.32456
1.32502
1.3255
1.32601
1.32655
1.32711
1.3277
1.32832
1.32897
1.32964
1.33034
1.33107
1.33183
1.33261
1.33341
1.33424
1.33509
1.33596
1.33685
1.33776
1.33868
1.33962
1.34057
1.34153
1.34249
1.34346
1.34443
1.3454
1.34637
1.34733
1.34829
1.34923
1.35015
1.35107
1.35196
1.35283
1.35368
1.3545
1.35529
1.35605
1.35679
1.35749
1.35815
1.35879
1.35939
1.35995
1.36048
1.36098
1.36144
1.36187
1.36226
1.36263
1.36296
1.36326
1.36354
1.36379
1.36402
1.36422
1.36441
1.36457
1.36471
1.36484
1.36495
1.36505
1.36514
1.36521
1.36527
1.36533
1.36537
1.36541
1.36544
1.36547
1.36549
1.3655
1.36552
1.36553
1.36553
1.36554
1.36554
1.36554
1.36554
1.36554
1.36554
1.36554
1.36554
1.36554
1.36554
1.36554
1.36554
1.36555
1.36555
1.36555
1.36556
1.36556
1.36557
1.36557
1.36558
1.36559
1.3656
1.36561
1.36562
1.36563
1.36564
1.36565
1.36567
1.36568
1.3657
1.36571
1.36572
1.36574
1.36575
1.36577
1.36578
1.3658
1.36581
1.36583
1.36584
1.36586
1.36587
1.36588
1.36589
1.36591
1.36592
1.36593
1.36594
1.36595
1.36596
1.36597
1.36598
1.36599
1.366
1.36601
1.36601
1.36602
1.36603
1.36604
1.36604
1.36605
1.36606
1.36606
1.36607
1.36608
1.36608
1.36609
1.36609
1.3661
1.36611
1.36611
1.36612
1.36613
1.36613
1.36614
1.36614
1.36615
1.36615
1.36616
1.36616
1.36616
1.36617
1.36617
1.36617
1.36616
1.36616
1.36616
1.36615
1.36614
1.36613
1.36611
1.36609
1.36607
1.36605
1.36602
1.36599
1.36596
1.36592
1.36588
1.36584
1.36579
1.36574
1.36568
1.36563
1.36556
1.3655
1.36543
1.36536
1.36528
1.3652
1.36512
1.36503
1.36495
1.36486
1.36476
1.36467
1.36457
1.36447
1.36436
1.36425
1.36414
1.36403
1.3639
1.36378
1.36364
1.3635
1.36335
1.3632
1.36303
1.36285
1.36265
1.36244
1.36222
1.36197
1.36171
1.36143
1.36112
1.36078
1.36042
1.36003
1.35961
1.35916
1.35868
1.35816
1.35761
1.35703
1.35641
1.35576
1.35508
1.35437
1.35363
1.35286
1.35207
1.35125
1.35041
1.34955
1.34867
1.34778
1.34688
1.34597
1.34505
1.34413
1.3432
1.34228
1.34135
1.34043
1.33951
1.3386
1.3377
1.33681
1.33593
1.33506
1.3342
1.33336
1.33253
1.33172
1.33092
1.33014
1.32938
1.32863
1.3279
1.32719
1.32649
1.32581
1.32515
1.3245
1.32388
1.32326
1.32267
1.32209
1.32153
1.32098
1.32045
1.31993
1.31943
1.31894
1.31847
1.31801
1.31756
1.31713
1.31671
1.31631
1.31592
1.31554
1.31517
1.31481
1.31447
1.31414
1.31382
1.31351
1.31321
1.31292
1.31265
1.31238
1.31212
1.31188
1.31164
1.31142
1.3112
1.31099
1.3108
1.31061
1.31043
1.31027
1.31011
1.30996
1.30982
1.30969
1.30957
1.30946
1.30936
1.30927
1.30919
1.30911
1.30907
1.30902
1.30896
1.30894
1.30898
1.30895
1.30887
1.30902
1.30921
1.30888
1.30877
1.30973
1.30963
1.30759
1.30858
1.31249
1.30789
1.29918
1.30974
1.31881
1.33659
1.33671
1.33621
1.33552
1.33521
1.33471
1.3341
1.33351
1.33295
1.33233
1.33171
1.33112
1.33051
1.32991
1.32933
1.32877
1.32821
1.32768
1.32716
1.32665
1.32617
1.32571
1.32526
1.32484
1.32443
1.32405
1.32368
1.32334
1.32301
1.3227
1.32241
1.32214
1.32189
1.32165
1.32144
1.32124
1.32105
1.32089
1.32074
1.3206
1.32049
1.32039
1.3203
1.32023
1.32018
1.32014
1.32012
1.32011
1.32012
1.32015
1.32019
1.32025
1.32033
1.32042
1.32053
1.32065
1.3208
1.32096
1.32115
1.32135
1.32157
1.32181
1.32208
1.32236
1.32267
1.323
1.32336
1.32373
1.32414
1.32457
1.32502
1.3255
1.32601
1.32654
1.3271
1.32769
1.32831
1.32895
1.32963
1.33033
1.33105
1.3318
1.33258
1.33338
1.3342
1.33505
1.33592
1.33681
1.33771
1.33863
1.33957
1.34052
1.34147
1.34243
1.3434
1.34437
1.34534
1.34631
1.34727
1.34822
1.34916
1.35009
1.351
1.35189
1.35276
1.35361
1.35443
1.35523
1.35599
1.35673
1.35743
1.3581
1.35873
1.35934
1.3599
1.36043
1.36093
1.3614
1.36183
1.36222
1.36259
1.36293
1.36323
1.36351
1.36377
1.364
1.3642
1.36439
1.36455
1.3647
1.36483
1.36494
1.36504
1.36512
1.3652
1.36526
1.36532
1.36536
1.3654
1.36543
1.36546
1.36548
1.3655
1.36551
1.36552
1.36553
1.36553
1.36554
1.36554
1.36554
1.36554
1.36554
1.36554
1.36554
1.36554
1.36554
1.36554
1.36554
1.36554
1.36554
1.36555
1.36555
1.36555
1.36556
1.36557
1.36557
1.36558
1.36559
1.3656
1.36561
1.36562
1.36563
1.36565
1.36566
1.36567
1.36569
1.3657
1.36572
1.36573
1.36575
1.36576
1.36577
1.36579
1.3658
1.36582
1.36583
1.36585
1.36586
1.36587
1.36588
1.3659
1.36591
1.36592
1.36593
1.36594
1.36595
1.36596
1.36597
1.36598
1.36599
1.36599
1.366
1.36601
1.36602
1.36602
1.36603
1.36604
1.36604
1.36605
1.36605
1.36606
1.36607
1.36607
1.36608
1.36608
1.36609
1.3661
1.3661
1.36611
1.36611
1.36612
1.36612
1.36613
1.36613
1.36614
1.36614
1.36614
1.36614
1.36614
1.36614
1.36614
1.36614
1.36613
1.36612
1.36611
1.3661
1.36609
1.36607
1.36605
1.36602
1.366
1.36597
1.36593
1.3659
1.36586
1.36581
1.36576
1.36571
1.36566
1.3656
1.36553
1.36547
1.3654
1.36532
1.36525
1.36517
1.36509
1.365
1.36491
1.36482
1.36473
1.36463
1.36453
1.36442
1.36432
1.36421
1.36409
1.36397
1.36385
1.36372
1.36359
1.36344
1.36329
1.36313
1.36296
1.36278
1.36258
1.36237
1.36214
1.3619
1.36163
1.36134
1.36103
1.3607
1.36034
1.35995
1.35953
1.35908
1.3586
1.35808
1.35753
1.35695
1.35634
1.3557
1.35502
1.35431
1.35357
1.35281
1.35202
1.35121
1.35037
1.34952
1.34865
1.34776
1.34687
1.34596
1.34504
1.34413
1.3432
1.34228
1.34136
1.34044
1.33953
1.33863
1.33773
1.33684
1.33596
1.3351
1.33424
1.3334
1.33258
1.33177
1.33097
1.33019
1.32943
1.32868
1.32795
1.32724
1.32654
1.32586
1.3252
1.32456
1.32393
1.32331
1.32272
1.32214
1.32157
1.32103
1.32049
1.31997
1.31947
1.31898
1.31851
1.31805
1.3176
1.31717
1.31675
1.31634
1.31595
1.31557
1.3152
1.31484
1.3145
1.31416
1.31384
1.31353
1.31323
1.31294
1.31266
1.31239
1.31213
1.31189
1.31165
1.31142
1.3112
1.31099
1.3108
1.31061
1.31043
1.31026
1.3101
1.30994
1.3098
1.30967
1.30954
1.30943
1.30932
1.30923
1.30914
1.30907
1.30899
1.30894
1.30891
1.30886
1.30881
1.30885
1.30886
1.30874
1.30875
1.30902
1.30886
1.30838
1.30882
1.30951
1.30781
1.30635
1.30901
1.30847
1.29862
1.29317
1.33591
1.33689
1.33615
1.33543
1.3354
1.33482
1.33409
1.3336
1.33304
1.33236
1.33176
1.33117
1.33055
1.32995
1.32937
1.3288
1.32824
1.3277
1.32718
1.32668
1.32619
1.32573
1.32528
1.32486
1.32445
1.32407
1.3237
1.32335
1.32302
1.32272
1.32243
1.32216
1.3219
1.32167
1.32145
1.32125
1.32107
1.3209
1.32075
1.32062
1.3205
1.3204
1.32031
1.32024
1.32019
1.32015
1.32013
1.32012
1.32013
1.32016
1.3202
1.32026
1.32033
1.32042
1.32053
1.32066
1.3208
1.32096
1.32114
1.32135
1.32157
1.32181
1.32207
1.32235
1.32266
1.32299
1.32334
1.32372
1.32412
1.32455
1.325
1.32547
1.32598
1.32651
1.32707
1.32766
1.32827
1.32891
1.32958
1.33028
1.331
1.33175
1.33252
1.33332
1.33415
1.33499
1.33586
1.33674
1.33765
1.33857
1.3395
1.34045
1.3414
1.34237
1.34333
1.3443
1.34527
1.34624
1.3472
1.34816
1.3491
1.35003
1.35094
1.35184
1.35271
1.35356
1.35438
1.35518
1.35595
1.35669
1.3574
1.35807
1.35871
1.35931
1.35988
1.36042
1.36092
1.36138
1.36182
1.36222
1.36258
1.36292
1.36323
1.36351
1.36376
1.364
1.3642
1.36439
1.36455
1.3647
1.36482
1.36494
1.36504
1.36512
1.3652
1.36526
1.36532
1.36536
1.3654
1.36543
1.36546
1.36548
1.36549
1.36551
1.36552
1.36552
1.36553
1.36553
1.36553
1.36553
1.36553
1.36553
1.36553
1.36553
1.36553
1.36553
1.36553
1.36553
1.36553
1.36554
1.36554
1.36554
1.36555
1.36555
1.36556
1.36557
1.36557
1.36558
1.36559
1.3656
1.36561
1.36563
1.36564
1.36565
1.36566
1.36568
1.36569
1.36571
1.36572
1.36573
1.36575
1.36576
1.36578
1.36579
1.36581
1.36582
1.36583
1.36585
1.36586
1.36587
1.36588
1.3659
1.36591
1.36592
1.36593
1.36594
1.36595
1.36596
1.36596
1.36597
1.36598
1.36599
1.36599
1.366
1.36601
1.36601
1.36602
1.36603
1.36603
1.36604
1.36604
1.36605
1.36605
1.36606
1.36606
1.36607
1.36608
1.36608
1.36609
1.36609
1.3661
1.3661
1.36611
1.36611
1.36612
1.36612
1.36612
1.36612
1.36612
1.36612
1.36612
1.36611
1.36611
1.3661
1.36609
1.36608
1.36606
1.36605
1.36602
1.366
1.36597
1.36594
1.36591
1.36587
1.36583
1.36579
1.36574
1.36569
1.36563
1.36557
1.36551
1.36544
1.36537
1.3653
1.36522
1.36514
1.36506
1.36497
1.36488
1.36479
1.36469
1.36459
1.36449
1.36438
1.36428
1.36417
1.36405
1.36393
1.3638
1.36367
1.36353
1.36339
1.36324
1.36307
1.3629
1.36272
1.36252
1.36231
1.36208
1.36183
1.36157
1.36128
1.36097
1.36063
1.36027
1.35988
1.35946
1.35901
1.35853
1.35802
1.35747
1.35689
1.35628
1.35564
1.35496
1.35426
1.35353
1.35276
1.35198
1.35117
1.35033
1.34948
1.34861
1.34773
1.34684
1.34594
1.34502
1.34411
1.34319
1.34227
1.34135
1.34044
1.33953
1.33863
1.33773
1.33685
1.33597
1.33511
1.33426
1.33342
1.33259
1.33179
1.33099
1.33021
1.32945
1.32871
1.32798
1.32727
1.32657
1.32589
1.32523
1.32459
1.32396
1.32335
1.32275
1.32217
1.32161
1.32106
1.32052
1.32
1.3195
1.31901
1.31854
1.31808
1.31763
1.31719
1.31677
1.31637
1.31597
1.31559
1.31522
1.31486
1.31451
1.31418
1.31385
1.31354
1.31324
1.31295
1.31267
1.3124
1.31214
1.31189
1.31165
1.31142
1.3112
1.31099
1.31079
1.3106
1.31042
1.31024
1.31008
1.30993
1.30978
1.30964
1.30951
1.3094
1.30929
1.30918
1.30909
1.30902
1.30894
1.30886
1.30883
1.3088
1.30871
1.30867
1.30879
1.30871
1.30843
1.30868
1.30908
1.30824
1.30766
1.30953
1.30921
1.30443
1.30644
1.31328
1.30093
1.2888
1.33634
1.33639
1.33625
1.33598
1.33544
1.33477
1.33429
1.3337
1.33303
1.33242
1.33182
1.33118
1.33056
1.32997
1.32938
1.3288
1.32824
1.3277
1.32718
1.32667
1.32619
1.32572
1.32527
1.32485
1.32444
1.32406
1.32369
1.32334
1.32301
1.32271
1.32242
1.32215
1.32189
1.32166
1.32144
1.32124
1.32106
1.32089
1.32074
1.32061
1.32049
1.32039
1.3203
1.32024
1.32018
1.32014
1.32012
1.32011
1.32012
1.32015
1.32019
1.32025
1.32032
1.32041
1.32052
1.32064
1.32078
1.32094
1.32112
1.32132
1.32154
1.32178
1.32204
1.32232
1.32263
1.32295
1.3233
1.32368
1.32407
1.3245
1.32494
1.32542
1.32592
1.32645
1.32701
1.32759
1.3282
1.32884
1.32951
1.3302
1.33092
1.33167
1.33244
1.33324
1.33406
1.3349
1.33577
1.33665
1.33756
1.33848
1.33941
1.34036
1.34131
1.34228
1.34325
1.34422
1.3452
1.34617
1.34713
1.34809
1.34903
1.34997
1.35089
1.35179
1.35266
1.35352
1.35435
1.35515
1.35593
1.35667
1.35738
1.35806
1.3587
1.35931
1.35988
1.36042
1.36092
1.36139
1.36183
1.36223
1.3626
1.36294
1.36325
1.36353
1.36378
1.36401
1.36422
1.3644
1.36456
1.36471
1.36484
1.36495
1.36505
1.36513
1.3652
1.36527
1.36532
1.36536
1.3654
1.36543
1.36546
1.36548
1.36549
1.3655
1.36551
1.36552
1.36552
1.36553
1.36553
1.36553
1.36553
1.36553
1.36553
1.36552
1.36552
1.36552
1.36552
1.36552
1.36552
1.36553
1.36553
1.36553
1.36554
1.36554
1.36555
1.36556
1.36556
1.36557
1.36558
1.36559
1.3656
1.36561
1.36563
1.36564
1.36565
1.36567
1.36568
1.36569
1.36571
1.36572
1.36574
1.36575
1.36577
1.36578
1.36579
1.36581
1.36582
1.36583
1.36585
1.36586
1.36587
1.36588
1.36589
1.3659
1.36591
1.36592
1.36593
1.36594
1.36595
1.36596
1.36596
1.36597
1.36598
1.36598
1.36599
1.366
1.366
1.36601
1.36601
1.36602
1.36602
1.36603
1.36603
1.36604
1.36604
1.36605
1.36605
1.36606
1.36607
1.36607
1.36608
1.36608
1.36608
1.36609
1.36609
1.3661
1.3661
1.3661
1.3661
1.3661
1.36609
1.36609
1.36608
1.36608
1.36607
1.36605
1.36604
1.36602
1.366
1.36598
1.36595
1.36592
1.36589
1.36585
1.36581
1.36576
1.36572
1.36566
1.36561
1.36555
1.36548
1.36542
1.36534
1.36527
1.36519
1.36511
1.36503
1.36494
1.36485
1.36475
1.36466
1.36456
1.36446
1.36435
1.36424
1.36413
1.36401
1.36389
1.36376
1.36363
1.36349
1.36335
1.36319
1.36303
1.36285
1.36267
1.36247
1.36226
1.36203
1.36178
1.36151
1.36122
1.36091
1.36058
1.36021
1.35982
1.3594
1.35895
1.35847
1.35796
1.35741
1.35683
1.35622
1.35557
1.3549
1.35419
1.35346
1.3527
1.35191
1.3511
1.35027
1.34942
1.34855
1.34767
1.34678
1.34587
1.34497
1.34405
1.34314
1.34222
1.3413
1.34039
1.33948
1.33859
1.33769
1.33681
1.33594
1.33508
1.33423
1.33339
1.33257
1.33177
1.33098
1.3302
1.32944
1.3287
1.32798
1.32727
1.32657
1.3259
1.32524
1.32459
1.32397
1.32336
1.32276
1.32218
1.32162
1.32107
1.32054
1.32002
1.31952
1.31903
1.31855
1.31809
1.31765
1.31721
1.31679
1.31638
1.31599
1.3156
1.31523
1.31487
1.31453
1.31419
1.31387
1.31355
1.31325
1.31296
1.31268
1.31241
1.31215
1.3119
1.31166
1.31143
1.3112
1.31099
1.31079
1.3106
1.31041
1.31024
1.31008
1.30992
1.30977
1.30963
1.3095
1.30938
1.30927
1.30917
1.30907
1.30898
1.30892
1.30885
1.30876
1.30873
1.30876
1.30865
1.30853
1.30872
1.3088
1.30831
1.30834
1.30924
1.30863
1.30696
1.30861
1.31028
1.30556
1.30352
1.3089
1.30954
1.33711
1.33679
1.33662
1.33624
1.3355
1.33494
1.33446
1.33373
1.33307
1.33248
1.33183
1.33117
1.33057
1.32996
1.32935
1.32878
1.32822
1.32767
1.32714
1.32664
1.32615
1.32568
1.32523
1.32481
1.3244
1.32402
1.32365
1.3233
1.32298
1.32267
1.32238
1.32211
1.32186
1.32162
1.32141
1.32121
1.32103
1.32086
1.32071
1.32058
1.32046
1.32036
1.32028
1.32021
1.32015
1.32012
1.32009
1.32009
1.32009
1.32012
1.32016
1.32022
1.32029
1.32038
1.32048
1.32061
1.32075
1.32091
1.32108
1.32128
1.32149
1.32173
1.32199
1.32227
1.32257
1.32289
1.32324
1.32361
1.324
1.32442
1.32487
1.32534
1.32583
1.32636
1.32691
1.32749
1.3281
1.32874
1.3294
1.33009
1.33081
1.33155
1.33232
1.33312
1.33394
1.33478
1.33565
1.33653
1.33744
1.33836
1.33929
1.34024
1.3412
1.34217
1.34314
1.34412
1.3451
1.34608
1.34705
1.34801
1.34896
1.3499
1.35083
1.35173
1.35262
1.35348
1.35432
1.35513
1.35591
1.35666
1.35738
1.35806
1.35871
1.35933
1.3599
1.36045
1.36095
1.36142
1.36186
1.36226
1.36263
1.36297
1.36328
1.36356
1.36381
1.36404
1.36424
1.36443
1.36459
1.36473
1.36486
1.36497
1.36506
1.36515
1.36522
1.36528
1.36533
1.36537
1.36541
1.36544
1.36546
1.36548
1.36549
1.3655
1.36551
1.36552
1.36552
1.36552
1.36552
1.36552
1.36552
1.36552
1.36552
1.36552
1.36551
1.36551
1.36551
1.36551
1.36551
1.36552
1.36552
1.36552
1.36553
1.36553
1.36554
1.36554
1.36555
1.36556
1.36557
1.36558
1.36559
1.3656
1.36561
1.36563
1.36564
1.36565
1.36567
1.36568
1.3657
1.36571
1.36572
1.36574
1.36575
1.36577
1.36578
1.36579
1.36581
1.36582
1.36583
1.36584
1.36585
1.36587
1.36588
1.36589
1.3659
1.36591
1.36591
1.36592
1.36593
1.36594
1.36595
1.36595
1.36596
1.36596
1.36597
1.36598
1.36598
1.36599
1.36599
1.366
1.366
1.36601
1.36601
1.36602
1.36602
1.36603
1.36603
1.36604
1.36604
1.36605
1.36605
1.36606
1.36606
1.36607
1.36607
1.36607
1.36607
1.36607
1.36607
1.36607
1.36607
1.36607
1.36606
1.36605
1.36604
1.36603
1.36602
1.366
1.36598
1.36596
1.36593
1.3659
1.36586
1.36583
1.36579
1.36574
1.36569
1.36564
1.36558
1.36552
1.36546
1.36539
1.36532
1.36525
1.36517
1.36509
1.365
1.36491
1.36482
1.36473
1.36463
1.36453
1.36443
1.36432
1.36421
1.3641
1.36398
1.36386
1.36373
1.3636
1.36346
1.36331
1.36315
1.36299
1.36282
1.36263
1.36243
1.36222
1.36198
1.36173
1.36147
1.36118
1.36086
1.36052
1.36016
1.35976
1.35934
1.35889
1.3584
1.35788
1.35733
1.35675
1.35613
1.35548
1.3548
1.3541
1.35336
1.35259
1.3518
1.35099
1.35016
1.3493
1.34844
1.34755
1.34666
1.34576
1.34485
1.34394
1.34303
1.34211
1.3412
1.34029
1.33938
1.33849
1.3376
1.33672
1.33585
1.33499
1.33415
1.33332
1.3325
1.3317
1.33092
1.33015
1.32939
1.32865
1.32793
1.32723
1.32654
1.32587
1.32521
1.32457
1.32395
1.32334
1.32275
1.32218
1.32162
1.32107
1.32054
1.32002
1.31952
1.31904
1.31856
1.3181
1.31766
1.31723
1.31681
1.3164
1.316
1.31562
1.31525
1.31489
1.31455
1.31421
1.31389
1.31357
1.31327
1.31298
1.3127
1.31243
1.31217
1.31192
1.31168
1.31144
1.31122
1.31101
1.31081
1.31062
1.31043
1.31026
1.31009
1.30994
1.30979
1.30965
1.30952
1.3094
1.30928
1.30919
1.3091
1.309
1.30893
1.30889
1.30883
1.30874
1.30875
1.30881
1.30866
1.30858
1.30892
1.3089
1.30829
1.30878
1.30979
1.30828
1.30735
1.31075
1.31007
1.30515
1.30849
1.31103
1.33801
1.33757
1.33701
1.33635
1.3358
1.33521
1.33448
1.33378
1.33316
1.33248
1.3318
1.33117
1.33054
1.3299
1.3293
1.32872
1.32814
1.3276
1.32707
1.32656
1.32607
1.3256
1.32516
1.32473
1.32433
1.32394
1.32358
1.32323
1.32291
1.3226
1.32232
1.32205
1.3218
1.32157
1.32135
1.32115
1.32097
1.32081
1.32066
1.32053
1.32042
1.32032
1.32023
1.32016
1.32011
1.32007
1.32005
1.32004
1.32005
1.32007
1.32011
1.32017
1.32024
1.32033
1.32043
1.32055
1.32069
1.32085
1.32102
1.32121
1.32143
1.32166
1.32191
1.32219
1.32248
1.3228
1.32315
1.32351
1.3239
1.32432
1.32476
1.32522
1.32572
1.32624
1.32679
1.32736
1.32797
1.3286
1.32926
1.32995
1.33066
1.3314
1.33217
1.33297
1.33378
1.33463
1.33549
1.33638
1.33729
1.33821
1.33915
1.3401
1.34107
1.34204
1.34302
1.344
1.34498
1.34597
1.34695
1.34792
1.34888
1.34983
1.35076
1.35168
1.35257
1.35345
1.35429
1.35511
1.3559
1.35666
1.35739
1.35808
1.35873
1.35935
1.35994
1.36048
1.36099
1.36147
1.3619
1.36231
1.36268
1.36302
1.36332
1.3636
1.36385
1.36408
1.36428
1.36446
1.36462
1.36476
1.36488
1.36499
1.36508
1.36516
1.36523
1.36529
1.36534
1.36538
1.36541
1.36544
1.36546
1.36548
1.36549
1.3655
1.36551
1.36551
1.36552
1.36552
1.36552
1.36552
1.36551
1.36551
1.36551
1.36551
1.36551
1.3655
1.3655
1.3655
1.3655
1.36551
1.36551
1.36551
1.36551
1.36552
1.36553
1.36553
1.36554
1.36555
1.36556
1.36557
1.36558
1.36559
1.3656
1.36561
1.36563
1.36564
1.36565
1.36567
1.36568
1.3657
1.36571
1.36572
1.36574
1.36575
1.36576
1.36578
1.36579
1.3658
1.36582
1.36583
1.36584
1.36585
1.36586
1.36587
1.36588
1.36589
1.3659
1.36591
1.36591
1.36592
1.36593
1.36593
1.36594
1.36594
1.36595
1.36596
1.36596
1.36597
1.36597
1.36598
1.36598
1.36598
1.36599
1.36599
1.366
1.366
1.36601
1.36601
1.36602
1.36602
1.36603
1.36603
1.36604
1.36604
1.36604
1.36605
1.36605
1.36605
1.36605
1.36605
1.36605
1.36604
1.36604
1.36603
1.36602
1.36601
1.36599
1.36598
1.36596
1.36593
1.36591
1.36588
1.36584
1.36581
1.36576
1.36572
1.36567
1.36562
1.36556
1.3655
1.36544
1.36537
1.3653
1.36522
1.36515
1.36506
1.36498
1.36489
1.3648
1.3647
1.36461
1.36451
1.3644
1.3643
1.36418
1.36407
1.36395
1.36383
1.3637
1.36357
1.36343
1.36328
1.36313
1.36296
1.36279
1.3626
1.3624
1.36218
1.36195
1.3617
1.36143
1.36113
1.36081
1.36047
1.3601
1.3597
1.35927
1.35881
1.35832
1.35779
1.35724
1.35664
1.35602
1.35536
1.35468
1.35396
1.35322
1.35245
1.35165
1.35083
1.34999
1.34914
1.34827
1.34738
1.34649
1.34559
1.34468
1.34376
1.34285
1.34194
1.34102
1.34012
1.33921
1.33832
1.33743
1.33656
1.33569
1.33484
1.33401
1.33318
1.33237
1.33158
1.3308
1.33003
1.32929
1.32856
1.32784
1.32715
1.32646
1.3258
1.32515
1.32452
1.3239
1.3233
1.32272
1.32215
1.32159
1.32105
1.32053
1.32002
1.31952
1.31904
1.31857
1.31811
1.31767
1.31724
1.31682
1.31642
1.31603
1.31565
1.31528
1.31492
1.31458
1.31424
1.31392
1.31361
1.31331
1.31302
1.31274
1.31247
1.31221
1.31196
1.31172
1.31149
1.31127
1.31106
1.31086
1.31066
1.31048
1.31031
1.31014
1.30999
1.30984
1.30971
1.30958
1.30947
1.30936
1.30925
1.30917
1.30911
1.30902
1.30896
1.30896
1.30894
1.30883
1.30888
1.30907
1.3089
1.30873
1.30932
1.30955
1.30861
1.30909
1.31093
1.30956
1.30789
1.31119
1.31302
1.31003
1.30971
1.33905
1.33822
1.33747
1.33672
1.33608
1.33532
1.33453
1.33387
1.33318
1.33243
1.33176
1.33112
1.33045
1.32981
1.32921
1.32861
1.32803
1.32749
1.32696
1.32644
1.32596
1.32549
1.32505
1.32462
1.32422
1.32384
1.32348
1.32313
1.32281
1.32251
1.32223
1.32196
1.32171
1.32148
1.32127
1.32108
1.3209
1.32074
1.32059
1.32046
1.32035
1.32025
1.32017
1.3201
1.32005
1.32001
1.31999
1.31998
1.31999
1.32001
1.32005
1.3201
1.32017
1.32026
1.32036
1.32048
1.32061
1.32077
1.32094
1.32113
1.32134
1.32157
1.32182
1.32209
1.32238
1.3227
1.32303
1.32339
1.32378
1.32419
1.32462
1.32509
1.32558
1.32609
1.32663
1.32721
1.3278
1.32843
1.32909
1.32977
1.33048
1.33122
1.33199
1.33278
1.3336
1.33444
1.33531
1.3362
1.3371
1.33803
1.33897
1.33993
1.3409
1.34188
1.34286
1.34385
1.34484
1.34584
1.34682
1.3478
1.34878
1.34973
1.35068
1.35161
1.35251
1.3534
1.35426
1.35509
1.35589
1.35666
1.35739
1.35809
1.35876
1.35938
1.35997
1.36053
1.36104
1.36152
1.36196
1.36236
1.36273
1.36307
1.36338
1.36366
1.3639
1.36413
1.36433
1.3645
1.36466
1.3648
1.36492
1.36502
1.36511
1.36519
1.36525
1.36531
1.36536
1.36539
1.36542
1.36545
1.36547
1.36548
1.36549
1.3655
1.36551
1.36551
1.36551
1.36551
1.36551
1.36551
1.36551
1.3655
1.3655
1.3655
1.3655
1.36549
1.36549
1.36549
1.36549
1.36549
1.3655
1.3655
1.3655
1.36551
1.36551
1.36552
1.36553
1.36554
1.36554
1.36556
1.36557
1.36558
1.36559
1.3656
1.36561
1.36563
1.36564
1.36565
1.36567
1.36568
1.3657
1.36571
1.36572
1.36574
1.36575
1.36576
1.36578
1.36579
1.3658
1.36581
1.36582
1.36583
1.36584
1.36585
1.36586
1.36587
1.36588
1.36589
1.36589
1.3659
1.36591
1.36591
1.36592
1.36593
1.36593
1.36594
1.36594
1.36594
1.36595
1.36595
1.36596
1.36596
1.36597
1.36597
1.36598
1.36598
1.36599
1.36599
1.366
1.366
1.366
1.36601
1.36601
1.36602
1.36602
1.36602
1.36603
1.36603
1.36603
1.36603
1.36602
1.36602
1.36601
1.36601
1.366
1.36599
1.36597
1.36595
1.36593
1.36591
1.36588
1.36585
1.36582
1.36578
1.36574
1.3657
1.36565
1.3656
1.36554
1.36548
1.36542
1.36535
1.36528
1.3652
1.36512
1.36504
1.36496
1.36487
1.36478
1.36468
1.36459
1.36449
1.36438
1.36428
1.36417
1.36405
1.36393
1.36381
1.36369
1.36355
1.36341
1.36327
1.36311
1.36294
1.36277
1.36258
1.36237
1.36216
1.36192
1.36166
1.36139
1.36109
1.36077
1.36042
1.36004
1.35963
1.3592
1.35873
1.35822
1.35769
1.35712
1.35652
1.35588
1.35522
1.35452
1.35379
1.35304
1.35226
1.35145
1.35062
1.34978
1.34892
1.34804
1.34715
1.34626
1.34535
1.34444
1.34353
1.34261
1.3417
1.34079
1.33988
1.33898
1.33809
1.33721
1.33634
1.33548
1.33463
1.3338
1.33298
1.33218
1.33139
1.33062
1.32987
1.32913
1.32841
1.3277
1.32702
1.32635
1.32569
1.32505
1.32443
1.32382
1.32323
1.32266
1.3221
1.32155
1.32102
1.3205
1.32
1.31951
1.31903
1.31857
1.31812
1.31768
1.31726
1.31685
1.31645
1.31606
1.31568
1.31532
1.31497
1.31462
1.31429
1.31397
1.31366
1.31337
1.31308
1.3128
1.31253
1.31228
1.31203
1.31179
1.31156
1.31134
1.31114
1.31094
1.31075
1.31057
1.3104
1.31024
1.31009
1.30995
1.30982
1.30969
1.30958
1.30949
1.3094
1.30931
1.30926
1.30922
1.30916
1.30912
1.30918
1.30919
1.3091
1.30925
1.30953
1.30934
1.30932
1.31017
1.31027
1.30945
1.3107
1.31221
1.31082
1.31106
1.31361
1.31389
1.31455
1.34007
1.3388
1.33797
1.33713
1.33624
1.33541
1.33466
1.3339
1.3331
1.33239
1.3317
1.33099
1.33032
1.32969
1.32906
1.32846
1.32789
1.32733
1.3268
1.32629
1.3258
1.32534
1.3249
1.32448
1.32408
1.3237
1.32334
1.323
1.32269
1.32239
1.32211
1.32185
1.3216
1.32138
1.32117
1.32098
1.3208
1.32065
1.3205
1.32038
1.32026
1.32017
1.32009
1.32002
1.31997
1.31993
1.31991
1.3199
1.31991
1.31993
1.31997
1.32002
1.32009
1.32017
1.32027
1.32039
1.32052
1.32067
1.32084
1.32103
1.32123
1.32146
1.3217
1.32197
1.32226
1.32257
1.3229
1.32325
1.32363
1.32404
1.32447
1.32492
1.3254
1.32591
1.32645
1.32702
1.32761
1.32823
1.32888
1.32956
1.33027
1.33101
1.33177
1.33256
1.33338
1.33422
1.33509
1.33598
1.33689
1.33782
1.33876
1.33972
1.3407
1.34169
1.34268
1.34368
1.34468
1.34568
1.34667
1.34767
1.34865
1.34962
1.35058
1.35152
1.35244
1.35334
1.35421
1.35505
1.35587
1.35665
1.3574
1.35811
1.35878
1.35942
1.36002
1.36058
1.36109
1.36158
1.36202
1.36243
1.3628
1.36314
1.36344
1.36372
1.36396
1.36419
1.36438
1.36456
1.36471
1.36484
1.36496
1.36506
1.36514
1.36522
1.36528
1.36533
1.36537
1.36541
1.36544
1.36546
1.36548
1.36549
1.3655
1.3655
1.36551
1.36551
1.36551
1.36551
1.3655
1.3655
1.3655
1.3655
1.36549
1.36549
1.36549
1.36548
1.36548
1.36548
1.36548
1.36548
1.36548
1.36549
1.36549
1.3655
1.3655
1.36551
1.36551
1.36552
1.36553
1.36554
1.36555
1.36556
1.36558
1.36559
1.3656
1.36561
1.36563
1.36564
1.36565
1.36567
1.36568
1.36569
1.36571
1.36572
1.36573
1.36575
1.36576
1.36577
1.36578
1.3658
1.36581
1.36582
1.36583
1.36584
1.36585
1.36585
1.36586
1.36587
1.36588
1.36588
1.36589
1.3659
1.3659
1.36591
1.36591
1.36592
1.36592
1.36592
1.36593
1.36593
1.36594
1.36594
1.36595
1.36595
1.36595
1.36596
1.36596
1.36597
1.36597
1.36598
1.36598
1.36599
1.36599
1.36599
1.366
1.366
1.366
1.366
1.366
1.366
1.366
1.366
1.36599
1.36598
1.36597
1.36596
1.36595
1.36593
1.36591
1.36589
1.36586
1.36583
1.3658
1.36576
1.36572
1.36568
1.36563
1.36557
1.36552
1.36546
1.3654
1.36533
1.36526
1.36518
1.3651
1.36502
1.36494
1.36485
1.36476
1.36467
1.36457
1.36447
1.36437
1.36426
1.36415
1.36404
1.36392
1.3638
1.36368
1.36354
1.3634
1.36326
1.3631
1.36293
1.36276
1.36256
1.36236
1.36214
1.3619
1.36164
1.36136
1.36105
1.36072
1.36037
1.35998
1.35956
1.35911
1.35863
1.35812
1.35757
1.35698
1.35637
1.35572
1.35504
1.35432
1.35359
1.35282
1.35202
1.35121
1.35037
1.34952
1.34865
1.34777
1.34687
1.34597
1.34506
1.34415
1.34323
1.34232
1.3414
1.34049
1.33959
1.33869
1.3378
1.33692
1.33605
1.3352
1.33436
1.33353
1.33273
1.33193
1.33115
1.33039
1.32965
1.32892
1.32821
1.32752
1.32684
1.32618
1.32554
1.32491
1.3243
1.32371
1.32313
1.32256
1.32202
1.32148
1.32096
1.32046
1.31996
1.31948
1.31902
1.31856
1.31812
1.31769
1.31728
1.31687
1.31648
1.3161
1.31573
1.31537
1.31503
1.31469
1.31436
1.31405
1.31374
1.31345
1.31317
1.31289
1.31263
1.31238
1.31213
1.3119
1.31167
1.31146
1.31126
1.31106
1.31088
1.3107
1.31054
1.31038
1.31024
1.3101
1.30998
1.30987
1.30977
1.30967
1.30961
1.30955
1.30948
1.30946
1.30948
1.30944
1.30943
1.30959
1.30966
1.30956
1.30985
1.31033
1.31011
1.31013
1.31141
1.31167
1.31081
1.31228
1.31441
1.31385
1.31387
1.3167
1.31875
1.34088
1.33939
1.33839
1.33738
1.33639
1.33553
1.33469
1.33383
1.33303
1.3323
1.33155
1.33083
1.33016
1.32951
1.32887
1.32827
1.32769
1.32713
1.3266
1.3261
1.32561
1.32515
1.32472
1.3243
1.32391
1.32353
1.32318
1.32285
1.32254
1.32224
1.32197
1.32171
1.32147
1.32125
1.32105
1.32086
1.32069
1.32054
1.3204
1.32027
1.32016
1.32007
1.31999
1.31992
1.31987
1.31984
1.31982
1.31981
1.31982
1.31984
1.31987
1.31993
1.31999
1.32007
1.32017
1.32029
1.32042
1.32056
1.32073
1.32091
1.32111
1.32133
1.32157
1.32183
1.32211
1.32242
1.32274
1.32309
1.32346
1.32386
1.32429
1.32473
1.32521
1.32571
1.32624
1.3268
1.32739
1.32801
1.32865
1.32932
1.33003
1.33076
1.33152
1.33231
1.33312
1.33397
1.33484
1.33572
1.33664
1.33757
1.33852
1.33949
1.34047
1.34146
1.34246
1.34347
1.34447
1.34548
1.3465
1.3475
1.34849
1.34948
1.35045
1.35141
1.35234
1.35326
1.35415
1.35501
1.35584
1.35663
1.35739
1.35812
1.35881
1.35945
1.36006
1.36063
1.36115
1.36164
1.36209
1.36249
1.36287
1.36321
1.36351
1.36378
1.36403
1.36425
1.36444
1.36461
1.36476
1.36488
1.365
1.3651
1.36517
1.36525
1.3653
1.36535
1.36539
1.36543
1.36545
1.36547
1.36548
1.3655
1.3655
1.36551
1.36551
1.36551
1.36551
1.3655
1.3655
1.3655
1.36549
1.36549
1.36548
1.36548
1.36548
1.36547
1.36547
1.36547
1.36547
1.36547
1.36547
1.36548
1.36548
1.36548
1.36549
1.3655
1.3655
1.36551
1.36552
1.36553
1.36554
1.36555
1.36556
1.36558
1.36559
1.3656
1.36561
1.36563
1.36564
1.36565
1.36567
1.36568
1.36569
1.36571
1.36572
1.36573
1.36575
1.36576
1.36577
1.36578
1.36579
1.3658
1.36581
1.36582
1.36583
1.36584
1.36585
1.36585
1.36586
1.36587
1.36587
1.36588
1.36588
1.36589
1.36589
1.3659
1.3659
1.36591
1.36591
1.36591
1.36592
1.36592
1.36593
1.36593
1.36593
1.36594
1.36594
1.36595
1.36595
1.36596
1.36596
1.36596
1.36597
1.36597
1.36598
1.36598
1.36598
1.36598
1.36598
1.36598
1.36598
1.36597
1.36597
1.36596
1.36595
1.36594
1.36593
1.36591
1.36589
1.36587
1.36584
1.36581
1.36578
1.36574
1.3657
1.36565
1.3656
1.36555
1.3655
1.36544
1.36537
1.36531
1.36524
1.36516
1.36508
1.365
1.36492
1.36483
1.36474
1.36465
1.36456
1.36446
1.36436
1.36425
1.36414
1.36403
1.36392
1.3638
1.36367
1.36354
1.3634
1.36325
1.3631
1.36293
1.36275
1.36256
1.36235
1.36213
1.36188
1.36162
1.36133
1.36102
1.36068
1.36031
1.35992
1.35949
1.35902
1.35853
1.358
1.35743
1.35683
1.3562
1.35553
1.35483
1.35411
1.35335
1.35256
1.35176
1.35093
1.35008
1.34922
1.34834
1.34745
1.34655
1.34564
1.34473
1.34381
1.34289
1.34197
1.34106
1.34015
1.33924
1.33835
1.33746
1.33658
1.33572
1.33487
1.33404
1.33322
1.33242
1.33163
1.33086
1.33011
1.32938
1.32867
1.32796
1.32729
1.32663
1.32598
1.32535
1.32474
1.32414
1.32356
1.323
1.32245
1.32191
1.32139
1.32089
1.32039
1.31991
1.31945
1.31899
1.31855
1.31812
1.31771
1.3173
1.31691
1.31652
1.31615
1.31579
1.31544
1.3151
1.31477
1.31445
1.31415
1.31385
1.31356
1.31328
1.31301
1.31276
1.31251
1.31227
1.31204
1.31182
1.31162
1.31142
1.31123
1.31105
1.31088
1.31072
1.31057
1.31044
1.31031
1.3102
1.3101
1.31001
1.30993
1.30987
1.30984
1.30981
1.30977
1.30981
1.30988
1.30988
1.30994
1.31021
1.31033
1.31029
1.31078
1.31137
1.31119
1.31158
1.31299
1.31328
1.31321
1.3148
1.31636
1.3172
1.31853
1.32013
1.34146
1.33982
1.33867
1.33753
1.3365
1.33555
1.33459
1.33373
1.33292
1.33212
1.33134
1.33064
1.32995
1.32927
1.32864
1.32804
1.32745
1.3269
1.32637
1.32587
1.32539
1.32493
1.3245
1.32409
1.3237
1.32334
1.32299
1.32267
1.32236
1.32208
1.32181
1.32156
1.32132
1.32111
1.32091
1.32073
1.32056
1.32041
1.32028
1.32015
1.32005
1.31996
1.31988
1.31982
1.31977
1.31973
1.31971
1.3197
1.31971
1.31973
1.31977
1.31982
1.31988
1.31996
1.32006
1.32017
1.3203
1.32044
1.3206
1.32078
1.32097
1.32119
1.32142
1.32168
1.32195
1.32225
1.32257
1.32291
1.32327
1.32367
1.32408
1.32452
1.32499
1.32549
1.326
1.32656
1.32714
1.32775
1.32839
1.32906
1.32975
1.33048
1.33124
1.33202
1.33284
1.33368
1.33454
1.33543
1.33635
1.33728
1.33824
1.33921
1.3402
1.34119
1.3422
1.34322
1.34424
1.34526
1.34628
1.3473
1.34831
1.34931
1.3503
1.35127
1.35222
1.35315
1.35406
1.35494
1.35579
1.3566
1.35738
1.35812
1.35882
1.35948
1.3601
1.36068
1.36121
1.3617
1.36215
1.36257
1.36294
1.36328
1.36358
1.36385
1.3641
1.36431
1.3645
1.36467
1.36481
1.36493
1.36504
1.36514
1.36521
1.36528
1.36533
1.36538
1.36541
1.36544
1.36546
1.36548
1.36549
1.3655
1.36551
1.36551
1.36551
1.36551
1.3655
1.3655
1.36549
1.36549
1.36548
1.36548
1.36548
1.36547
1.36547
1.36546
1.36546
1.36546
1.36546
1.36546
1.36546
1.36547
1.36547
1.36547
1.36548
1.36549
1.36549
1.3655
1.36551
1.36552
1.36553
1.36554
1.36555
1.36556
1.36558
1.36559
1.3656
1.36562
1.36563
1.36564
1.36566
1.36567
1.36568