# vtk DataFile Version 2.0
LBE two cylinders
ASCII
DATASET STRUCTURED_POINTS
DIMENSIONS 400 100 1
ASPECT_RATIO 1 1 1
ORIGIN 0 0 0
POINT_DATA 40000
SCALARS rho double 1
LOOKUP_TABLE default
1.33862
1.3359
1.33616
1.33617
1.33523
1.3347
1.33436
1.33367
1.33304
1.33249
1.33187
1.33124
1.33065
1.33006
1.32947
1.3289
1.32834
1.3278
1.32728
1.32678
1.32629
1.32583
1.32538
1.32495
1.32455
1.32416
1.32379
1.32344
1.32311
1.3228
1.32251
1.32224
1.32198
1.32174
1.32152
1.32132
1.32114
1.32097
1.32082
1.32068
1.32056
1.32046
1.32037
1.3203
1.32025
1.32021
1.32019
1.32018
1.32019
1.32022
1.32026
1.32032
1.3204
1.32049
1.3206
1.32073
1.32088
1.32105
1.32124
1.32144
1.32167
1.32192
1.32219
1.32248
1.32279
1.32313
1.32349
1.32387
1.32428
1.32471
1.32517
1.32566
1.32617
1.32671
1.32728
1.32787
1.32849
1.32914
1.32982
1.33052
1.33125
1.332
1.33279
1.33359
1.33442
1.33527
1.33614
1.33703
1.33794
1.33886
1.3398
1.34075
1.34171
1.34267
1.34364
1.34462
1.34559
1.34656
1.34752
1.34848
1.34942
1.35035
1.35126
1.35216
1.35303
1.35388
1.3547
1.3555
1.35626
1.357
1.3577
1.35837
1.35901
1.35961
1.36017
1.3607
1.3612
1.36166
1.36209
1.36248
1.36285
1.36318
1.36349
1.36376
1.36401
1.36424
1.36444
1.36463
1.36479
1.36493
1.36506
1.36517
1.36526
1.36535
1.36542
1.36548
1.36554
1.36558
1.36562
1.36565
1.36567
1.36569
1.36571
1.36573
1.36574
1.36574
1.36575
1.36575
1.36576
1.36576
1.36576
1.36576
1.36576
1.36576
1.36576
1.36576
1.36576
1.36576
1.36576
1.36576
1.36577
1.36577
1.36577
1.36577
1.36578
1.36578
1.36579
1.36579
1.36579
1.3658
1.3658
1.36581
1.36582
1.36582
1.36583
1.36583
1.36584
1.36584
1.36585
1.36586
1.36586
1.36587
1.36587
1.36588
1.36588
1.36589
1.3659
1.3659
1.36591
1.36591
1.36592
1.36593
1.36593
1.36594
1.36595
1.36595
1.36596
1.36597
1.36597
1.36598
1.36599
1.366
1.36601
1.36602
1.36603
1.36604
1.36605
1.36606
1.36607
1.36608
1.36609
1.36611
1.36612
1.36613
1.36615
1.36616
1.36618
1.36619
1.3662
1.36622
1.36623
1.36625
1.36626
1.36628
1.36629
1.3663
1.36632
1.36633
1.36634
1.36634
1.36635
1.36636
1.36636
1.36636
1.36636
1.36635
1.36634
1.36633
1.36632
1.3663
1.36628
1.36626
1.36623
1.3662
1.36616
1.36612
1.36608
1.36603
1.36597
1.36592
1.36585
1.36579
1.36572
1.36565
1.36557
1.36549
1.3654
1.36532
1.36522
1.36513
1.36503
1.36493
1.36483
1.36472
1.36461
1.36449
1.36437
1.36425
1.36412
1.36399
1.36384
1.3637
1.36354
1.36337
1.3632
1.36301
1.36281
1.36259
1.36236
1.3621
1.36183
1.36154
1.36122
1.36088
1.36051
1.36012
1.35969
1.35923
1.35875
1.35822
1.35767
1.35708
1.35647
1.35581
1.35513
1.35442
1.35368
1.35291
1.35211
1.3513
1.35046
1.3496
1.34873
1.34784
1.34694
1.34604
1.34512
1.3442
1.34328
1.34236
1.34144
1.34052
1.33961
1.33871
1.33781
1.33693
1.33605
1.33519
1.33433
1.3335
1.33267
1.33186
1.33107
1.33029
1.32953
1.32878
1.32805
1.32734
1.32664
1.32596
1.3253
1.32465
1.32402
1.32341
1.32281
1.32223
1.32166
1.32111
1.32058
1.32006
1.31955
1.31906
1.31859
1.31812
1.31768
1.31724
1.31682
1.31641
1.31602
1.31564
1.31527
1.31491
1.31457
1.31423
1.31391
1.3136
1.31331
1.31302
1.31274
1.31248
1.31223
1.31198
1.31175
1.31153
1.31131
1.31111
1.31092
1.31073
1.31056
1.3104
1.31024
1.3101
1.30996
1.30983
1.30972
1.30961
1.30951
1.30942
1.30934
1.30927
1.30922
1.30918
1.30912
1.3091
1.30914
1.30911
1.30902
1.30917
1.30935
1.30902
1.30891
1.30986
1.30976
1.30771
1.30869
1.31259
1.30799
1.29927
1.30981
1.31887
1.33675
1.33688
1.33639
1.33571
1.33539
1.3349
1.33429
1.3337
1.33315
1.33252
1.3319
1.3313
1.3307
1.3301
1.32952
1.32895
1.32839
1.32785
1.32733
1.32682
1.32634
1.32587
1.32542
1.32499
1.32458
1.3242
1.32383
1.32348
1.32315
1.32284
1.32254
1.32227
1.32201
1.32178
1.32155
1.32135
1.32117
1.321
1.32084
1.32071
1.32059
1.32049
1.3204
1.32033
1.32027
1.32023
1.32021
1.3202
1.32021
1.32024
1.32028
1.32034
1.32042
1.32051
1.32062
1.32075
1.3209
1.32107
1.32125
1.32146
1.32168
1.32193
1.3222
1.32249
1.3228
1.32314
1.32349
1.32388
1.32428
1.32472
1.32518
1.32566
1.32617
1.32671
1.32727
1.32786
1.32848
1.32913
1.3298
1.3305
1.33123
1.33198
1.33276
1.33356
1.33438
1.33523
1.3361
1.33699
1.33789
1.33881
1.33975
1.3407
1.34165
1.34262
1.34359
1.34456
1.34553
1.34649
1.34746
1.34841
1.34935
1.35028
1.35119
1.35209
1.35296
1.35381
1.35464
1.35543
1.3562
1.35694
1.35764
1.35831
1.35895
1.35955
1.36012
1.36066
1.36116
1.36162
1.36205
1.36245
1.36282
1.36315
1.36346
1.36374
1.36399
1.36422
1.36442
1.36461
1.36477
1.36492
1.36504
1.36516
1.36525
1.36534
1.36541
1.36548
1.36553
1.36558
1.36561
1.36565
1.36567
1.36569
1.36571
1.36572
1.36573
1.36574
1.36575
1.36575
1.36576
1.36576
1.36576
1.36576
1.36576
1.36576
1.36576
1.36576
1.36576
1.36576
1.36576
1.36576
1.36577
1.36577
1.36577
1.36577
1.36578
1.36578
1.36579
1.36579
1.36579
1.3658
1.3658
1.36581
1.36581
1.36582
1.36583
1.36583
1.36584
1.36584
1.36585
1.36585
1.36586
1.36587
1.36587
1.36588
1.36588
1.36589
1.36589
1.3659
1.36591
1.36591
1.36592
1.36592
1.36593
1.36594
1.36594
1.36595
1.36596
1.36596
1.36597
1.36598
1.36599
1.36599
1.366
1.36601
1.36602
1.36603
1.36604
1.36605
1.36606
1.36607
1.36609
1.3661
1.36611
1.36612
1.36614
1.36615
1.36616
1.36618
1.36619
1.36621
1.36622
1.36624
1.36625
1.36626
1.36628
1.36629
1.3663
1.36631
1.36632
1.36633
1.36633
1.36634
1.36634
1.36634
1.36634
1.36633
1.36633
1.36631
1.3663
1.36628
1.36626
1.36624
1.36621
1.36618
1.36614
1.3661
1.36605
1.366
1.36595
1.36589
1.36583
1.36576
1.36569
1.36562
1.36554
1.36546
1.36537
1.36529
1.36519
1.3651
1.365
1.3649
1.36479
1.36468
1.36457
1.36445
1.36433
1.3642
1.36407
1.36393
1.36379
1.36364
1.36348
1.36331
1.36313
1.36294
1.36274
1.36252
1.36228
1.36203
1.36176
1.36146
1.36114
1.3608
1.36043
1.36004
1.35961
1.35915
1.35867
1.35815
1.3576
1.35701
1.3564
1.35575
1.35507
1.35436
1.35362
1.35286
1.35207
1.35126
1.35042
1.34957
1.3487
1.34782
1.34693
1.34602
1.34511
1.3442
1.34328
1.34237
1.34145
1.34054
1.33963
1.33873
1.33784
1.33696
1.33608
1.33522
1.33437
1.33354
1.33271
1.33191
1.33111
1.33034
1.32958
1.32883
1.3281
1.32739
1.32669
1.32601
1.32535
1.3247
1.32407
1.32346
1.32286
1.32228
1.32171
1.32116
1.32062
1.3201
1.31959
1.3191
1.31862
1.31816
1.31771
1.31728
1.31685
1.31645
1.31605
1.31567
1.3153
1.31494
1.31459
1.31426
1.31393
1.31362
1.31332
1.31303
1.31276
1.31249
1.31224
1.31199
1.31175
1.31153
1.31131
1.31111
1.31091
1.31073
1.31055
1.31038
1.31023
1.31008
1.30994
1.30981
1.30969
1.30958
1.30947
1.30938
1.3093
1.30922
1.30915
1.3091
1.30907
1.30901
1.30896
1.309
1.30901
1.30889
1.3089
1.30916
1.309
1.30851
1.30894
1.30963
1.30792
1.30645
1.30911
1.30856
1.2987
1.29323
1.33608
1.33706
1.33633
1.33562
1.33558
1.33501
1.33428
1.33379
1.33323
1.33255
1.33195
1.33136
1.33074
1.33013
1.32955
1.32898
1.32841
1.32788
1.32735
1.32684
1.32636
1.32589
1.32544
1.32501
1.3246
1.32421
1.32384
1.32349
1.32316
1.32285
1.32256
1.32228
1.32202
1.32179
1.32157
1.32136
1.32118
1.32101
1.32085
1.32072
1.3206
1.3205
1.32041
1.32034
1.32028
1.32024
1.32022
1.32021
1.32022
1.32025
1.32029
1.32035
1.32042
1.32051
1.32062
1.32075
1.3209
1.32106
1.32125
1.32145
1.32168
1.32192
1.32219
1.32248
1.32279
1.32312
1.32348
1.32386
1.32426
1.32469
1.32515
1.32563
1.32614
1.32667
1.32723
1.32782
1.32844
1.32908
1.32975
1.33045
1.33117
1.33192
1.3327
1.3335
1.33432
1.33517
1.33603
1.33692
1.33783
1.33875
1.33968
1.34063
1.34158
1.34255
1.34352
1.34449
1.34546
1.34643
1.34739
1.34835
1.34929
1.35022
1.35114
1.35203
1.35291
1.35376
1.35459
1.35539
1.35616
1.3569
1.35761
1.35829
1.35893
1.35953
1.3601
1.36064
1.36114
1.36161
1.36204
1.36244
1.36281
1.36315
1.36346
1.36374
1.36399
1.36422
1.36443
1.36461
1.36478
1.36492
1.36505
1.36516
1.36526
1.36535
1.36542
1.36548
1.36554
1.36558
1.36562
1.36565
1.36568
1.3657
1.36572
1.36573
1.36574
1.36575
1.36575
1.36576
1.36576
1.36576
1.36576
1.36577
1.36577
1.36577
1.36577
1.36577
1.36577
1.36577
1.36577
1.36577
1.36577
1.36577
1.36578
1.36578
1.36578
1.36579
1.36579
1.36579
1.3658
1.3658
1.36581
1.36581
1.36582
1.36582
1.36583
1.36584
1.36584
1.36585
1.36585
1.36586
1.36586
1.36587
1.36588
1.36588
1.36589
1.36589
1.3659
1.3659
1.36591
1.36592
1.36592
1.36593
1.36593
1.36594
1.36595
1.36595
1.36596
1.36596
1.36597
1.36598
1.36599
1.36599
1.366
1.36601
1.36602
1.36603
1.36604
1.36605
1.36606
1.36607
1.36608
1.3661
1.36611
1.36612
1.36613
1.36615
1.36616
1.36617
1.36619
1.3662
1.36622
1.36623
1.36624
1.36626
1.36627
1.36628
1.36629
1.3663
1.36631
1.36632
1.36632
1.36633
1.36633
1.36633
1.36633
1.36632
1.36631
1.3663
1.36629
1.36627
1.36625
1.36622
1.3662
1.36616
1.36613
1.36608
1.36604
1.36599
1.36593
1.36588
1.36581
1.36575
1.36568
1.3656
1.36552
1.36544
1.36535
1.36526
1.36517
1.36507
1.36497
1.36487
1.36476
1.36465
1.36453
1.36441
1.36429
1.36416
1.36403
1.36389
1.36374
1.36359
1.36343
1.36326
1.36308
1.36289
1.36268
1.36246
1.36222
1.36197
1.36169
1.3614
1.36108
1.36074
1.36037
1.35997
1.35955
1.35909
1.3586
1.35809
1.35754
1.35695
1.35634
1.35569
1.35502
1.35431
1.35357
1.35281
1.35202
1.35121
1.35038
1.34953
1.34867
1.34779
1.3469
1.346
1.34509
1.34418
1.34327
1.34235
1.34144
1.34053
1.33963
1.33873
1.33784
1.33696
1.33609
1.33523
1.33438
1.33355
1.33273
1.33192
1.33113
1.33036
1.3296
1.32885
1.32812
1.32741
1.32672
1.32604
1.32538
1.32473
1.3241
1.32349
1.32289
1.3223
1.32174
1.32119
1.32065
1.32013
1.31962
1.31913
1.31865
1.31819
1.31774
1.3173
1.31688
1.31647
1.31607
1.31568
1.31531
1.31495
1.31461
1.31427
1.31395
1.31363
1.31333
1.31304
1.31276
1.3125
1.31224
1.31199
1.31175
1.31153
1.31131
1.3111
1.31091
1.31072
1.31054
1.31037
1.31021
1.31006
1.30992
1.30978
1.30966
1.30954
1.30944
1.30933
1.30924
1.30917
1.30909
1.30902
1.30898
1.30896
1.30886
1.30882
1.30893
1.30886
1.30857
1.30882
1.30922
1.30837
1.30779
1.30965
1.30932
1.30454
1.30654
1.31337
1.30102
1.28888
1.3365
1.33657
1.33643
1.33617
1.33563
1.33496
1.33448
1.33389
1.33322
1.33261
1.33201
1.33137
1.33075
1.33015
1.32956
1.32898
1.32842
1.32787
1.32734
1.32684
1.32635
1.32588
1.32543
1.325
1.32459
1.3242
1.32383
1.32348
1.32315
1.32284
1.32254
1.32227
1.32201
1.32178
1.32155
1.32135
1.32117
1.321
1.32084
1.32071
1.32059
1.32049
1.3204
1.32033
1.32027
1.32023
1.32021
1.3202
1.32021
1.32023
1.32027
1.32033
1.32041
1.3205
1.32061
1.32073
1.32088
1.32104
1.32122
1.32143
1.32165
1.32189
1.32216
1.32244
1.32275
1.32308
1.32343
1.32381
1.32421
1.32464
1.32509
1.32557
1.32608
1.32661
1.32717
1.32775
1.32836
1.32901
1.32967
1.33037
1.33109
1.33184
1.33261
1.33341
1.33423
1.33507
1.33594
1.33683
1.33773
1.33865
1.33959
1.34053
1.34149
1.34246
1.34343
1.3444
1.34538
1.34635
1.34732
1.34828
1.34922
1.35016
1.35108
1.35198
1.35287
1.35372
1.35456
1.35536
1.35614
1.35688
1.3576
1.35828
1.35892
1.35953
1.36011
1.36065
1.36115
1.36162
1.36206
1.36246
1.36283
1.36317
1.36348
1.36376
1.36402
1.36425
1.36445
1.36463
1.3648
1.36494
1.36507
1.36518
1.36528
1.36536
1.36544
1.3655
1.36555
1.3656
1.36563
1.36567
1.36569
1.36571
1.36573
1.36574
1.36575
1.36576
1.36576
1.36577
1.36577
1.36577
1.36577
1.36577
1.36578
1.36578
1.36578
1.36578
1.36578
1.36578
1.36578
1.36578
1.36578
1.36578
1.36579
1.36579
1.36579
1.3658
1.3658
1.3658
1.36581
1.36581
1.36582
1.36582
1.36583
1.36583
1.36584
1.36585
1.36585
1.36586
1.36586
1.36587
1.36587
1.36588
1.36589
1.36589
1.3659
1.3659
1.36591
1.36591
1.36592
1.36592
1.36593
1.36594
1.36594
1.36595
1.36595
1.36596
1.36597
1.36597
1.36598
1.36599
1.36599
1.366
1.36601
1.36602
1.36603
1.36604
1.36604
1.36605
1.36606
1.36608
1.36609
1.3661
1.36611
1.36612
1.36613
1.36615
1.36616
1.36617
1.36619
1.3662
1.36621
1.36623
1.36624
1.36625
1.36627
1.36628
1.36629
1.3663
1.36631
1.36631
1.36632
1.36632
1.36632
1.36632
1.36632
1.36632
1.36631
1.3663
1.36628
1.36626
1.36624
1.36622
1.36619
1.36616
1.36612
1.36608
1.36603
1.36598
1.36593
1.36587
1.3658
1.36574
1.36566
1.36559
1.36551
1.36542
1.36534
1.36525
1.36515
1.36505
1.36495
1.36484
1.36474
1.36462
1.36451
1.36439
1.36426
1.36413
1.364
1.36386
1.36371
1.36356
1.36339
1.36322
1.36304
1.36284
1.36264
1.36242
1.36218
1.36192
1.36165
1.36135
1.36103
1.36069
1.36032
1.35992
1.35949
1.35903
1.35855
1.35803
1.35748
1.35689
1.35628
1.35563
1.35495
1.35424
1.35351
1.35274
1.35196
1.35115
1.35032
1.34947
1.3486
1.34773
1.34684
1.34594
1.34503
1.34412
1.34321
1.3423
1.34139
1.34048
1.33958
1.33869
1.3378
1.33692
1.33605
1.3352
1.33435
1.33352
1.3327
1.3319
1.33111
1.33034
1.32958
1.32884
1.32812
1.32741
1.32671
1.32604
1.32538
1.32473
1.3241
1.32349
1.32289
1.32231
1.32175
1.3212
1.32066
1.32014
1.31963
1.31914
1.31866
1.3182
1.31775
1.31731
1.31689
1.31648
1.31608
1.3157
1.31533
1.31497
1.31462
1.31428
1.31396
1.31364
1.31334
1.31305
1.31277
1.3125
1.31224
1.312
1.31176
1.31153
1.31131
1.3111
1.3109
1.31072
1.31054
1.31036
1.3102
1.31005
1.3099
1.30977
1.30964
1.30952
1.30941
1.30932
1.30922
1.30913
1.30907
1.30901
1.30891
1.30888
1.30891
1.3088
1.30868
1.30886
1.30894
1.30845
1.30847
1.30936
1.30875
1.30707
1.30872
1.31038
1.30565
1.30361
1.30898
1.30962
1.33728
1.33696
1.3368
1.33642
1.33568
1.33512
1.33465
1.33392
1.33326
1.33267
1.33202
1.33136
1.33075
1.33014
1.32953
1.32895
1.32839
1.32784
1.32731
1.3268
1.32631
1.32584
1.32539
1.32496
1.32455
1.32416
1.32379
1.32344
1.32311
1.3228
1.3225
1.32223
1.32198
1.32174
1.32152
1.32132
1.32113
1.32096
1.32081
1.32068
1.32056
1.32046
1.32037
1.3203
1.32024
1.3202
1.32018
1.32017
1.32018
1.3202
1.32024
1.3203
1.32037
1.32046
1.32057
1.32069
1.32084
1.321
1.32118
1.32138
1.3216
1.32184
1.3221
1.32238
1.32269
1.32301
1.32336
1.32374
1.32413
1.32456
1.32501
1.32548
1.32598
1.32651
1.32707
1.32765
1.32826
1.32889
1.32956
1.33025
1.33097
1.33171
1.33249
1.33328
1.3341
1.33495
1.33581
1.3367
1.3376
1.33853
1.33946
1.34041
1.34138
1.34234
1.34332
1.3443
1.34528
1.34626
1.34723
1.3482
1.34915
1.35009
1.35102
1.35193
1.35282
1.35369
1.35453
1.35534
1.35613
1.35688
1.3576
1.35829
1.35894
1.35955
1.36013
1.36068
1.36119
1.36166
1.3621
1.3625
1.36287
1.36321
1.36352
1.3638
1.36406
1.36428
1.36449
1.36467
1.36483
1.36498
1.3651
1.36521
1.36531
1.36539
1.36546
1.36552
1.36558
1.36562
1.36566
1.36569
1.36571
1.36573
1.36575
1.36576
1.36577
1.36578
1.36578
1.36578
1.36579
1.36579
1.36579
1.36579
1.36579
1.36579
1.36579
1.36579
1.36579
1.36579
1.36579
1.36579
1.36579
1.3658
1.3658
1.3658
1.36581
1.36581
1.36581
1.36582
1.36582
1.36583
1.36583
1.36584
1.36584
1.36585
1.36585
1.36586
1.36587
1.36587
1.36588
1.36588
1.36589
1.3659
1.3659
1.36591
1.36591
1.36592
1.36592
1.36593
1.36593
1.36594
1.36595
1.36595
1.36596
1.36596
1.36597
1.36597
1.36598
1.36599
1.36599
1.366
1.36601
1.36601
1.36602
1.36603
1.36604
1.36605
1.36606
1.36606
1.36607
1.36608
1.3661
1.36611
1.36612
1.36613
1.36614
1.36615
1.36617
1.36618
1.36619
1.36621
1.36622
1.36623
1.36625
1.36626
1.36627
1.36628
1.36629
1.3663
1.36631
1.36632
1.36632
1.36632
1.36633
1.36633
1.36632
1.36632
1.36631
1.3663
1.36628
1.36627
1.36624
1.36622
1.36619
1.36615
1.36612
1.36608
1.36603
1.36598
1.36592
1.36586
1.3658
1.36573
1.36566
1.36558
1.3655
1.36542
1.36533
1.36524
1.36514
1.36504
1.36494
1.36483
1.36472
1.36461
1.36449
1.36437
1.36424
1.36411
1.36398
1.36383
1.36369
1.36353
1.36337
1.36319
1.36301
1.36281
1.36261
1.36238
1.36214
1.36188
1.36161
1.36131
1.36098
1.36064
1.36026
1.35986
1.35943
1.35897
1.35848
1.35796
1.3574
1.35681
1.35619
1.35554
1.35486
1.35415
1.35341
1.35264
1.35185
1.35104
1.3502
1.34935
1.34849
1.34761
1.34672
1.34582
1.34492
1.34401
1.3431
1.34219
1.34128
1.34037
1.33947
1.33858
1.3377
1.33682
1.33596
1.33511
1.33427
1.33344
1.33263
1.33183
1.33105
1.33028
1.32952
1.32879
1.32807
1.32736
1.32667
1.326
1.32535
1.3247
1.32408
1.32347
1.32288
1.3223
1.32174
1.32119
1.32066
1.32014
1.31963
1.31914
1.31867
1.31821
1.31776
1.31732
1.3169
1.31649
1.3161
1.31571
1.31534
1.31498
1.31463
1.3143
1.31397
1.31366
1.31336
1.31307
1.31279
1.31252
1.31226
1.31201
1.31177
1.31155
1.31133
1.31112
1.31092
1.31073
1.31055
1.31038
1.31022
1.31006
1.30992
1.30978
1.30966
1.30954
1.30943
1.30933
1.30924
1.30915
1.30907
1.30904
1.30898
1.30888
1.3089
1.30895
1.3088
1.30872
1.30906
1.30904
1.30842
1.3089
1.30991
1.30839
1.30746
1.31085
1.31017
1.30524
1.30857
1.31111
1.33818
1.33774
1.33719
1.33653
1.33598
1.33539
1.33466
1.33396
1.33335
1.33267
1.33198
1.33135
1.33072
1.33008
1.32948
1.32889
1.32832
1.32776
1.32723
1.32672
1.32623
1.32576
1.32531
1.32488
1.32447
1.32408
1.32371
1.32337
1.32304
1.32273
1.32244
1.32217
1.32191
1.32168
1.32146
1.32126
1.32108
1.32091
1.32076
1.32062
1.32051
1.3204
1.32032
1.32025
1.32019
1.32015
1.32013
1.32012
1.32013
1.32015
1.32019
1.32024
1.32031
1.3204
1.32051
1.32063
1.32077
1.32093
1.32111
1.32131
1.32152
1.32176
1.32202
1.3223
1.3226
1.32292
1.32327
1.32364
1.32403
1.32445
1.32489
1.32536
1.32586
1.32638
1.32693
1.32751
1.32812
1.32875
1.32941
1.3301
1.33081
1.33156
1.33233
1.33312
1.33394
1.33479
1.33565
1.33654
1.33745
1.33837
1.33931
1.34027
1.34123
1.34221
1.34319
1.34417
1.34516
1.34614
1.34712
1.3481
1.34906
1.35002
1.35095
1.35187
1.35277
1.35365
1.3545
1.35532
1.35612
1.35688
1.35761
1.3583
1.35896
1.35958
1.36017
1.36072
1.36123
1.36171
1.36215
1.36255
1.36293
1.36327
1.36358
1.36386
1.36411
1.36434
1.36454
1.36472
1.36488
1.36502
1.36515
1.36526
1.36535
1.36543
1.3655
1.36556
1.36561
1.36565
1.36569
1.36571
1.36574
1.36576
1.36577
1.36578
1.36579
1.3658
1.3658
1.3658
1.36581
1.36581
1.36581
1.36581
1.36581
1.36581
1.36581
1.36581
1.36581
1.36581
1.36581
1.36581
1.36581
1.36581
1.36582
1.36582
1.36582
1.36583
1.36583
1.36584
1.36584
1.36585
1.36585
1.36586
1.36586
1.36587
1.36587
1.36588
1.36589
1.36589
1.3659
1.3659
1.36591
1.36592
1.36592
1.36593
1.36593
1.36594
1.36594
1.36595
1.36595
1.36596
1.36597
1.36597
1.36598
1.36598
1.36599
1.36599
1.366
1.36601
1.36601
1.36602
1.36602
1.36603
1.36604
1.36605
1.36605
1.36606
1.36607
1.36608
1.36609
1.3661
1.36611
1.36612
1.36613
1.36614
1.36616
1.36617
1.36618
1.36619
1.36621
1.36622
1.36623
1.36624
1.36626
1.36627
1.36628
1.36629
1.3663
1.36631
1.36632
1.36632
1.36633
1.36633
1.36633
1.36633
1.36633
1.36632
1.36632
1.3663
1.36629
1.36627
1.36625
1.36622
1.36619
1.36616
1.36612
1.36608
1.36603
1.36598
1.36592
1.36586
1.3658
1.36573
1.36566
1.36558
1.3655
1.36541
1.36532
1.36523
1.36514
1.36504
1.36493
1.36482
1.36471
1.3646
1.36448
1.36436
1.36423
1.3641
1.36396
1.36382
1.36367
1.36352
1.36335
1.36318
1.36299
1.3628
1.36258
1.36236
1.36212
1.36185
1.36157
1.36127
1.36094
1.36059
1.36021
1.35981
1.35937
1.3589
1.3584
1.35787
1.35731
1.35671
1.35608
1.35542
1.35473
1.35401
1.35327
1.35249
1.3517
1.35088
1.35004
1.34919
1.34832
1.34743
1.34654
1.34564
1.34474
1.34383
1.34292
1.34201
1.3411
1.3402
1.3393
1.33841
1.33753
1.33666
1.3358
1.33495
1.33412
1.3333
1.33249
1.3317
1.33092
1.33016
1.32942
1.32868
1.32797
1.32728
1.32659
1.32593
1.32528
1.32464
1.32403
1.32342
1.32284
1.32226
1.32171
1.32117
1.32064
1.32012
1.31962
1.31914
1.31867
1.31821
1.31776
1.31733
1.31691
1.31651
1.31611
1.31573
1.31536
1.315
1.31466
1.31433
1.314
1.31369
1.31339
1.3131
1.31282
1.31255
1.3123
1.31205
1.31181
1.31159
1.31137
1.31116
1.31096
1.31077
1.3106
1.31043
1.31026
1.31011
1.30997
1.30984
1.30971
1.3096
1.3095
1.30939
1.30931
1.30925
1.30917
1.3091
1.30911
1.30908
1.30897
1.30902
1.30921
1.30904
1.30887
1.30945
1.30968
1.30873
1.30921
1.31105
1.30967
1.30799
1.31129
1.31311
1.31011
1.30979
1.33922
1.3384
1.33765
1.3369
1.33627
1.33551
1.33472
1.33406
1.33337
1.33262
1.33195
1.3313
1.33063
1.32999
1.32938
1.32878
1.3282
1.32765
1.32712
1.3266
1.32611
1.32564
1.32519
1.32476
1.32436
1.32397
1.32361
1.32326
1.32294
1.32263
1.32234
1.32207
1.32182
1.32159
1.32138
1.32118
1.321
1.32083
1.32068
1.32055
1.32043
1.32033
1.32025
1.32018
1.32012
1.32008
1.32006
1.32005
1.32006
1.32008
1.32012
1.32017
1.32024
1.32033
1.32043
1.32055
1.32069
1.32085
1.32102
1.32122
1.32143
1.32166
1.32191
1.32219
1.32248
1.3228
1.32314
1.32351
1.3239
1.32431
1.32475
1.32521
1.32571
1.32622
1.32677
1.32734
1.32794
1.32857
1.32923
1.32991
1.33063
1.33137
1.33214
1.33293
1.33375
1.33459
1.33546
1.33635
1.33726
1.33819
1.33913
1.34009
1.34106
1.34204
1.34303
1.34402
1.34501
1.34601
1.347
1.34798
1.34896
1.34992
1.35087
1.3518
1.35271
1.3536
1.35446
1.3553
1.3561
1.35688
1.35762
1.35832
1.35899
1.35962
1.36021
1.36077
1.36129
1.36177
1.36221
1.36262
1.36299
1.36333
1.36364
1.36392
1.36417
1.3644
1.3646
1.36478
1.36494
1.36508
1.3652
1.3653
1.3654
1.36547
1.36554
1.3656
1.36565
1.36568
1.36572
1.36575
1.36577
1.36578
1.3658
1.36581
1.36582
1.36582
1.36583
1.36583
1.36583
1.36583
1.36583
1.36583
1.36583
1.36583
1.36583
1.36583
1.36583
1.36583
1.36583
1.36583
1.36583
1.36584
1.36584
1.36584
1.36585
1.36585
1.36585
1.36586
1.36586
1.36587
1.36587
1.36588
1.36589
1.36589
1.3659
1.3659
1.36591
1.36592
1.36592
1.36593
1.36594
1.36594
1.36595
1.36595
1.36596
1.36596
1.36597
1.36598
1.36598
1.36599
1.36599
1.366
1.366
1.36601
1.36601
1.36602
1.36602
1.36603
1.36604
1.36604
1.36605
1.36606
1.36606
1.36607
1.36608
1.36609
1.36609
1.3661
1.36611
1.36612
1.36613
1.36614
1.36615
1.36616
1.36617
1.36619
1.3662
1.36621
1.36622
1.36623
1.36625
1.36626
1.36627
1.36628
1.36629
1.3663
1.36631
1.36632
1.36633
1.36634
1.36634
1.36634
1.36635
1.36634
1.36634
1.36633
1.36633
1.36631
1.3663
1.36628
1.36626
1.36623
1.3662
1.36617
1.36613
1.36609
1.36604
1.36599
1.36593
1.36587
1.3658
1.36574
1.36566
1.36558
1.3655
1.36542
1.36533
1.36523
1.36514
1.36504
1.36493
1.36483
1.36471
1.3646
1.36448
1.36436
1.36423
1.3641
1.36396
1.36382
1.36367
1.36351
1.36335
1.36317
1.36299
1.36279
1.36257
1.36234
1.3621
1.36183
1.36155
1.36124
1.36091
1.36055
1.36016
1.35975
1.3593
1.35882
1.35831
1.35777
1.35719
1.35659
1.35595
1.35527
1.35457
1.35384
1.35309
1.3523
1.3515
1.35067
1.34983
1.34896
1.34809
1.3472
1.34631
1.3454
1.3445
1.34359
1.34267
1.34177
1.34086
1.33996
1.33906
1.33817
1.3373
1.33643
1.33557
1.33473
1.3339
1.33309
1.33229
1.33151
1.33074
1.32998
1.32925
1.32853
1.32782
1.32714
1.32647
1.32581
1.32517
1.32455
1.32394
1.32334
1.32277
1.3222
1.32166
1.32112
1.3206
1.3201
1.3196
1.31913
1.31866
1.31821
1.31777
1.31734
1.31693
1.31653
1.31614
1.31576
1.3154
1.31504
1.3147
1.31437
1.31405
1.31374
1.31344
1.31316
1.31288
1.31262
1.31236
1.31212
1.31188
1.31166
1.31144
1.31124
1.31104
1.31086
1.31068
1.31051
1.31036
1.31021
1.31007
1.30994
1.30982
1.30972
1.30962
1.30954
1.30945
1.3094
1.30936
1.3093
1.30926
1.30933
1.30933
1.30924
1.30939
1.30967
1.30947
1.30945
1.31029
1.31039
1.30957
1.31081
1.31231
1.31092
1.31115
1.3137
1.31397
1.31463
1.34024
1.33898
1.33814
1.33731
1.33643
1.33559
1.33484
1.33408
1.33329
1.33257
1.33188
1.33117
1.3305
1.32986
1.32923
1.32863
1.32805
1.32749
1.32696
1.32644
1.32595
1.32549
1.32504
1.32462
1.32421
1.32383
1.32347
1.32313
1.32281
1.3225
1.32222
1.32196
1.32171
1.32148
1.32127
1.32107
1.3209
1.32073
1.32059
1.32046
1.32034
1.32024
1.32016
1.32009
1.32004
1.32
1.31997
1.31997
1.31997
1.31999
1.32003
1.32008
1.32015
1.32024
1.32034
1.32046
1.32059
1.32074
1.32091
1.3211
1.32131
1.32154
1.32179
1.32206
1.32235
1.32266
1.323
1.32336
1.32374
1.32415
1.32458
1.32504
1.32552
1.32603
1.32658
1.32714
1.32774
1.32836
1.32902
1.3297
1.33041
1.33114
1.33191
1.3327
1.33352
1.33436
1.33523
1.33612
1.33703
1.33796
1.33891
1.33987
1.34085
1.34184
1.34283
1.34383
1.34484
1.34584
1.34684
1.34784
1.34883
1.3498
1.35077
1.35171
1.35264
1.35354
1.35442
1.35527
1.35609
1.35687
1.35762
1.35834
1.35902
1.35966
1.36026
1.36083
1.36135
1.36184
1.36228
1.36269
1.36307
1.36341
1.36372
1.364
1.36425
1.36447
1.36467
1.36485
1.365
1.36514
1.36526
1.36536
1.36545
1.36552
1.36559
1.36564
1.36569
1.36573
1.36576
1.36578
1.3658
1.36582
1.36583
1.36584
1.36585
1.36585
1.36585
1.36585
1.36586
1.36586
1.36586
1.36585
1.36585
1.36585
1.36585
1.36585
1.36585
1.36585
1.36586
1.36586
1.36586
1.36586
1.36586
1.36587
1.36587
1.36588
1.36588
1.36589
1.36589
1.3659
1.3659
1.36591
1.36591
1.36592
1.36593
1.36593
1.36594
1.36595
1.36595
1.36596
1.36597
1.36597
1.36598
1.36598
1.36599
1.36599
1.366
1.36601
1.36601
1.36602
1.36602
1.36603
1.36603
1.36604
1.36604
1.36605
1.36605
1.36606
1.36607
1.36607
1.36608
1.36608
1.36609
1.3661
1.36611
1.36611
1.36612
1.36613
1.36614
1.36615
1.36616
1.36617
1.36618
1.36619
1.3662
1.36621
1.36622
1.36623
1.36624
1.36626
1.36627
1.36628
1.36629
1.3663
1.36631
1.36632
1.36633
1.36634
1.36635
1.36635
1.36636
1.36636
1.36636
1.36636
1.36636
1.36635
1.36634
1.36633
1.36631
1.36629
1.36627
1.36624
1.36621
1.36618
1.36614
1.36609
1.36605
1.36599
1.36594
1.36588
1.36581
1.36574
1.36567
1.36559
1.36551
1.36542
1.36533
1.36524
1.36514
1.36504
1.36494
1.36483
1.36472
1.36461
1.36449
1.36437
1.36424
1.36411
1.36397
1.36383
1.36368
1.36352
1.36335
1.36318
1.36299
1.36279
1.36257
1.36234
1.36209
1.36182
1.36153
1.36121
1.36087
1.3605
1.36011
1.35968
1.35922
1.35873
1.35821
1.35765
1.35706
1.35644
1.35579
1.3551
1.35438
1.35364
1.35287
1.35207
1.35126
1.35042
1.34956
1.3487
1.34781
1.34692
1.34602
1.34511
1.3442
1.34329
1.34237
1.34146
1.34056
1.33966
1.33876
1.33788
1.337
1.33614
1.33529
1.33445
1.33363
1.33282
1.33203
1.33126
1.3305
1.32976
1.32903
1.32832
1.32763
1.32695
1.32629
1.32565
1.32502
1.32441
1.32382
1.32323
1.32267
1.32212
1.32158
1.32106
1.32055
1.32005
1.31957
1.3191
1.31865
1.3182
1.31777
1.31736
1.31695
1.31656
1.31617
1.3158
1.31544
1.3151
1.31476
1.31443
1.31412
1.31382
1.31352
1.31324
1.31297
1.31271
1.31246
1.31222
1.31199
1.31176
1.31155
1.31135
1.31116
1.31098
1.31081
1.31065
1.3105
1.31035
1.31022
1.3101
1.31
1.30989
1.30981
1.30974
1.30968
1.30962
1.3096
1.30962
1.30958
1.30957
1.30973
1.3098
1.3097
1.30998
1.31046
1.31023
1.31025
1.31152
1.31179
1.31092
1.31238
1.3145
1.31394
1.31395
1.31677
1.31881
1.34106
1.33957
1.33857
1.33756
1.33657
1.33571
1.33487
1.33401
1.33321
1.33248
1.33173
1.33101
1.33034
1.32968
1.32904
1.32843
1.32785
1.32729
1.32676
1.32625
1.32576
1.32529
1.32485
1.32443
1.32404
1.32366
1.3233
1.32297
1.32265
1.32235
1.32208
1.32182
1.32157
1.32135
1.32114
1.32095
1.32078
1.32062
1.32048
1.32035
1.32024
1.32014
1.32006
1.31999
1.31994
1.3199
1.31988
1.31987
1.31987
1.31989
1.31993
1.31998
1.32005
1.32013
1.32023
1.32034
1.32048
1.32063
1.32079
1.32098
1.32118
1.3214
1.32165
1.32191
1.3222
1.3225
1.32283
1.32319
1.32356
1.32396
1.32439
1.32484
1.32531
1.32582
1.32636
1.32691
1.32751
1.32813
1.32877
1.32945
1.33015
1.33088
1.33165
1.33244
1.33325
1.3341
1.33497
1.33586
1.33677
1.33771
1.33866
1.33963
1.34061
1.3416
1.34261
1.34362
1.34463
1.34564
1.34666
1.34767
1.34867
1.34966
1.35064
1.3516
1.35254
1.35346
1.35435
1.35522
1.35605
1.35686
1.35762
1.35836
1.35905
1.3597
1.36031
1.36088
1.36142
1.36191
1.36236
1.36277
1.36315
1.36349
1.3638
1.36408
1.36433
1.36455
1.36475
1.36492
1.36507
1.3652
1.36532
1.36542
1.3655
1.36558
1.36564
1.36569
1.36573
1.36577
1.3658
1.36582
1.36584
1.36585
1.36586
1.36587
1.36588
1.36588
1.36588
1.36588
1.36588
1.36588
1.36588
1.36588
1.36588
1.36588
1.36588
1.36588
1.36588
1.36588
1.36588
1.36589
1.36589
1.36589
1.36589
1.3659
1.3659
1.36591
1.36591
1.36592
1.36592
1.36593
1.36593
1.36594
1.36595
1.36595
1.36596
1.36597
1.36597
1.36598
1.36599
1.36599
1.366
1.36601
1.36601
1.36602
1.36602
1.36603
1.36604
1.36604
1.36605
1.36605
1.36606
1.36606
1.36607
1.36607
1.36608
1.36608
1.36609
1.36609
1.3661
1.36611
1.36611
1.36612
1.36613
1.36613
1.36614
1.36615
1.36615
1.36616
1.36617
1.36618
1.36619
1.3662
1.36621
1.36622
1.36623
1.36624
1.36625
1.36626
1.36627
1.36628
1.36629
1.36631
1.36632
1.36633
1.36634
1.36635
1.36636
1.36636
1.36637
1.36638
1.36638
1.36638
1.36638
1.36638
1.36637
1.36637
1.36636
1.36634
1.36633
1.36631
1.36628
1.36626
1.36623
1.36619
1.36615
1.36611
1.36606
1.36601
1.36595
1.36589
1.36582
1.36575
1.36568
1.3656
1.36552
1.36543
1.36534
1.36525
1.36515
1.36505
1.36495
1.36484
1.36473
1.36462
1.3645
1.36438
1.36425
1.36412
1.36398
1.36384
1.36369
1.36353
1.36337
1.36319
1.363
1.36279
1.36258
1.36234
1.36208
1.36181
1.36151
1.36119
1.36084
1.36046
1.36005
1.35961
1.35914
1.35864
1.3581
1.35752
1.35691
1.35627
1.3556
1.35489
1.35416
1.3534
1.35261
1.3518
1.35098
1.35013
1.34926
1.34838
1.34749
1.34659
1.34568
1.34477
1.34386
1.34294
1.34203
1.34111
1.3402
1.33931
1.33841
1.33753
1.33666
1.3358
1.33495
1.33412
1.33331
1.33251
1.33173
1.33096
1.33021
1.32948
1.32876
1.32806
1.32739
1.32673
1.32608
1.32545
1.32484
1.32424
1.32366
1.32309
1.32254
1.322
1.32148
1.32097
1.32048
1.31999
1.31953
1.31907
1.31863
1.3182
1.31778
1.31737
1.31697
1.31659
1.31622
1.31585
1.3155
1.31516
1.31484
1.31452
1.31421
1.31391
1.31363
1.31335
1.31309
1.31283
1.31259
1.31235
1.31212
1.31191
1.3117
1.31151
1.31132
1.31115
1.31098
1.31083
1.31068
1.31055
1.31043
1.31032
1.31022
1.31014
1.31006
1.31
1.30997
1.30994
1.30991
1.30994
1.31002
1.31001
1.31007
1.31034
1.31046
1.31042
1.31091
1.31149
1.3113
1.31169
1.3131
1.31338
1.31331
1.31489
1.31644
1.31727
1.3186
1.32019
1.34164
1.34
1.33885
1.3377
1.33668
1.33573
1.33478
1.33391
1.3331
1.3323
1.33152
1.33081
1.33012
1.32944
1.3288
1.3282
1.32761
1.32705
1.32652
1.32601
1.32553
1.32507
1.32463
1.32422
1.32383
1.32346
1.32311
1.32278
1.32247
1.32218
1.32191
1.32166
1.32142
1.3212
1.321
1.32081
1.32064
1.32049
1.32035
1.32022
1.32012
1.32002
1.31994
1.31988
1.31982
1.31979
1.31976
1.31976
1.31976
1.31978
1.31982
1.31987
1.31993
1.32001
1.32011
1.32022
1.32035
1.32049
1.32065
1.32084
1.32103
1.32125
1.32149
1.32175
1.32202
1.32232
1.32265
1.32299
1.32336
1.32376
1.32417
1.32461
1.32509
1.32559
1.3261
1.32666
1.32725
1.32785
1.32849
1.32917
1.32986
1.33059
1.33135
1.33214
1.33295
1.3338
1.33466
1.33556
1.33647
1.33741
1.33836
1.33934
1.34033
1.34133
1.34234
1.34336
1.34439
1.34541
1.34644
1.34746
1.34848
1.34948
1.35048
1.35146
1.35242
1.35335
1.35427
1.35515
1.35601
1.35683
1.35762
1.35836
1.35907
1.35974
1.36036
1.36094
1.36148
1.36198
1.36244
1.36286
1.36323
1.36358
1.36389
1.36416
1.36441
1.36463
1.36482
1.365
1.36515
1.36527
1.36538
1.36548
1.36556
1.36563
1.36569
1.36574
1.36578
1.36581
1.36584
1.36586
1.36588
1.36589
1.3659
1.36591
1.36591
1.36592
1.36592
1.36592
1.36592
1.36592
1.36592
1.36591
1.36591
1.36591
1.36591
1.36591
1.36591
1.36591
1.36592
1.36592
1.36592
1.36592
1.36593
1.36593
1.36594
1.36594
1.36595
1.36595
1.36596
1.36596
1.36597
1.36598
1.36598
1.36599
1.366
1.366
1.36601
1.36602
1.36602