# vtk DataFile Version 2.0
LBE two cylinders
ASCII
DATASET STRUCTURED_POINTS
DIMENSIONS 400 100 1
ASPECT_RATIO 1 1 1
ORIGIN 0 0 0
POINT_DATA 40000
SCALARS rho double 1
LOOKUP_TABLE default
1.33806
1.33528
1.33555
1.33556
1.33462
1.33408
1.33374
1.33306
1.33242
1.33188
1.33127
1.33064
1.33005
1.32947
1.32888
1.32832
1.32777
1.32724
1.32672
1.32623
1.32575
1.32529
1.32485
1.32444
1.32404
1.32366
1.3233
1.32296
1.32264
1.32234
1.32205
1.32179
1.32154
1.32131
1.3211
1.3209
1.32072
1.32056
1.32041
1.32028
1.32016
1.32006
1.31997
1.3199
1.31984
1.3198
1.31977
1.31976
1.31976
1.31978
1.31981
1.31986
1.31992
1.32001
1.3201
1.32021
1.32035
1.32049
1.32066
1.32085
1.32105
1.32128
1.32153
1.3218
1.32209
1.3224
1.32274
1.3231
1.32349
1.32391
1.32434
1.32481
1.3253
1.32582
1.32637
1.32695
1.32756
1.32819
1.32885
1.32954
1.33026
1.331
1.33177
1.33257
1.33339
1.33424
1.3351
1.33599
1.3369
1.33782
1.33876
1.33971
1.34068
1.34165
1.34263
1.34361
1.34459
1.34557
1.34655
1.34752
1.34848
1.34943
1.35036
1.35128
1.35218
1.35305
1.3539
1.35473
1.35552
1.35629
1.35702
1.35773
1.3584
1.35904
1.35964
1.36021
1.36075
1.36125
1.36172
1.36216
1.36257
1.36294
1.36329
1.36362
1.36391
1.36418
1.36443
1.36466
1.36487
1.36506
1.36523
1.36539
1.36553
1.36566
1.36578
1.36588
1.36598
1.36607
1.36614
1.36622
1.36628
1.36634
1.36639
1.36644
1.36649
1.36653
1.36657
1.36661
1.36664
1.36667
1.3667
1.36673
1.36676
1.36678
1.36681
1.36683
1.36685
1.36688
1.3669
1.36692
1.36694
1.36696
1.36698
1.367
1.36702
1.36704
1.36706
1.36707
1.36709
1.36711
1.36713
1.36715
1.36716
1.36718
1.3672
1.36722
1.36723
1.36725
1.36727
1.36728
1.3673
1.36732
1.36733
1.36735
1.36737
1.36738
1.3674
1.36741
1.36743
1.36745
1.36746
1.36748
1.36749
1.36751
1.36753
1.36754
1.36756
1.36758
1.36759
1.36761
1.36763
1.36764
1.36766
1.36768
1.36769
1.36771
1.36773
1.36774
1.36776
1.36778
1.36779
1.36781
1.36782
1.36784
1.36785
1.36787
1.36788
1.36789
1.3679
1.36791
1.36792
1.36793
1.36793
1.36794
1.36794
1.36794
1.36794
1.36794
1.36793
1.36792
1.36791
1.3679
1.36788
1.36786
1.36783
1.36781
1.36777
1.36774
1.3677
1.36765
1.3676
1.36755
1.36749
1.36743
1.36736
1.36728
1.36721
1.36712
1.36704
1.36694
1.36685
1.36675
1.36664
1.36653
1.36642
1.3663
1.36618
1.36605
1.36592
1.36579
1.36565
1.36551
1.36537
1.36522
1.36507
1.36492
1.36476
1.36459
1.36442
1.36425
1.36406
1.36387
1.36367
1.36347
1.36325
1.36302
1.36278
1.36252
1.36224
1.36195
1.36164
1.36131
1.36095
1.36057
1.36017
1.35973
1.35927
1.35878
1.35826
1.3577
1.35712
1.3565
1.35585
1.35517
1.35446
1.35372
1.35295
1.35216
1.35134
1.35051
1.34965
1.34877
1.34788
1.34698
1.34607
1.34515
1.34422
1.3433
1.34237
1.34144
1.34052
1.3396
1.33869
1.33778
1.33689
1.33601
1.33514
1.33428
1.33344
1.33261
1.3318
1.33101
1.33023
1.32947
1.32872
1.32799
1.32728
1.32659
1.32591
1.32526
1.32461
1.32399
1.32338
1.32279
1.32222
1.32166
1.32111
1.32058
1.32007
1.31957
1.31909
1.31861
1.31816
1.31771
1.31728
1.31686
1.31645
1.31606
1.31567
1.3153
1.31494
1.31459
1.31425
1.31392
1.3136
1.3133
1.313
1.31271
1.31243
1.31216
1.3119
1.31165
1.31141
1.31118
1.31096
1.31074
1.31054
1.31035
1.31016
1.30998
1.30982
1.30966
1.30951
1.30937
1.30924
1.30912
1.30901
1.30891
1.30882
1.30874
1.30868
1.30863
1.30856
1.30853
1.30856
1.30852
1.30843
1.30858
1.30875
1.30842
1.30831
1.30926
1.30916
1.30712
1.3081
1.312
1.3074
1.2987
1.30925
1.31831
1.33616
1.33628
1.33578
1.33509
1.33478
1.33428
1.33368
1.33309
1.33254
1.33192
1.3313
1.33071
1.33011
1.32951
1.32894
1.32837
1.32782
1.32729
1.32677
1.32628
1.3258
1.32534
1.3249
1.32448
1.32408
1.3237
1.32334
1.323
1.32268
1.32237
1.32209
1.32182
1.32158
1.32135
1.32113
1.32094
1.32075
1.32059
1.32044
1.32031
1.32019
1.32009
1.32
1.31993
1.31987
1.31983
1.3198
1.31979
1.31979
1.31981
1.31984
1.31989
1.31995
1.32003
1.32012
1.32024
1.32037
1.32052
1.32068
1.32087
1.32107
1.3213
1.32154
1.32181
1.3221
1.32242
1.32275
1.32312
1.3235
1.32391
1.32435
1.32481
1.3253
1.32583
1.32637
1.32695
1.32755
1.32818
1.32884
1.32953
1.33024
1.33098
1.33175
1.33254
1.33336
1.3342
1.33507
1.33595
1.33686
1.33778
1.33871
1.33966
1.34062
1.34159
1.34257
1.34355
1.34453
1.34551
1.34649
1.34746
1.34842
1.34937
1.3503
1.35122
1.35211
1.35299
1.35384
1.35466
1.35546
1.35623
1.35697
1.35767
1.35835
1.35899
1.35959
1.36016
1.3607
1.36121
1.36168
1.36212
1.36253
1.36291
1.36326
1.36359
1.36389
1.36416
1.36441
1.36464
1.36485
1.36504
1.36521
1.36537
1.36552
1.36565
1.36576
1.36587
1.36597
1.36605
1.36613
1.36621
1.36627
1.36633
1.36639
1.36644
1.36648
1.36652
1.36656
1.3666
1.36663
1.36666
1.36669
1.36672
1.36675
1.36677
1.3668
1.36682
1.36684
1.36687
1.36689
1.36691
1.36693
1.36695
1.36697
1.36699
1.36701
1.36702
1.36704
1.36706
1.36708
1.3671
1.36712
1.36713
1.36715
1.36717
1.36719
1.3672
1.36722
1.36724
1.36725
1.36727
1.36729
1.3673
1.36732
1.36733
1.36735
1.36737
1.36738
1.3674
1.36741
1.36743
1.36745
1.36746
1.36748
1.36749
1.36751
1.36753
1.36754
1.36756
1.36757
1.36759
1.36761
1.36762
1.36764
1.36766
1.36767
1.36769
1.36771
1.36772
1.36774
1.36775
1.36777
1.36779
1.3678
1.36781
1.36783
1.36784
1.36785
1.36787
1.36788
1.36789
1.36789
1.3679
1.36791
1.36791
1.36791
1.36791
1.36791
1.36791
1.3679
1.36789
1.36788
1.36787
1.36785
1.36783
1.3678
1.36778
1.36774
1.36771
1.36767
1.36762
1.36757
1.36752
1.36746
1.3674
1.36733
1.36725
1.36718
1.36709
1.36701
1.36691
1.36682
1.36671
1.36661
1.3665
1.36638
1.36627
1.36614
1.36602
1.36589
1.36575
1.36561
1.36547
1.36533
1.36518
1.36503
1.36487
1.36471
1.36454
1.36437
1.36419
1.36401
1.36381
1.36361
1.3634
1.36318
1.36295
1.3627
1.36244
1.36217
1.36187
1.36156
1.36123
1.36087
1.36049
1.36009
1.35965
1.35919
1.3587
1.35818
1.35763
1.35704
1.35643
1.35578
1.35511
1.3544
1.35366
1.3529
1.35211
1.3513
1.35047
1.34961
1.34874
1.34786
1.34696
1.34606
1.34514
1.34422
1.3433
1.34237
1.34145
1.34053
1.33962
1.33871
1.33781
1.33692
1.33604
1.33518
1.33432
1.33348
1.33266
1.33185
1.33105
1.33028
1.32952
1.32877
1.32804
1.32734
1.32664
1.32597
1.32531
1.32467
1.32404
1.32343
1.32284
1.32227
1.32171
1.32116
1.32063
1.32012
1.31962
1.31913
1.31866
1.3182
1.31775
1.31732
1.3169
1.31649
1.31609
1.31571
1.31533
1.31497
1.31462
1.31428
1.31395
1.31363
1.31332
1.31302
1.31273
1.31245
1.31218
1.31192
1.31166
1.31142
1.31119
1.31096
1.31075
1.31054
1.31034
1.31016
1.30998
1.30981
1.30965
1.30949
1.30935
1.30922
1.30909
1.30898
1.30887
1.30878
1.30869
1.30861
1.30855
1.30851
1.30845
1.30839
1.30842
1.30842
1.3083
1.3083
1.30856
1.3084
1.30792
1.30835
1.30903
1.30733
1.30586
1.30852
1.30798
1.29814
1.29269
1.33547
1.33646
1.33572
1.335
1.33498
1.3344
1.33367
1.33318
1.33262
1.33195
1.33135
1.33077
1.33015
1.32955
1.32898
1.32841
1.32785
1.32732
1.3268
1.3263
1.32582
1.32536
1.32492
1.3245
1.3241
1.32372
1.32336
1.32302
1.3227
1.32239
1.32211
1.32184
1.32159
1.32136
1.32115
1.32095
1.32077
1.32061
1.32046
1.32033
1.32021
1.32011
1.32002
1.31995
1.31989
1.31985
1.31982
1.3198
1.3198
1.31982
1.31985
1.3199
1.31996
1.32004
1.32013
1.32025
1.32037
1.32052
1.32069
1.32087
1.32108
1.3213
1.32154
1.32181
1.3221
1.32241
1.32275
1.3231
1.32349
1.3239
1.32433
1.32479
1.32528
1.3258
1.32634
1.32692
1.32751
1.32814
1.3288
1.32948
1.33019
1.33093
1.3317
1.33249
1.33331
1.33415
1.33501
1.33589
1.33679
1.33771
1.33865
1.3396
1.34056
1.34153
1.34251
1.34349
1.34447
1.34545
1.34643
1.3474
1.34836
1.34931
1.35024
1.35116
1.35206
1.35294
1.35379
1.35462
1.35542
1.35619
1.35693
1.35764
1.35832
1.35896
1.35957
1.36015
1.36069
1.3612
1.36167
1.36211
1.36252
1.36291
1.36326
1.36358
1.36388
1.36416
1.36441
1.36464
1.36485
1.36504
1.36521
1.36537
1.36551
1.36564
1.36576
1.36587
1.36596
1.36605
1.36613
1.3662
1.36626
1.36632
1.36638
1.36643
1.36647
1.36651
1.36655
1.36659
1.36662
1.36665
1.36668
1.36671
1.36673
1.36676
1.36678
1.36681
1.36683
1.36685
1.36687
1.36689
1.36691
1.36693
1.36695
1.36697
1.36699
1.36701
1.36702
1.36704
1.36706
1.36708
1.3671
1.36711
1.36713
1.36715
1.36716
1.36718
1.3672
1.36721
1.36723
1.36725
1.36726
1.36728
1.3673
1.36731
1.36733
1.36734
1.36736
1.36737
1.36739
1.36741
1.36742
1.36744
1.36745
1.36747
1.36748
1.3675
1.36752
1.36753
1.36755
1.36756
1.36758
1.3676
1.36761
1.36763
1.36765
1.36766
1.36768
1.36769
1.36771
1.36772
1.36774
1.36775
1.36777
1.36778
1.3678
1.36781
1.36782
1.36783
1.36784
1.36785
1.36786
1.36787
1.36787
1.36788
1.36788
1.36788
1.36788
1.36788
1.36787
1.36786
1.36785
1.36783
1.36782
1.3678
1.36777
1.36774
1.36771
1.36767
1.36763
1.36759
1.36754
1.36749
1.36743
1.36736
1.36729
1.36722
1.36714
1.36706
1.36697
1.36688
1.36678
1.36668
1.36658
1.36646
1.36635
1.36623
1.36611
1.36598
1.36585
1.36571
1.36557
1.36543
1.36529
1.36514
1.36498
1.36482
1.36466
1.36449
1.36432
1.36414
1.36395
1.36376
1.36356
1.36335
1.36312
1.36289
1.36264
1.36238
1.36211
1.36181
1.3615
1.36116
1.36081
1.36043
1.36002
1.35959
1.35913
1.35864
1.35812
1.35757
1.35699
1.35637
1.35573
1.35505
1.35435
1.35362
1.35286
1.35207
1.35126
1.35043
1.34958
1.34871
1.34783
1.34694
1.34603
1.34512
1.34421
1.34329
1.34237
1.34145
1.34053
1.33962
1.33871
1.33782
1.33693
1.33606
1.33519
1.33434
1.3335
1.33268
1.33187
1.33108
1.3303
1.32954
1.3288
1.32808
1.32737
1.32668
1.326
1.32534
1.3247
1.32408
1.32347
1.32288
1.3223
1.32174
1.3212
1.32067
1.32015
1.31965
1.31916
1.31869
1.31823
1.31778
1.31735
1.31693
1.31652
1.31612
1.31573
1.31536
1.315
1.31464
1.3143
1.31397
1.31365
1.31334
1.31303
1.31274
1.31246
1.31219
1.31193
1.31167
1.31143
1.31119
1.31097
1.31075
1.31054
1.31034
1.31015
1.30997
1.3098
1.30963
1.30948
1.30933
1.30919
1.30907
1.30895
1.30883
1.30873
1.30865
1.30856
1.30847
1.30843
1.3084
1.30829
1.30825
1.30836
1.30828
1.30799
1.30823
1.30863
1.30777
1.3072
1.30906
1.30873
1.30396
1.30596
1.31279
1.30045
1.28832
1.3359
1.33596
1.33582
1.33556
1.33502
1.33435
1.33387
1.33329
1.33262
1.33201
1.33142
1.33078
1.33017
1.32958
1.32899
1.32841
1.32786
1.32733
1.3268
1.3263
1.32582
1.32536
1.32492
1.3245
1.3241
1.32372
1.32336
1.32302
1.32269
1.32239
1.32211
1.32184
1.32159
1.32136
1.32115
1.32095
1.32077
1.32061
1.32046
1.32033
1.32021
1.32011
1.32002
1.31995
1.31989
1.31985
1.31982
1.3198
1.3198
1.31982
1.31985
1.3199
1.31996
1.32003
1.32013
1.32024
1.32037
1.32051
1.32068
1.32086
1.32106
1.32128
1.32152
1.32179
1.32207
1.32238
1.32271
1.32307
1.32345
1.32386
1.32429
1.32475
1.32523
1.32575
1.32629
1.32686
1.32745
1.32808
1.32873
1.32941
1.33012
1.33086
1.33162
1.33241
1.33322
1.33406
1.33492
1.33581
1.33671
1.33763
1.33857
1.33952
1.34048
1.34145
1.34243
1.34341
1.34439
1.34538
1.34636
1.34733
1.3483
1.34925
1.35019
1.35112
1.35202
1.3529
1.35376
1.3546
1.3554
1.35618
1.35692
1.35764
1.35832
1.35896
1.35957
1.36015
1.36069
1.3612
1.36168
1.36213
1.36254
1.36292
1.36327
1.3636
1.36389
1.36417
1.36442
1.36465
1.36486
1.36505
1.36522
1.36537
1.36552
1.36565
1.36576
1.36587
1.36596
1.36605
1.36612
1.36619
1.36626
1.36632
1.36637
1.36642
1.36646
1.3665
1.36654
1.36657
1.36661
1.36664
1.36666
1.36669
1.36672
1.36674
1.36676
1.36679
1.36681
1.36683
1.36685
1.36687
1.36689
1.36691
1.36693
1.36695
1.36696
1.36698
1.367
1.36702
1.36704
1.36705
1.36707
1.36709
1.3671
1.36712
1.36714
1.36715
1.36717
1.36719
1.3672
1.36722
1.36723
1.36725
1.36727
1.36728
1.3673
1.36731
1.36733
1.36734
1.36736
1.36737
1.36739
1.3674
1.36742
1.36744
1.36745
1.36747
1.36748
1.3675
1.36751
1.36753
1.36754
1.36756
1.36758
1.36759
1.36761
1.36762
1.36764
1.36766
1.36767
1.36769
1.3677
1.36772
1.36773
1.36774
1.36776
1.36777
1.36778
1.36779
1.3678
1.36781
1.36782
1.36783
1.36783
1.36784
1.36784
1.36784
1.36784
1.36783
1.36783
1.36782
1.36781
1.36779
1.36778
1.36776
1.36773
1.3677
1.36767
1.36764
1.3676
1.36755
1.3675
1.36745
1.36739
1.36733
1.36726
1.36719
1.36711
1.36703
1.36694
1.36685
1.36675
1.36665
1.36654
1.36643
1.36631
1.36619
1.36607
1.36594
1.36581
1.36568
1.36554
1.36539
1.36525
1.3651
1.36494
1.36478
1.36462
1.36445
1.36427
1.36409
1.36391
1.36371
1.36351
1.3633
1.36308
1.36284
1.36259
1.36233
1.36205
1.36176
1.36144
1.36111
1.36075
1.36037
1.35997
1.35953
1.35907
1.35858
1.35806
1.35751
1.35693
1.35631
1.35567
1.35499
1.35429
1.35355
1.35279
1.35201
1.3512
1.35037
1.34952
1.34865
1.34777
1.34688
1.34598
1.34507
1.34415
1.34324
1.34232
1.3414
1.34049
1.33958
1.33868
1.33778
1.3369
1.33603
1.33517
1.33432
1.33348
1.33266
1.33186
1.33107
1.3303
1.32954
1.3288
1.32808
1.32737
1.32668
1.32601
1.32536
1.32472
1.32409
1.32349
1.3229
1.32232
1.32176
1.32122
1.32069
1.32018
1.31968
1.31919
1.31872
1.31826
1.31781
1.31738
1.31695
1.31654
1.31615
1.31576
1.31538
1.31502
1.31467
1.31432
1.31399
1.31367
1.31336
1.31305
1.31276
1.31248
1.31221
1.31194
1.31169
1.31144
1.3112
1.31098
1.31076
1.31055
1.31035
1.31016
1.30997
1.3098
1.30963
1.30948
1.30933
1.30919
1.30906
1.30894
1.30883
1.30872
1.30862
1.30855
1.30847
1.30837
1.30833
1.30835
1.30823
1.30811
1.30829
1.30836
1.30786
1.30789
1.30878
1.30817
1.30649
1.30814
1.3098
1.30508
1.30303
1.3084
1.30904
1.33668
1.33636
1.3362
1.33582
1.33508
1.33452
1.33405
1.33333
1.33266
1.33208
1.33144
1.33078
1.33018
1.32958
1.32897
1.3284
1.32784
1.3273
1.32678
1.32628
1.32579
1.32533
1.32489
1.32447
1.32407
1.32369
1.32333
1.32299
1.32267
1.32237
1.32208
1.32182
1.32157
1.32134
1.32113
1.32093
1.32075
1.32059
1.32044
1.32031
1.32019
1.32009
1.32
1.31993
1.31987
1.31983
1.3198
1.31979
1.31979
1.3198
1.31983
1.31988
1.31994
1.32002
1.32011
1.32022
1.32034
1.32049
1.32065
1.32083
1.32103
1.32125
1.32148
1.32175
1.32203
1.32233
1.32266
1.32302
1.32339
1.32379
1.32422
1.32468
1.32516
1.32567
1.3262
1.32677
1.32736
1.32798
1.32863
1.32931
1.33002
1.33075
1.33151
1.3323
1.33311
1.33395
1.33481
1.3357
1.3366
1.33752
1.33846
1.33941
1.34037
1.34135
1.34233
1.34332
1.3443
1.34529
1.34628
1.34726
1.34823
1.34919
1.35014
1.35107
1.35198
1.35287
1.35374
1.35458
1.35539
1.35617
1.35692
1.35764
1.35833
1.35898
1.35959
1.36018
1.36072
1.36123
1.36171
1.36216
1.36257
1.36295
1.3633
1.36363
1.36392
1.3642
1.36444
1.36467
1.36488
1.36506
1.36523
1.36539
1.36553
1.36565
1.36577
1.36587
1.36596
1.36605
1.36612
1.36619
1.36625
1.36631
1.36636
1.36641
1.36645
1.36649
1.36652
1.36656
1.36659
1.36662
1.36664
1.36667
1.3667
1.36672
1.36674
1.36676
1.36678
1.36681
1.36682
1.36684
1.36686
1.36688
1.3669
1.36692
1.36694
1.36695
1.36697
1.36699
1.367
1.36702
1.36704
1.36706
1.36707
1.36709
1.3671
1.36712
1.36714
1.36715
1.36717
1.36718
1.3672
1.36721
1.36723
1.36724
1.36726
1.36727
1.36729
1.3673
1.36732
1.36733
1.36735
1.36736
1.36738
1.36739
1.36741
1.36742
1.36744
1.36746
1.36747
1.36749
1.3675
1.36752
1.36753
1.36755
1.36756
1.36758
1.36759
1.36761
1.36762
1.36764
1.36765
1.36767
1.36768
1.3677
1.36771
1.36772
1.36773
1.36775
1.36776
1.36776
1.36777
1.36778
1.36779
1.36779
1.36779
1.36779
1.36779
1.36779
1.36778
1.36777
1.36776
1.36775
1.36773
1.36771
1.36769
1.36766
1.36763
1.36759
1.36755
1.36751
1.36746
1.36741
1.36735
1.36729
1.36722
1.36715
1.36707
1.36699
1.3669
1.36681
1.36671
1.36661
1.3665
1.36639
1.36628
1.36616
1.36603
1.36591
1.36577
1.36564
1.3655
1.36536
1.36521
1.36506
1.3649
1.36474
1.36458
1.36441
1.36424
1.36406
1.36387
1.36367
1.36347
1.36326
1.36303
1.3628
1.36255
1.36229
1.36201
1.36171
1.3614
1.36106
1.3607
1.36032
1.35991
1.35948
1.35901
1.35852
1.35799
1.35744
1.35685
1.35623
1.35559
1.35491
1.3542
1.35346
1.3527
1.35191
1.3511
1.35027
1.34942
1.34855
1.34767
1.34677
1.34587
1.34496
1.34405
1.34313
1.34222
1.3413
1.34039
1.33948
1.33858
1.33769
1.33681
1.33594
1.33509
1.33424
1.33341
1.3326
1.3318
1.33101
1.33024
1.32949
1.32876
1.32804
1.32734
1.32665
1.32599
1.32534
1.3247
1.32408
1.32348
1.32289
1.32232
1.32177
1.32123
1.3207
1.32019
1.31969
1.31921
1.31873
1.31828
1.31783
1.3174
1.31698
1.31657
1.31617
1.31579
1.31541
1.31505
1.3147
1.31435
1.31402
1.3137
1.31339
1.31309
1.31279
1.31251
1.31224
1.31197
1.31172
1.31147
1.31123
1.31101
1.31079
1.31058
1.31038
1.31018
1.31
1.30983
1.30966
1.3095
1.30935
1.30922
1.30909
1.30896
1.30885
1.30876
1.30865
1.30856
1.30852
1.30845
1.30835
1.30835
1.3084
1.30824
1.30815
1.30849
1.30846
1.30784
1.30832
1.30933
1.30781
1.30688
1.31027
1.30959
1.30467
1.308
1.31053
1.33758
1.33714
1.33659
1.33593
1.33538
1.3348
1.33407
1.33338
1.33277
1.33209
1.33141
1.33078
1.33016
1.32953
1.32893
1.32835
1.32778
1.32724
1.32671
1.32621
1.32573
1.32527
1.32483
1.32441
1.32401
1.32363
1.32327
1.32293
1.32261
1.32231
1.32203
1.32177
1.32152
1.3213
1.32108
1.32089
1.32071
1.32055
1.32041
1.32028
1.32016
1.32006
1.31997
1.3199
1.31984
1.3198
1.31977
1.31976
1.31976
1.31977
1.3198
1.31985
1.3199
1.31998
1.32007
1.32018
1.3203
1.32044
1.3206
1.32078
1.32097
1.32119
1.32142
1.32168
1.32196
1.32226
1.32259
1.32294
1.32331
1.32371
1.32413
1.32458
1.32505
1.32556
1.32609
1.32665
1.32724
1.32786
1.3285
1.32918
1.32988
1.33061
1.33137
1.33216
1.33297
1.33381
1.33467
1.33555
1.33646
1.33738
1.33832
1.33928
1.34024
1.34122
1.34221
1.3432
1.34419
1.34519
1.34618
1.34717
1.34815
1.34912
1.35007
1.35102
1.35193
1.35283
1.35371
1.35456
1.35538
1.35617
1.35693
1.35766
1.35835
1.35901
1.35963
1.36021
1.36076
1.36128
1.36175
1.3622
1.36261
1.36299
1.36334
1.36367
1.36396
1.36423
1.36448
1.3647
1.36491
1.36509
1.36526
1.36541
1.36554
1.36567
1.36578
1.36588
1.36596
1.36605
1.36612
1.36619
1.36624
1.3663
1.36635
1.36639
1.36643
1.36647
1.36651
1.36654
1.36657
1.3666
1.36662
1.36665
1.36667
1.36669
1.36671
1.36674
1.36676
1.36678
1.36679
1.36681
1.36683
1.36685
1.36687
1.36688
1.3669
1.36692
1.36694
1.36695
1.36697
1.36699
1.367
1.36702
1.36703
1.36705
1.36706
1.36708
1.3671
1.36711
1.36713
1.36714
1.36716
1.36717
1.36719
1.3672
1.36722
1.36723
1.36724
1.36726
1.36727
1.36729
1.3673
1.36732
1.36733
1.36735
1.36736
1.36738
1.36739
1.36741
1.36742
1.36744
1.36745
1.36747
1.36748
1.3675
1.36751
1.36753
1.36754
1.36756
1.36757
1.36759
1.3676
1.36762
1.36763
1.36764
1.36766
1.36767
1.36768
1.36769
1.3677
1.36771
1.36772
1.36773
1.36773
1.36774
1.36774
1.36774
1.36774
1.36774
1.36773
1.36772
1.36771
1.3677
1.36768
1.36766
1.36764
1.36761
1.36758
1.36755
1.36751
1.36746
1.36742
1.36736
1.36731
1.36724
1.36718
1.36711
1.36703
1.36695
1.36686
1.36677
1.36667
1.36657
1.36647
1.36635
1.36624
1.36612
1.366
1.36587
1.36574
1.3656
1.36546
1.36532
1.36518
1.36502
1.36487
1.36471
1.36455
1.36438
1.3642
1.36402
1.36384
1.36364
1.36344
1.36322
1.363
1.36277
1.36252
1.36225
1.36197
1.36167
1.36136
1.36102
1.36065
1.36027
1.35985
1.35941
1.35894
1.35844
1.35791
1.35735
1.35676
1.35613
1.35548
1.35479
1.35408
1.35333
1.35256
1.35177
1.35095
1.35012
1.34926
1.34839
1.34751
1.34661
1.34571
1.3448
1.34388
1.34296
1.34205
1.34114
1.34023
1.33932
1.33843
1.33754
1.33666
1.3358
1.33494
1.33411
1.33328
1.33247
1.33168
1.3309
1.33014
1.32939
1.32867
1.32796
1.32726
1.32659
1.32593
1.32528
1.32465
1.32404
1.32345
1.32287
1.3223
1.32175
1.32122
1.3207
1.32019
1.3197
1.31922
1.31875
1.3183
1.31785
1.31743
1.31701
1.3166
1.31621
1.31582
1.31545
1.31509
1.31474
1.3144
1.31407
1.31375
1.31344
1.31314
1.31284
1.31256
1.31229
1.31203
1.31177
1.31153
1.31129
1.31106
1.31085
1.31064
1.31044
1.31025
1.31006
1.30989
1.30973
1.30957
1.30942
1.30929
1.30916
1.30905
1.30893
1.30884
1.30877
1.30867
1.30859
1.30859
1.30856
1.30844
1.30848
1.30866
1.30849
1.30831
1.30889
1.30911
1.30817
1.30864
1.31048
1.3091
1.30742
1.31072
1.31254
1.30954
1.30922
1.33862
1.3378
1.33706
1.33631
1.33568
1.33492
1.33413
1.33348
1.33279
1.33205
1.33139
1.33074
1.33008
1.32945
1.32885
1.32826
1.32768
1.32714
1.32661
1.32611
1.32563
1.32517
1.32473
1.32431
1.32391
1.32354
1.32318
1.32285
1.32253
1.32223
1.32196
1.3217
1.32145
1.32123
1.32102
1.32083
1.32066
1.3205
1.32035
1.32022
1.32011
1.32001
1.31993
1.31986
1.3198
1.31976
1.31973
1.31971
1.31971
1.31973
1.31975
1.3198
1.31986
1.31993
1.32002
1.32012
1.32024
1.32038
1.32054
1.32071
1.3209
1.32112
1.32135
1.3216
1.32187
1.32217
1.32249
1.32283
1.3232
1.3236
1.32401
1.32446
1.32493
1.32543
1.32595
1.32651
1.32709
1.3277
1.32835
1.32902
1.32972
1.33045
1.3312
1.33199
1.3328
1.33364
1.3345
1.33538
1.33629
1.33721
1.33815
1.33911
1.34008
1.34107
1.34206
1.34306
1.34406
1.34507
1.34607
1.34706
1.34805
1.34903
1.35
1.35095
1.35188
1.35279
1.35368
1.35454
1.35537
1.35617
1.35694
1.35768
1.35837
1.35904
1.35967
1.36026
1.36081
1.36133
1.36181
1.36225
1.36267
1.36305
1.3634
1.36372
1.36401
1.36428
1.36452
1.36474
1.36494
1.36512
1.36528
1.36543
1.36556
1.36568
1.36579
1.36589
1.36597
1.36605
1.36612
1.36618
1.36624
1.36629
1.36634
1.36638
1.36642
1.36646
1.36649
1.36652
1.36655
1.36657
1.3666
1.36662
1.36664
1.36667
1.36668
1.36671
1.36672
1.36674
1.36676
1.36678
1.3668
1.36681
1.36683
1.36685
1.36686
1.36688
1.3669
1.36691
1.36693
1.36694
1.36696
1.36698
1.36699
1.36701
1.36702
1.36704
1.36705
1.36707
1.36708
1.3671
1.36711
1.36712
1.36714
1.36715
1.36717
1.36718
1.36719
1.36721
1.36722
1.36724
1.36725
1.36726
1.36728
1.36729
1.36731
1.36732
1.36734
1.36735
1.36737
1.36738
1.36739
1.36741
1.36742
1.36744
1.36745
1.36747
1.36748
1.3675
1.36751
1.36753
1.36754
1.36756
1.36757
1.36758
1.3676
1.36761
1.36762
1.36763
1.36764
1.36765
1.36766
1.36767
1.36767
1.36768
1.36768
1.36768
1.36768
1.36768
1.36767
1.36767
1.36765
1.36764
1.36763
1.36761
1.36758
1.36756
1.36753
1.36749
1.36746
1.36741
1.36737
1.36731
1.36726
1.3672
1.36713
1.36706
1.36698
1.3669
1.36682
1.36672
1.36663
1.36653
1.36642
1.36631
1.3662
1.36608
1.36596
1.36583
1.3657
1.36557
1.36543
1.36529
1.36514
1.36499
1.36484
1.36468
1.36452
1.36435
1.36418
1.364
1.36381
1.36362
1.36341
1.3632
1.36297
1.36274
1.36249
1.36222
1.36194
1.36164
1.36132
1.36097
1.36061
1.36021
1.35979
1.35935
1.35887
1.35836
1.35782
1.35725
1.35665
1.35601
1.35534
1.35465
1.35392
1.35317
1.35239
1.35159
1.35076
1.34992
1.34906
1.34818
1.34729
1.34639
1.34548
1.34457
1.34366
1.34274
1.34182
1.34091
1.34
1.3391
1.3382
1.33732
1.33645
1.33559
1.33474
1.33391
1.33309
1.33229
1.3315
1.33073
1.32998
1.32924
1.32852
1.32782
1.32714
1.32647
1.32582
1.32519
1.32457
1.32397
1.32338
1.32281
1.32226
1.32172
1.32119
1.32068
1.32018
1.31969
1.31922
1.31876
1.31831
1.31788
1.31745
1.31704
1.31664
1.31625
1.31587
1.3155
1.31515
1.3148
1.31446
1.31413
1.31382
1.31351
1.31321
1.31292
1.31264
1.31237
1.31211
1.31186
1.31162
1.31138
1.31116
1.31094
1.31074
1.31054
1.31035
1.31017
1.31
1.30984
1.30969
1.30955
1.30942
1.30929
1.30919
1.30909
1.30899
1.30893
1.30888
1.30881
1.30876
1.30882
1.30882
1.30871
1.30886
1.30913
1.30893
1.3089
1.30974
1.30983
1.30901
1.31025
1.31175
1.31037
1.31059
1.31314
1.31341
1.31407
1.33964
1.33838
1.33755
1.33673
1.33584
1.33501
1.33427
1.33352
1.33273
1.33201
1.33133
1.33063
1.32996
1.32934
1.32872
1.32812
1.32755
1.327
1.32647
1.32597
1.32549
1.32503
1.32459
1.32418
1.32379
1.32342
1.32306
1.32273
1.32242
1.32213
1.32186
1.3216
1.32136
1.32114
1.32094
1.32075
1.32058
1.32042
1.32028
1.32016
1.32004
1.31995
1.31986
1.3198
1.31974
1.3197
1.31967
1.31966
1.31965
1.31967
1.3197
1.31974
1.31979
1.31987
1.31995
1.32005
1.32017
1.32031
1.32046
1.32063
1.32082
1.32103
1.32125
1.3215
1.32177
1.32206
1.32237
1.32271
1.32307
1.32346
1.32387
1.32431
1.32477
1.32527
1.32579
1.32634
1.32691
1.32752
1.32816
1.32883
1.32952
1.33025
1.331
1.33178
1.33259
1.33343
1.33429
1.33518
1.33608
1.33701
1.33796
1.33892
1.3399
1.34089
1.34189
1.34289
1.3439
1.34492
1.34593
1.34693
1.34793
1.34893
1.3499
1.35087
1.35181
1.35274
1.35363
1.35451
1.35535
1.35617
1.35695
1.35769
1.3584
1.35907
1.35971
1.36031
1.36086
1.36139
1.36187
1.36232
1.36273
1.36311
1.36346
1.36378
1.36407
1.36433
1.36457
1.36479
1.36498
1.36516
1.36532
1.36546
1.36558
1.3657
1.3658
1.3659
1.36598
1.36605
1.36612
1.36618
1.36623
1.36628
1.36633
1.36637
1.3664
1.36644
1.36647
1.3665
1.36652
1.36655
1.36657
1.36659
1.36661
1.36663
1.36665
1.36667
1.36669
1.36671
1.36672
1.36674
1.36676
1.36677
1.36679
1.36681
1.36682
1.36684
1.36685
1.36687
1.36688
1.3669
1.36691
1.36693
1.36694
1.36696
1.36697
1.36699
1.367
1.36702
1.36703
1.36704
1.36706
1.36707
1.36708
1.3671
1.36711
1.36713
1.36714
1.36715
1.36717
1.36718
1.36719
1.36721
1.36722
1.36723
1.36725
1.36726
1.36728
1.36729
1.3673
1.36732
1.36733
1.36735
1.36736
1.36738
1.36739
1.36741
1.36742
1.36743
1.36745
1.36746
1.36748
1.36749
1.3675
1.36752
1.36753
1.36754
1.36755
1.36757
1.36758
1.36759
1.36759
1.3676
1.36761
1.36761
1.36762
1.36762
1.36762
1.36761
1.36761
1.3676
1.36759
1.36758
1.36757
1.36755
1.36753
1.3675
1.36747
1.36744
1.3674
1.36736
1.36731
1.36726
1.3672
1.36714
1.36708
1.36701
1.36693
1.36685
1.36677
1.36668
1.36658
1.36648
1.36638
1.36627
1.36616
1.36604
1.36592
1.3658
1.36567
1.36553
1.3654
1.36526
1.36511
1.36497
1.36481
1.36466
1.36449
1.36433
1.36416
1.36398
1.36379
1.3636
1.36339
1.36318
1.36296
1.36272
1.36247
1.3622
1.36191
1.36161
1.36128
1.36094
1.36056
1.36016
1.35973
1.35928
1.35879
1.35827
1.35772
1.35713
1.35651
1.35587
1.35519
1.35447
1.35374
1.35297
1.35218
1.35136
1.35053
1.34967
1.3488
1.34792
1.34703
1.34612
1.34521
1.34429
1.34337
1.34246
1.34154
1.34062
1.33972
1.33882
1.33792
1.33704
1.33617
1.33532
1.33448
1.33365
1.33284
1.33204
1.33127
1.3305
1.32976
1.32904
1.32833
1.32764
1.32697
1.32631
1.32568
1.32506
1.32445
1.32386
1.32329
1.32273
1.32219
1.32166
1.32114
1.32064
1.32015
1.31968
1.31922
1.31877
1.31833
1.3179
1.31749
1.31708
1.31669
1.31631
1.31593
1.31557
1.31522
1.31488
1.31455
1.31423
1.31391
1.31361
1.31331
1.31303
1.31275
1.31249
1.31223
1.31198
1.31174
1.31151
1.31129
1.31108
1.31088
1.31068
1.3105
1.31032
1.31016
1.31001
1.30986
1.30973
1.30961
1.30949
1.30939
1.30931
1.30924
1.30916
1.30914
1.30914
1.30909
1.30908
1.30923
1.30929
1.30918
1.30946
1.30993
1.3097
1.30972
1.31098
1.31124
1.31037
1.31184
1.31396
1.3134
1.31341
1.31622
1.31827
1.34046
1.33898
1.33798
1.33699
1.336
1.33514
1.33431
1.33346
1.33266
1.33194
1.3312
1.33048
1.32982
1.32917
1.32854
1.32794
1.32737
1.32682
1.32629
1.32579
1.32532
1.32486
1.32443
1.32402
1.32363
1.32327
1.32292
1.3226
1.32229
1.32201
1.32174
1.32149
1.32125
1.32104
1.32084
1.32066
1.32049
1.32034
1.3202
1.32008
1.31997
1.31987
1.31979
1.31972
1.31967
1.31963
1.3196
1.31959
1.31959
1.3196
1.31963
1.31967
1.31972
1.31979
1.31987
1.31997
1.32009
1.32022
1.32037
1.32054
1.32072
1.32092
1.32114
1.32139
1.32165
1.32193
1.32224
1.32258
1.32293
1.32331
1.32371
1.32414
1.3246
1.32509
1.3256
1.32614
1.32671
1.32732
1.32794
1.32861
1.3293
1.33002
1.33077
1.33155
1.33235
1.33319
1.33405
1.33494
1.33584
1.33678
1.33772
1.33869
1.33968
1.34067
1.34168
1.34269
1.34371
1.34473
1.34576
1.34678
1.34779
1.34879
1.34979
1.35076
1.35172
1.35266
1.35358
1.35446
1.35532
1.35615
1.35695
1.3577
1.35843
1.35911
1.35975
1.36036
1.36092
1.36145
1.36193
1.36238
1.3628
1.36318
1.36352
1.36384
1.36413
1.36439
1.36462
1.36484
1.36502
1.36519
1.36535
1.36549
1.36561
1.36572
1.36582
1.36591
1.36598
1.36606
1.36612
1.36618
1.36623
1.36627
1.36631
1.36635
1.36639
1.36642
1.36644
1.36647
1.3665
1.36652
1.36654
1.36656
1.36658
1.3666
1.36662
1.36664
1.36665
1.36667
1.36668
1.3667
1.36671
1.36673
1.36675
1.36676
1.36678
1.36679
1.3668
1.36682
1.36683
1.36685
1.36686
1.36688
1.36689
1.36691
1.36692
1.36693
1.36695
1.36696
1.36697
1.36699
1.367
1.36701
1.36703
1.36704
1.36705
1.36707
1.36708
1.36709
1.3671
1.36712
1.36713
1.36714
1.36716
1.36717
1.36718
1.3672
1.36721
1.36723
1.36724
1.36725
1.36727
1.36728
1.36729
1.36731
1.36732
1.36734
1.36735
1.36737
1.36738
1.36739
1.36741
1.36742
1.36743
1.36745
1.36746
1.36747
1.36748
1.3675
1.36751
1.36752
1.36752
1.36753
1.36754
1.36754
1.36755
1.36755
1.36755
1.36755
1.36754
1.36754
1.36753
1.36752
1.3675
1.36748
1.36746
1.36744
1.36741
1.36738
1.36734
1.3673
1.36725
1.3672
1.36715
1.36709
1.36702
1.36695
1.36688
1.3668
1.36672
1.36663
1.36653
1.36644
1.36633
1.36623
1.36611
1.366
1.36588
1.36576
1.36563
1.3655
1.36536
1.36523
1.36508
1.36494
1.36479
1.36463
1.36448
1.36431
1.36414
1.36396
1.36378
1.36358
1.36338
1.36317
1.36294
1.3627
1.36245
1.36218
1.36189
1.36158
1.36125
1.3609
1.36052
1.36011
1.35967
1.3592
1.3587
1.35817
1.3576
1.357
1.35637
1.3557
1.355
1.35428
1.35352
1.35274
1.35193
1.3511
1.35026
1.34939
1.34851
1.34762
1.34672
1.3458
1.34489
1.34397
1.34305
1.34212
1.34121
1.34029
1.33938
1.33849
1.3376
1.33672
1.33585
1.335
1.33416
1.33334
1.33254
1.33175
1.33099
1.33023
1.3295
1.32879
1.32809
1.32741
1.32676
1.32612
1.32549
1.32489
1.3243
1.32372
1.32316
1.32262
1.32209
1.32157
1.32107
1.32059
1.32011
1.31965
1.3192
1.31876
1.31834
1.31792
1.31752
1.31713
1.31674
1.31637
1.31601
1.31565
1.31531
1.31498
1.31465
1.31434
1.31403
1.31373
1.31345
1.31317
1.3129
1.31264
1.31238
1.31214
1.31191
1.31168
1.31147
1.31126
1.31106
1.31088
1.3107
1.31053
1.31037
1.31023
1.31009
1.30996
1.30985
1.30976
1.30967
1.30959
1.30955
1.30951
1.30946
1.30949
1.30955
1.30954
1.30959
1.30985
1.30996
1.30992
1.3104
1.31097
1.31079
1.31117
1.31257
1.31286
1.31278
1.31436
1.31592
1.31675
1.31808
1.31967
1.34105
1.33941
1.33828
1.33713
1.33612
1.33518
1.33423
1.33337
1.33257
1.33177
1.331
1.3303
1.32962
1.32895
1.32832
1.32773
1.32715
1.3266
1.32608
1.32558
1.32511
1.32466
1.32424
1.32383
1.32345
1.32309
1.32276
1.32244
1.32214
1.32186
1.3216
1.32135
1.32113
1.32092
1.32072
1.32055
1.32038
1.32024
1.3201
1.31998
1.31988
1.31978
1.31971
1.31964
1.31959
1.31955
1.31952
1.31951
1.31951
1.31952
1.31955
1.31959
1.31964
1.31971
1.31979
1.31988
1.32
1.32012
1.32027
1.32043
1.32061
1.3208
1.32102
1.32126
1.32151
1.32179
1.32209
1.32242
1.32276
1.32314
1.32353
1.32395
1.32441
1.32488
1.32538
1.32592
1.32649
1.32708
1.3277
1.32836
1.32904
1.32976
1.33051
1.33128
1.33208
1.33292
1.33378
1.33466
1.33557
1.3365
1.33746
1.33843
1.33942
1.34042
1.34144
1.34246
1.34349
1.34452
1.34555
1.34658
1.34761
1.34863
1.34964
1.35063
1.35161
1.35256
1.3535
1.35441
1.35528
1.35613
1.35694
1.35771
1.35844
1.35914
1.35979
1.36041
1.36098
1.36151
1.362
1.36245
1.36287
1.36325
1.36359
1.3639
1.36419
1.36445
1.36467
1.36488
1.36507
1.36524
1.36538
1.36552
1.36564
1.36574
1.36584
1.36592
1.36599
1.36606
1.36612
1.36617
1.36622
1.36626
1.3663
1.36634
1.36637
1.3664
1.36642
1.36645
1.36647
1.36649
1.36651
1.36653
1.36655
1.36656
1.36658
1.3666
1.36661
1.36663
1.36664
1.36666
1.36667
1.36669
1.3667
1.36671
1.36673
1.36674
1.36676
1.36677
1.36678
1.3668
1.36681
1.36683
1.36684
1.36685
1.36686
1.36688
1.36689