# vtk DataFile Version 2.0
LBE two cylinders
ASCII
DATASET STRUCTURED_POINTS
DIMENSIONS 400 100 1
ASPECT_RATIO 1 1 1
ORIGIN 0 0 0
POINT_DATA 40000
SCALARS rho double 1
LOOKUP_TABLE default
1.33912
1.33645
1.33673
1.33675
1.33583
1.33531
1.33498
1.33431
1.33368
1.33314
1.33253
1.3319
1.33131
1.33073
1.33014
1.32957
1.32902
1.32847
1.32794
1.32744
1.32694
1.32647
1.32601
1.32558
1.32516
1.32476
1.32438
1.32401
1.32367
1.32335
1.32304
1.32276
1.32249
1.32224
1.32201
1.3218
1.32161
1.32143
1.32128
1.32114
1.32102
1.32092
1.32084
1.32077
1.32073
1.3207
1.32068
1.32069
1.32071
1.32075
1.32081
1.32089
1.32099
1.3211
1.32123
1.32138
1.32155
1.32174
1.32195
1.32217
1.32242
1.32269
1.32298
1.32329
1.32363
1.32399
1.32437
1.32477
1.3252
1.32566
1.32614
1.32665
1.32718
1.32775
1.32834
1.32895
1.3296
1.33027
1.33097
1.3317
1.33245
1.33324
1.33404
1.33487
1.33573
1.33661
1.33751
1.33843
1.33936
1.34032
1.34128
1.34226
1.34325
1.34425
1.34524
1.34625
1.34725
1.34825
1.34924
1.35022
1.3512
1.35216
1.3531
1.35402
1.35493
1.35581
1.35666
1.35749
1.35829
1.35906
1.3598
1.36051
1.36118
1.36182
1.36243
1.363
1.36354
1.36405
1.36452
1.36496
1.36537
1.36575
1.36611
1.36644
1.36674
1.36701
1.36727
1.3675
1.36771
1.36791
1.36809
1.36825
1.3684
1.36854
1.36866
1.36878
1.36888
1.36898
1.36906
1.36915
1.36922
1.36929
1.36936
1.36942
1.36947
1.36953
1.36958
1.36963
1.36967
1.36972
1.36976
1.3698
1.36983
1.36987
1.36991
1.36994
1.36997
1.37001
1.37004
1.37007
1.3701
1.37014
1.37017
1.3702
1.37023
1.37026
1.37029
1.37032
1.37035
1.37038
1.37041
1.37044
1.37047
1.3705
1.37052
1.37055
1.37058
1.37061
1.37063
1.37066
1.37068
1.37071
1.37073
1.37075
1.37077
1.37079
1.37081
1.37083
1.37084
1.37086
1.37087
1.37088
1.37089
1.37089
1.3709
1.3709
1.37091
1.37091
1.37091
1.3709
1.3709
1.3709
1.37089
1.37088
1.37087
1.37087
1.37086
1.37085
1.37084
1.37082
1.37081
1.3708
1.37079
1.37078
1.37076
1.37075
1.37074
1.37073
1.37072
1.3707
1.37069
1.37068
1.37067
1.37066
1.37065
1.37064
1.37063
1.37061
1.3706
1.37059
1.37057
1.37056
1.37054
1.37053
1.3705
1.37048
1.37046
1.37043
1.3704
1.37037
1.37033
1.37029
1.37024
1.3702
1.37014
1.37008
1.37002
1.36996
1.36988
1.36981
1.36973
1.36964
1.36955
1.36946
1.36936
1.36926
1.36916
1.36905
1.36893
1.36881
1.36869
1.36857
1.36844
1.36831
1.36817
1.36803
1.36789
1.36774
1.36758
1.36742
1.36725
1.36707
1.36689
1.36669
1.36648
1.36626
1.36603
1.36578
1.36552
1.36523
1.36493
1.3646
1.36425
1.36387
1.36347
1.36303
1.36257
1.36208
1.36155
1.36099
1.36039
1.35976
1.3591
1.35841
1.35768
1.35692
1.35613
1.35532
1.35447
1.35361
1.35272
1.35181
1.35088
1.34994
1.34899
1.34803
1.34706
1.34608
1.3451
1.34413
1.34315
1.34218
1.34121
1.34025
1.3393
1.33836
1.33743
1.33651
1.33561
1.33472
1.33385
1.333
1.33216
1.33134
1.33053
1.32975
1.32898
1.32824
1.32751
1.3268
1.3261
1.32543
1.32478
1.32414
1.32352
1.32292
1.32233
1.32177
1.32122
1.32068
1.32016
1.31966
1.31918
1.31871
1.31825
1.31781
1.31739
1.31698
1.31659
1.31621
1.31584
1.31549
1.31515
1.31482
1.31451
1.31421
1.31393
1.31365
1.31339
1.31314
1.31291
1.31268
1.31247
1.31226
1.31207
1.31189
1.31172
1.31156
1.31141
1.31126
1.31113
1.31101
1.3109
1.31079
1.3107
1.31061
1.31053
1.31047
1.3104
1.31035
1.31032
1.31029
1.31025
1.31024
1.3103
1.31028
1.3102
1.31037
1.31056
1.31023
1.31013
1.31108
1.31099
1.30894
1.30992
1.31383
1.30922
1.30046
1.311
1.32006
1.33728
1.33742
1.33695
1.33629
1.33599
1.3355
1.33491
1.33433
1.33379
1.33317
1.33256
1.33197
1.33137
1.33077
1.33019
1.32962
1.32906
1.32851
1.32799
1.32748
1.32698
1.32651
1.32605
1.32561
1.32519
1.32479
1.32441
1.32405
1.3237
1.32338
1.32307
1.32279
1.32252
1.32227
1.32204
1.32183
1.32164
1.32146
1.32131
1.32117
1.32105
1.32095
1.32086
1.3208
1.32075
1.32072
1.32071
1.32071
1.32073
1.32077
1.32083
1.32091
1.321
1.32112
1.32125
1.3214
1.32157
1.32175
1.32196
1.32219
1.32244
1.3227
1.32299
1.3233
1.32364
1.32399
1.32437
1.32478
1.32521
1.32566
1.32614
1.32665
1.32718
1.32774
1.32833
1.32894
1.32959
1.33026
1.33095
1.33168
1.33243
1.33321
1.33401
1.33484
1.33569
1.33657
1.33747
1.33838
1.33931
1.34027
1.34123
1.34221
1.34319
1.34418
1.34518
1.34618
1.34718
1.34818
1.34917
1.35015
1.35112
1.35208
1.35303
1.35395
1.35485
1.35574
1.35659
1.35742
1.35822
1.35899
1.35973
1.36044
1.36112
1.36176
1.36237
1.36294
1.36348
1.36399
1.36447
1.36491
1.36532
1.36571
1.36606
1.36639
1.36669
1.36697
1.36723
1.36746
1.36768
1.36787
1.36805
1.36822
1.36837
1.3685
1.36863
1.36874
1.36885
1.36894
1.36903
1.36911
1.36919
1.36926
1.36932
1.36938
1.36944
1.36949
1.36954
1.36959
1.36963
1.36968
1.36972
1.36976
1.36979
1.36983
1.36987
1.3699
1.36994
1.36997
1.37
1.37003
1.37006
1.37009
1.37012
1.37016
1.37019
1.37022
1.37025
1.37028
1.3703
1.37034
1.37036
1.37039
1.37042
1.37045
1.37048
1.37051
1.37054
1.37056
1.37059
1.37061
1.37064
1.37066
1.37069
1.37071
1.37073
1.37075
1.37076
1.37078
1.37079
1.37081
1.37082
1.37083
1.37084
1.37085
1.37085
1.37085
1.37086
1.37086
1.37086
1.37085
1.37085
1.37085
1.37084
1.37083
1.37082
1.37082
1.3708
1.37079
1.37078
1.37077
1.37076
1.37075
1.37074
1.37072
1.37071
1.3707
1.37069
1.37067
1.37066
1.37065
1.37064
1.37063
1.37061
1.3706
1.37059
1.37058
1.37057
1.37056
1.37054
1.37053
1.37052
1.3705
1.37048
1.37047
1.37045
1.37042
1.3704
1.37037
1.37034
1.37031
1.37027
1.37023
1.37018
1.37013
1.37008
1.37002
1.36996
1.36989
1.36982
1.36975
1.36967
1.36958
1.36949
1.3694
1.3693
1.3692
1.36909
1.36898
1.36887
1.36875
1.36863
1.3685
1.36837
1.36824
1.3681
1.36796
1.36781
1.36766
1.3675
1.36734
1.36717
1.36699
1.3668
1.3666
1.36639
1.36617
1.36594
1.36569
1.36542
1.36513
1.36483
1.3645
1.36415
1.36377
1.36336
1.36293
1.36247
1.36198
1.36145
1.36089
1.3603
1.35967
1.35902
1.35832
1.3576
1.35685
1.35606
1.35525
1.35442
1.35355
1.35267
1.35177
1.35085
1.34991
1.34896
1.34801
1.34704
1.34607
1.3451
1.34413
1.34316
1.34219
1.34123
1.34027
1.33932
1.33839
1.33746
1.33655
1.33565
1.33476
1.33389
1.33304
1.3322
1.33138
1.33058
1.3298
1.32903
1.32829
1.32756
1.32685
1.32616
1.32548
1.32483
1.32419
1.32357
1.32297
1.32238
1.32181
1.32126
1.32072
1.32021
1.3197
1.31922
1.31875
1.31829
1.31785
1.31742
1.31701
1.31662
1.31623
1.31587
1.31551
1.31517
1.31484
1.31453
1.31423
1.31394
1.31367
1.3134
1.31315
1.31291
1.31269
1.31247
1.31227
1.31207
1.31189
1.31171
1.31155
1.3114
1.31125
1.31111
1.31099
1.31087
1.31076
1.31066
1.31057
1.31049
1.31042
1.31035
1.3103
1.31024
1.31021
1.31019
1.31015
1.31012
1.31017
1.31019
1.31008
1.3101
1.31037
1.31021
1.30973
1.31017
1.31086
1.30915
1.30767
1.31033
1.30977
1.29987
1.29437
1.33662
1.3376
1.33689
1.3362
1.33618
1.33561
1.3349
1.33441
1.33386
1.3332
1.3326
1.33202
1.3314
1.3308
1.33022
1.32964
1.32908
1.32854
1.32801
1.32749
1.327
1.32652
1.32607
1.32563
1.32521
1.32481
1.32442
1.32406
1.32372
1.32339
1.32308
1.3228
1.32253
1.32228
1.32205
1.32184
1.32164
1.32147
1.32131
1.32117
1.32105
1.32095
1.32087
1.3208
1.32075
1.32072
1.32071
1.32071
1.32074
1.32078
1.32083
1.32091
1.321
1.32111
1.32124
1.32139
1.32156
1.32175
1.32195
1.32218
1.32242
1.32269
1.32298
1.32329
1.32362
1.32397
1.32435
1.32475
1.32518
1.32563
1.32611
1.32661
1.32714
1.3277
1.32829
1.3289
1.32954
1.33021
1.3309
1.33162
1.33237
1.33315
1.33395
1.33478
1.33563
1.3365
1.33739
1.33831
1.33924
1.34019
1.34115
1.34213
1.34311
1.3441
1.3451
1.3461
1.3471
1.3481
1.34909
1.35007
1.35105
1.35201
1.35295
1.35388
1.35478
1.35567
1.35652
1.35736
1.35816
1.35894
1.35968
1.36039
1.36107
1.36171
1.36232
1.3629
1.36344
1.36395
1.36443
1.36487
1.36529
1.36567
1.36603
1.36635
1.36666
1.36694
1.36719
1.36742
1.36764
1.36783
1.36801
1.36817
1.36832
1.36846
1.36858
1.36869
1.3688
1.36889
1.36898
1.36906
1.36913
1.3692
1.36926
1.36932
1.36938
1.36943
1.36948
1.36952
1.36957
1.36961
1.36965
1.36969
1.36972
1.36976
1.3698
1.36983
1.36986
1.3699
1.36993
1.36996
1.36999
1.37002
1.37005
1.37008
1.37011
1.37014
1.37017
1.3702
1.37023
1.37026
1.37029
1.37032
1.37034
1.37037
1.3704
1.37043
1.37046
1.37048
1.37051
1.37053
1.37056
1.37058
1.3706
1.37062
1.37064
1.37066
1.37068
1.3707
1.37071
1.37072
1.37073
1.37074
1.37075
1.37076
1.37076
1.37077
1.37077
1.37077
1.37077
1.37077
1.37076
1.37076
1.37075
1.37074
1.37073
1.37073
1.37071
1.3707
1.37069
1.37068
1.37067
1.37066
1.37064
1.37063
1.37062
1.37061
1.37059
1.37058
1.37057
1.37056
1.37054
1.37053
1.37052
1.37051
1.3705
1.37049
1.37048
1.37046
1.37045
1.37044
1.37042
1.37041
1.37039
1.37037
1.37035
1.37033
1.37031
1.37028
1.37025
1.37022
1.37018
1.37014
1.37009
1.37004
1.36999
1.36993
1.36987
1.36981
1.36973
1.36966
1.36958
1.36949
1.3694
1.36931
1.36921
1.36911
1.369
1.36889
1.36878
1.36866
1.36853
1.36841
1.36828
1.36814
1.368
1.36786
1.36771
1.36756
1.3674
1.36724
1.36707
1.36689
1.3667
1.3665
1.36629
1.36607
1.36583
1.36558
1.36531
1.36503
1.36472
1.36439
1.36404
1.36367
1.36326
1.36283
1.36237
1.36188
1.36135
1.3608
1.36021
1.35958
1.35893
1.35824
1.35752
1.35677
1.35599
1.35518
1.35435
1.35349
1.35261
1.35171
1.35079
1.34986
1.34892
1.34797
1.34701
1.34604
1.34507
1.3441
1.34314
1.34217
1.34121
1.34026
1.33932
1.33838
1.33746
1.33655
1.33566
1.33477
1.33391
1.33306
1.33222
1.3314
1.33061
1.32982
1.32906
1.32831
1.32759
1.32687
1.32618
1.32551
1.32485
1.32422
1.3236
1.32299
1.32241
1.32184
1.32129
1.32075
1.32023
1.31973
1.31924
1.31877
1.31831
1.31787
1.31744
1.31703
1.31663
1.31625
1.31588
1.31552
1.31518
1.31485
1.31454
1.31424
1.31395
1.31367
1.31341
1.31315
1.31291
1.31268
1.31247
1.31226
1.31206
1.31188
1.3117
1.31153
1.31138
1.31123
1.31109
1.31096
1.31084
1.31073
1.31063
1.31054
1.31045
1.31037
1.3103
1.31024
1.31018
1.31012
1.3101
1.31009
1.31001
1.30998
1.31011
1.31004
1.30977
1.31002
1.31043
1.30958
1.309
1.31087
1.31054
1.30574
1.30774
1.31458
1.30218
1.28998
1.33704
1.33712
1.33699
1.33674
1.33622
1.33556
1.33509
1.33451
1.33385
1.33325
1.33266
1.33202
1.33141
1.33081
1.33022
1.32964
1.32908
1.32853
1.328
1.32748
1.32699
1.32651
1.32605
1.32561
1.32519
1.32479
1.32441
1.32404
1.3237
1.32337
1.32307
1.32278
1.32251
1.32226
1.32203
1.32182
1.32163
1.32145
1.3213
1.32116
1.32104
1.32094
1.32085
1.32079
1.32074
1.32071
1.32069
1.3207
1.32072
1.32076
1.32081
1.32089
1.32098
1.32109
1.32122
1.32137
1.32153
1.32172
1.32192
1.32214
1.32239
1.32265
1.32294
1.32324
1.32357
1.32393
1.3243
1.3247
1.32512
1.32557
1.32605
1.32655
1.32708
1.32763
1.32821
1.32882
1.32946
1.33012
1.33081
1.33153
1.33228
1.33305
1.33385
1.33468
1.33552
1.3364
1.33729
1.3382
1.33913
1.34008
1.34104
1.34202
1.343
1.344
1.34499
1.346
1.347
1.348
1.34899
1.34998
1.35096
1.35192
1.35287
1.3538
1.35471
1.3556
1.35646
1.3573
1.3581
1.35888
1.35963
1.36034
1.36102
1.36167
1.36228
1.36286
1.36341
1.36392
1.3644
1.36484
1.36525
1.36564
1.36599
1.36632
1.36662
1.3669
1.36715
1.36738
1.36759
1.36778
1.36796
1.36812
1.36826
1.3684
1.36852
1.36863
1.36873
1.36882
1.3689
1.36898
1.36905
1.36912
1.36918
1.36924
1.36929
1.36934
1.36939
1.36943
1.36947
1.36951
1.36955
1.36959
1.36962
1.36966
1.36969
1.36973
1.36976
1.36979
1.36982
1.36985
1.36988
1.36991
1.36994
1.36997
1.37
1.37003
1.37006
1.37009
1.37012
1.37015
1.37017
1.3702
1.37023
1.37026
1.37029
1.37031
1.37034
1.37037
1.37039
1.37042
1.37044
1.37046
1.37048
1.3705
1.37052
1.37054
1.37056
1.37057
1.37059
1.3706
1.37061
1.37062
1.37063
1.37063
1.37064
1.37064
1.37064
1.37064
1.37064
1.37064
1.37063
1.37063
1.37062
1.37062
1.37061
1.3706
1.37059
1.37058
1.37056
1.37055
1.37054
1.37053
1.37051
1.3705
1.37049
1.37048
1.37046
1.37045
1.37044
1.37043
1.37042
1.3704
1.37039
1.37038
1.37037
1.37036
1.37035
1.37034
1.37033
1.37031
1.3703
1.37029
1.37027
1.37025
1.37023
1.37021
1.37019
1.37016
1.37013
1.3701
1.37006
1.37002
1.36998
1.36993
1.36988
1.36982
1.36976
1.36969
1.36962
1.36954
1.36946
1.36938
1.36929
1.3692
1.3691
1.369
1.36889
1.36878
1.36866
1.36855
1.36842
1.3683
1.36817
1.36803
1.36789
1.36775
1.3676
1.36745
1.36729
1.36713
1.36695
1.36678
1.36659
1.36639
1.36618
1.36596
1.36572
1.36547
1.3652
1.36492
1.36461
1.36428
1.36393
1.36355
1.36315
1.36272
1.36226
1.36177
1.36124
1.36069
1.3601
1.35947
1.35882
1.35813
1.35741
1.35666
1.35588
1.35508
1.35424
1.35339
1.35251
1.35161
1.3507
1.34977
1.34883
1.34788
1.34692
1.34596
1.34499
1.34403
1.34307
1.34211
1.34115
1.3402
1.33926
1.33833
1.33742
1.33651
1.33562
1.33474
1.33388
1.33303
1.3322
1.33139
1.33059
1.32981
1.32905
1.3283
1.32758
1.32687
1.32618
1.32551
1.32486
1.32422
1.3236
1.323
1.32241
1.32185
1.32129
1.32076
1.32024
1.31974
1.31925
1.31878
1.31832
1.31788
1.31745
1.31704
1.31664
1.31626
1.31589
1.31553
1.31519
1.31486
1.31454
1.31424
1.31395
1.31367
1.31341
1.31315
1.31291
1.31268
1.31246
1.31225
1.31206
1.31187
1.31169
1.31152
1.31137
1.31122
1.31108
1.31095
1.31082
1.31071
1.31061
1.31051
1.31042
1.31034
1.31026
1.31019
1.31015
1.3101
1.31002
1.31001
1.31005
1.30995
1.30984
1.31004
1.31012
1.30964
1.30967
1.31057
1.30996
1.30828
1.30993
1.31159
1.30685
1.30479
1.31016
1.31077
1.33781
1.33751
1.33736
1.33699
1.33627
1.33572
1.33525
1.33454
1.33389
1.33331
1.33266
1.33201
1.3314
1.3308
1.33019
1.32961
1.32904
1.32849
1.32795
1.32744
1.32694
1.32646
1.326
1.32556
1.32514
1.32474
1.32436
1.324
1.32365
1.32333
1.32302
1.32274
1.32247
1.32222
1.32199
1.32178
1.32159
1.32142
1.32126
1.32112
1.321
1.3209
1.32081
1.32075
1.3207
1.32067
1.32065
1.32066
1.32068
1.32071
1.32077
1.32084
1.32093
1.32104
1.32117
1.32131
1.32148
1.32166
1.32186
1.32208
1.32232
1.32259
1.32287
1.32317
1.3235
1.32385
1.32422
1.32462
1.32504
1.32548
1.32595
1.32645
1.32697
1.32752
1.3281
1.32871
1.32934
1.33
1.33069
1.33141
1.33215
1.33292
1.33372
1.33454
1.33538
1.33626
1.33715
1.33806
1.33899
1.33994
1.3409
1.34188
1.34287
1.34386
1.34486
1.34587
1.34687
1.34788
1.34888
1.34987
1.35085
1.35182
1.35277
1.35371
1.35462
1.35552
1.35639
1.35723
1.35804
1.35883
1.35958
1.3603
1.36099
1.36164
1.36225
1.36283
1.36338
1.36389
1.36437
1.36481
1.36523
1.36561
1.36596
1.36628
1.36658
1.36685
1.3671
1.36733
1.36754
1.36773
1.3679
1.36805
1.36819
1.36832
1.36844
1.36855
1.36864
1.36873
1.36881
1.36888
1.36895
1.36901
1.36907
1.36913
1.36918
1.36922
1.36927
1.36931
1.36935
1.36939
1.36942
1.36946
1.36949
1.36953
1.36956
1.36959
1.36962
1.36965
1.36968
1.36972
1.36974
1.36977
1.3698
1.36983
1.36986
1.36989
1.36992
1.36995
1.36997
1.37
1.37003
1.37006
1.37008
1.37011
1.37014
1.37016
1.37019
1.37022
1.37024
1.37026
1.37029
1.37031
1.37033
1.37035
1.37037
1.37039
1.3704
1.37042
1.37043
1.37044
1.37045
1.37046
1.37047
1.37048
1.37048
1.37048
1.37048
1.37048
1.37048
1.37048
1.37047
1.37047
1.37046
1.37045
1.37044
1.37043
1.37042
1.37041
1.3704
1.37039
1.37038
1.37036
1.37035
1.37034
1.37032
1.37031
1.3703
1.37029
1.37028
1.37027
1.37025
1.37024
1.37023
1.37022
1.37021
1.3702
1.37019
1.37018
1.37017
1.37016
1.37014
1.37013
1.37012
1.3701
1.37008
1.37006
1.37004
1.37001
1.36998
1.36995
1.36991
1.36988
1.36983
1.36979
1.36973
1.36968
1.36962
1.36955
1.36948
1.36941
1.36933
1.36924
1.36915
1.36906
1.36896
1.36886
1.36876
1.36865
1.36853
1.36842
1.36829
1.36817
1.36804
1.36791
1.36777
1.36762
1.36748
1.36733
1.36717
1.367
1.36683
1.36665
1.36647
1.36627
1.36606
1.36584
1.3656
1.36535
1.36508
1.3648
1.36449
1.36416
1.36381
1.36343
1.36303
1.3626
1.36213
1.36164
1.36111
1.36055
1.35996
1.35934
1.35868
1.35799
1.35727
1.35651
1.35573
1.35492
1.35409
1.35323
1.35235
1.35146
1.35054
1.34962
1.34868
1.34773
1.34677
1.34581
1.34485
1.34389
1.34293
1.34198
1.34102
1.34008
1.33915
1.33822
1.33731
1.33641
1.33552
1.33465
1.33379
1.33295
1.33213
1.33132
1.33053
1.32975
1.329
1.32826
1.32754
1.32683
1.32615
1.32548
1.32483
1.3242
1.32358
1.32298
1.3224
1.32183
1.32129
1.32075
1.32024
1.31973
1.31925
1.31878
1.31832
1.31788
1.31745
1.31704
1.31664
1.31626
1.31589
1.31554
1.31519
1.31487
1.31455
1.31425
1.31396
1.31368
1.31341
1.31316
1.31292
1.31269
1.31247
1.31226
1.31206
1.31187
1.3117
1.31153
1.31137
1.31122
1.31108
1.31095
1.31083
1.31071
1.31061
1.31051
1.31042
1.31034
1.31028
1.3102
1.31014
1.31012
1.31008
1.31
1.31003
1.31009
1.30996
1.30988
1.31023
1.31022
1.3096
1.31009
1.31111
1.30959
1.30865
1.31205
1.31136
1.30641
1.30974
1.31225
1.3387
1.33828
1.33774
1.3371
1.33656
1.33598
1.33527
1.33458
1.33398
1.3333
1.33262
1.33199
1.33136
1.33073
1.33013
1.32954
1.32896
1.32841
1.32787
1.32735
1.32686
1.32638
1.32592
1.32548
1.32506
1.32466
1.32428
1.32392
1.32358
1.32325
1.32295
1.32267
1.3224
1.32215
1.32193
1.32172
1.32153
1.32135
1.3212
1.32106
1.32094
1.32084
1.32075
1.32069
1.32064
1.32061
1.32059
1.32059
1.32061
1.32065
1.32071
1.32078
1.32087
1.32097
1.3211
1.32124
1.3214
1.32158
1.32178
1.322
1.32224
1.32249
1.32277
1.32307
1.3234
1.32374
1.32411
1.3245
1.32492
1.32536
1.32582
1.32632
1.32684
1.32738
1.32795
1.32856
1.32919
1.32984
1.33053
1.33124
1.33198
1.33275
1.33354
1.33436
1.33521
1.33608
1.33697
1.33788
1.33881
1.33976
1.34073
1.34171
1.3427
1.34369
1.3447
1.34571
1.34672
1.34773
1.34873
1.34973
1.35072
1.3517
1.35266
1.3536
1.35453
1.35543
1.35631
1.35716
1.35798
1.35877
1.35953
1.36025
1.36094
1.3616
1.36222
1.3628
1.36335
1.36386
1.36434
1.36478
1.36519
1.36558
1.36592
1.36624
1.36654
1.36681
1.36705
1.36727
1.36748
1.36766
1.36782
1.36798
1.36811
1.36823
1.36835
1.36845
1.36854
1.36862
1.3687
1.36877
1.36883
1.36889
1.36894
1.36899
1.36904
1.36908
1.36912
1.36916
1.3692
1.36924
1.36927
1.3693
1.36934
1.36937
1.3694
1.36943
1.36946
1.36949
1.36952
1.36955
1.36957
1.3696
1.36963
1.36966
1.36969
1.36972
1.36974
1.36977
1.3698
1.36982
1.36985
1.36988
1.3699
1.36993
1.36996
1.36998
1.37001
1.37003
1.37005
1.37008
1.3701
1.37012
1.37014
1.37016
1.37018
1.3702
1.37021
1.37023
1.37024
1.37025
1.37026
1.37027
1.37027
1.37028
1.37028
1.37029
1.37029
1.37029
1.37028
1.37028
1.37027
1.37027
1.37026
1.37025
1.37024
1.37024
1.37022
1.37021
1.3702
1.37019
1.37018
1.37017
1.37015
1.37014
1.37013
1.37012
1.3701
1.37009
1.37008
1.37007
1.37006
1.37005
1.37004
1.37003
1.37002
1.37001
1.37
1.36999
1.36998
1.36997
1.36996
1.36995
1.36993
1.36992
1.3699
1.36988
1.36986
1.36984
1.36981
1.36978
1.36974
1.3697
1.36966
1.36962
1.36957
1.36951
1.36945
1.36939
1.36932
1.36925
1.36917
1.36908
1.369
1.36891
1.36881
1.36871
1.36861
1.3685
1.36838
1.36827
1.36815
1.36802
1.3679
1.36776
1.36763
1.36749
1.36734
1.36719
1.36704
1.36687
1.3667
1.36652
1.36634
1.36614
1.36593
1.36571
1.36548
1.36523
1.36496
1.36467
1.36436
1.36403
1.36368
1.3633
1.36289
1.36245
1.36199
1.36149
1.36096
1.36039
1.3598
1.35916
1.3585
1.3578
1.35708
1.35632
1.35553
1.35472
1.35388
1.35302
1.35214
1.35124
1.35033
1.3494
1.34846
1.34751
1.34656
1.3456
1.34464
1.34368
1.34272
1.34177
1.34083
1.33989
1.33896
1.33804
1.33713
1.33624
1.33536
1.33449
1.33364
1.33281
1.33199
1.33119
1.33041
1.32964
1.32889
1.32816
1.32745
1.32675
1.32608
1.32541
1.32477
1.32414
1.32354
1.32294
1.32236
1.3218
1.32126
1.32073
1.32022
1.31972
1.31924
1.31877
1.31832
1.31788
1.31746
1.31705
1.31665
1.31627
1.3159
1.31555
1.31521
1.31488
1.31457
1.31427
1.31398
1.3137
1.31344
1.31318
1.31294
1.31271
1.31249
1.31229
1.31209
1.3119
1.31172
1.31156
1.3114
1.31125
1.31111
1.31098
1.31087
1.31075
1.31065
1.31056
1.31048
1.31039
1.31033
1.31029
1.31022
1.31017
1.3102
1.31019
1.31009
1.31015
1.31035
1.3102
1.31003
1.31062
1.31086
1.30992
1.3104
1.31224
1.31086
1.30917
1.31248
1.31429
1.31128
1.31094
1.33973
1.33893
1.3382
1.33746
1.33684
1.33609
1.33532
1.33467
1.33398
1.33324
1.33258
1.33193
1.33127
1.33063
1.33003
1.32942
1.32884
1.32829
1.32775
1.32723
1.32673
1.32625
1.32579
1.32536
1.32494
1.32454
1.32416
1.32381
1.32347
1.32315
1.32285
1.32257
1.3223
1.32206
1.32183
1.32163
1.32144
1.32127
1.32111
1.32098
1.32086
1.32076
1.32067
1.32061
1.32056
1.32053
1.32051
1.32051
1.32053
1.32057
1.32062
1.32069
1.32078
1.32088
1.32101
1.32115
1.3213
1.32148
1.32168
1.32189
1.32212
1.32238
1.32265
1.32295
1.32327
1.32361
1.32397
1.32436
1.32477
1.32521
1.32566
1.32615
1.32667
1.32721
1.32778
1.32837
1.329
1.32965
1.33033
1.33104
1.33178
1.33254
1.33333
1.33415
1.33499
1.33586
1.33675
1.33767
1.3386
1.33955
1.34052
1.3415
1.34249
1.34349
1.3445
1.34552
1.34653
1.34755
1.34856
1.34957
1.35057
1.35155
1.35252
1.35347
1.35441
1.35532
1.35621
1.35707
1.3579
1.3587
1.35946
1.3602
1.36089
1.36156
1.36218
1.36277
1.36332
1.36383
1.36431
1.36475
1.36516
1.36554
1.36588
1.3662
1.36649
1.36675
1.36699
1.36721
1.3674
1.36758
1.36774
1.36788
1.36801
1.36813
1.36823
1.36833
1.36842
1.36849
1.36856
1.36863
1.36869
1.36874
1.36879
1.36884
1.36888
1.36892
1.36896
1.36899
1.36903
1.36906
1.36909
1.36912
1.36915
1.36918
1.36921
1.36924
1.36927
1.3693
1.36932
1.36935
1.36938
1.36941
1.36943
1.36946
1.36949
1.36951
1.36954
1.36957
1.36959
1.36962
1.36964
1.36967
1.3697
1.36972
1.36975
1.36977
1.36979
1.36982
1.36984
1.36986
1.36988
1.3699
1.36992
1.36994
1.36996
1.36998
1.36999
1.37
1.37002
1.37003
1.37004
1.37004
1.37005
1.37006
1.37006
1.37006
1.37006
1.37006
1.37006
1.37005
1.37005
1.37004
1.37003
1.37003
1.37001
1.37001
1.36999
1.36998
1.36997
1.36996
1.36995
1.36994
1.36992
1.36991
1.3699
1.36989
1.36988
1.36987
1.36986
1.36985
1.36984
1.36983
1.36982
1.36981
1.3698
1.36979
1.36979
1.36978
1.36977
1.36976
1.36975
1.36974
1.36973
1.36971
1.3697
1.36968
1.36966
1.36963
1.36961
1.36958
1.36955
1.36951
1.36947
1.36942
1.36937
1.36932
1.36926
1.3692
1.36913
1.36906
1.36899
1.3689
1.36882
1.36873
1.36864
1.36854
1.36843
1.36833
1.36822
1.3681
1.36799
1.36786
1.36774
1.36761
1.36748
1.36734
1.36719
1.36705
1.36689
1.36673
1.36656
1.36639
1.3662
1.36601
1.3658
1.36558
1.36535
1.36509
1.36483
1.36454
1.36423
1.3639
1.36354
1.36315
1.36274
1.3623
1.36182
1.36132
1.36078
1.36021
1.3596
1.35896
1.35829
1.35758
1.35684
1.35608
1.35528
1.35446
1.35362
1.35275
1.35187
1.35096
1.35004
1.34912
1.34818
1.34722
1.34627
1.34532
1.34436
1.3434
1.34245
1.3415
1.34056
1.33962
1.3387
1.33779
1.33689
1.336
1.33513
1.33427
1.33343
1.3326
1.3318
1.331
1.33023
1.32948
1.32874
1.32802
1.32732
1.32663
1.32596
1.32531
1.32468
1.32406
1.32346
1.32287
1.3223
1.32175
1.32122
1.32069
1.32019
1.3197
1.31922
1.31876
1.31831
1.31788
1.31746
1.31706
1.31667
1.31629
1.31593
1.31557
1.31524
1.31491
1.3146
1.3143
1.31402
1.31374
1.31348
1.31323
1.31299
1.31276
1.31255
1.31234
1.31215
1.31196
1.31179
1.31162
1.31147
1.31132
1.31119
1.31106
1.31095
1.31084
1.31075
1.31066
1.31059
1.31052
1.31045
1.31042
1.3104
1.31036
1.31034
1.31041
1.31044
1.31035
1.31052
1.3108
1.31062
1.3106
1.31146
1.31156
1.31075
1.31199
1.3135
1.31211
1.31233
1.31488
1.31515
1.3158
1.34074
1.3395
1.33868
1.33787
1.33699
1.33617
1.33544
1.33469
1.3339
1.33319
1.33251
1.3318
1.33113
1.3305
1.32987
1.32926
1.32868
1.32812
1.32758
1.32706
1.32657
1.32609
1.32563
1.3252
1.32479
1.32439
1.32402
1.32366
1.32333
1.32301
1.32272
1.32244
1.32218
1.32194
1.32172
1.32151
1.32132
1.32116
1.32101
1.32087
1.32075
1.32066
1.32057
1.32051
1.32046
1.32043
1.32041
1.32041
1.32043
1.32047
1.32052
1.32059
1.32067
1.32077
1.32089
1.32103
1.32119
1.32136
1.32155
1.32176
1.32199
1.32224
1.32251
1.3228
1.32312
1.32345
1.32381
1.32419
1.32459
1.32502
1.32548
1.32596
1.32647
1.327
1.32757
1.32816
1.32877
1.32942
1.3301
1.3308
1.33154
1.3323
1.33308
1.3339
1.33474
1.33561
1.3365
1.33741
1.33834
1.3393
1.34027
1.34125
1.34225
1.34326
1.34427
1.34529
1.34631
1.34734
1.34836
1.34937
1.35038
1.35137
1.35236
1.35332
1.35427
1.35519
1.35609
1.35696
1.3578
1.35861
1.35939
1.36013
1.36083
1.3615
1.36213
1.36272
1.36328
1.36379
1.36427
1.36471
1.36512
1.36549
1.36583
1.36615
1.36643
1.36669
1.36692
1.36713
1.36732
1.36749
1.36764
1.36778
1.3679
1.36801
1.36811
1.3682
1.36828
1.36835
1.36841
1.36847
1.36852
1.36857
1.36862
1.36866
1.3687
1.36873
1.36876
1.3688
1.36883
1.36886
1.36889
1.36892
1.36894
1.36897
1.369
1.36902
1.36905
1.36908
1.3691
1.36913
1.36915
1.36918
1.36921
1.36923
1.36926
1.36928
1.36931
1.36934
1.36936
1.36939
1.36941
1.36943
1.36946
1.36948
1.36951
1.36953
1.36955
1.36958
1.3696
1.36962
1.36964
1.36966
1.36968
1.36969
1.36971
1.36973
1.36974
1.36975
1.36976
1.36977
1.36978
1.36979
1.36979
1.3698
1.3698
1.3698
1.3698
1.3698
1.3698
1.36979
1.36979
1.36978
1.36977
1.36977
1.36976
1.36975
1.36974
1.36973
1.36971
1.3697
1.36969
1.36968
1.36967
1.36966
1.36964
1.36963
1.36962
1.36961
1.3696
1.3696
1.36959
1.36958
1.36957
1.36956
1.36956
1.36955
1.36954
1.36954
1.36953
1.36952
1.36951
1.3695
1.36949
1.36948
1.36947
1.36945
1.36943
1.36941
1.36939
1.36936
1.36933
1.36929
1.36925
1.36921
1.36916
1.36911
1.36905
1.36899
1.36893
1.36886
1.36878
1.3687
1.36862
1.36853
1.36844
1.36835
1.36825
1.36814
1.36804
1.36792
1.36781
1.36769
1.36757
1.36744
1.36731
1.36718
1.36704
1.36689
1.36674
1.36658
1.36642
1.36625
1.36606
1.36587
1.36566
1.36544
1.36521
1.36496
1.36469
1.3644
1.36409
1.36375
1.36339
1.363
1.36258
1.36213
1.36164
1.36113
1.36058
1.35999
1.35937
1.35872
1.35804
1.35732
1.35657
1.35579
1.35499
1.35416
1.35331
1.35243
1.35154
1.35063
1.34971
1.34877
1.34783
1.34688
1.34593
1.34497
1.34401
1.34306
1.34211
1.34116
1.34022
1.33929
1.33838
1.33747
1.33658
1.33569
1.33483
1.33398
1.33315
1.33233
1.33154
1.33076
1.33
1.32925
1.32853
1.32782
1.32713
1.32646
1.3258
1.32516
1.32454
1.32394
1.32335
1.32278
1.32222
1.32168
1.32115
1.32064
1.32014
1.31966
1.3192
1.31874
1.3183
1.31788
1.31747
1.31707
1.31669
1.31631
1.31596
1.31561
1.31528
1.31496
1.31466
1.31436
1.31408
1.31381
1.31355
1.3133
1.31307
1.31284
1.31263
1.31243
1.31224
1.31206
1.31189
1.31173
1.31158
1.31144
1.31131
1.31119
1.31108
1.31098
1.3109
1.31082
1.31075
1.3107
1.31066
1.31062
1.31062
1.31065
1.31063
1.31064
1.31082
1.3109
1.31081
1.31111
1.3116
1.31138
1.31141
1.31269
1.31296
1.31209
1.31357
1.3157
1.31514
1.31515
1.31796
1.32001
1.34155
1.34008
1.3391
1.33811
1.33713
1.33628
1.33545
1.33461
1.33381
1.33309
1.33235
1.33163
1.33096
1.33031
1.32966
1.32906
1.32848
1.32791
1.32737
1.32686
1.32636
1.32589
1.32544
1.32501
1.3246
1.32421
1.32384
1.32349
1.32316
1.32285
1.32256
1.32229
1.32203
1.32179
1.32158
1.32137
1.32119
1.32103
1.32088
1.32075
1.32063
1.32053
1.32045
1.32039
1.32034
1.32031
1.32029
1.32029
1.32031
1.32034
1.3204
1.32046
1.32054
1.32064
1.32076
1.32089
1.32105
1.32122
1.3214
1.32161
1.32184
1.32208
1.32234
1.32263
1.32294
1.32327
1.32362
1.32399
1.32439
1.32481
1.32527
1.32574
1.32624
1.32677
1.32732
1.3279
1.32852
1.32916
1.32983
1.33053
1.33126
1.33201
1.3328
1.33361
1.33445
1.33531
1.3362
1.33711
1.33805
1.339
1.33997
1.34096
1.34196
1.34297
1.344
1.34502
1.34605
1.34708
1.34812
1.34914
1.35015
1.35116
1.35216
1.35313
1.35409
1.35503
1.35594
1.35683
1.35768
1.35851
1.35929
1.36004
1.36076
1.36144
1.36207
1.36267
1.36323
1.36374
1.36422
1.36466
1.36507
1.36544
1.36578
1.36608
1.36636
1.36661
1.36684
1.36704
1.36722
1.36738
1.36753
1.36766
1.36777
1.36788
1.36797
1.36805
1.36812
1.36819
1.36825
1.3683
1.36834
1.36839
1.36843
1.36846
1.3685
1.36853
1.36856
1.36858
1.36861
1.36864
1.36866
1.36869
1.36871
1.36874
1.36876
1.36879
1.36881
1.36884
1.36886
1.36889
1.36891
1.36894
1.36896
1.36898
1.36901
1.36903
1.36906
1.36908
1.3691
1.36913
1.36915
1.36918
1.3692
1.36922
1.36924
1.36927
1.36929
1.36931
1.36933
1.36935
1.36937
1.36939
1.3694
1.36942
1.36944
1.36945
1.36946
1.36948
1.36949
1.3695
1.3695
1.36951
1.36952
1.36952
1.36952
1.36952
1.36952
1.36952
1.36952
1.36951
1.36951
1.3695
1.36949
1.36948
1.36947
1.36946
1.36945
1.36944
1.36943
1.36942
1.36941
1.3694
1.36939
1.36938
1.36936
1.36936
1.36935
1.36934
1.36933
1.36932
1.36931
1.36931
1.3693
1.3693
1.36929
1.36929
1.36928
1.36928
1.36927
1.36926
1.36926
1.36925
1.36924
1.36923
1.36922
1.3692
1.36918
1.36916
1.36914
1.36912
1.36909
1.36905
1.36902
1.36897
1.36893
1.36888
1.36882
1.36877
1.3687
1.36863
1.36856
1.36849
1.36841
1.36832
1.36823
1.36814
1.36804
1.36794
1.36784
1.36773
1.36762
1.3675
1.36739
1.36726
1.36714
1.367
1.36687
1.36673
1.36658
1.36643
1.36627
1.36609
1.36591
1.36572
1.36552
1.3653
1.36507
1.36481
1.36454
1.36425
1.36394
1.36359
1.36323
1.36283
1.3624
1.36194
1.36145
1.36092
1.36036
1.35976
1.35912
1.35846
1.35776
1.35702
1.35626
1.35547
1.35465
1.35381
1.35295
1.35206
1.35116
1.35025
1.34932
1.34838
1.34744
1.34648
1.34553
1.34457
1.34362
1.34266
1.34171
1.34077
1.33983
1.33891
1.338
1.33709
1.33621
1.33534
1.33448
1.33364
1.33282
1.33202
1.33123
1.33046
1.32972
1.32898
1.32827
1.32758
1.3269
1.32624
1.3256
1.32498
1.32437
1.32378
1.32321
1.32265
1.32211
1.32158
1.32107
1.32057
1.32008
1.31961
1.31916
1.31872
1.31829
1.31787
1.31747
1.31709
1.31671
1.31635
1.316
1.31566
1.31534
1.31503
1.31473
1.31444
1.31416
1.3139
1.31365
1.3134
1.31317
1.31296
1.31275
1.31255
1.31237
1.31219
1.31203
1.31187
1.31173
1.3116
1.31147
1.31136
1.31127
1.31117
1.3111
1.31104
1.31098
1.31094
1.31093
1.31092
1.31091
1.31096
1.31105
1.31106
1.31114
1.31143
1.31156
1.31153
1.31204
1.31262
1.31245
1.31285
1.31427
1.31456
1.31449
1.31608
1.31765
1.31848
1.31981
1.32141
1.34212
1.3405
1.33937
1.33824
1.33724
1.3363
1.33535
1.3345
1.3337
1.3329
1.33213
1.33142
1.33073
1.33006
1.32942
1.32881
1.32822
1.32766
1.32713
1.32661
1.32612
1.32565
1.32521
1.32478
1.32438
1.324
1.32363
1.32329
1.32297
1.32266
1.32238
1.32211
1.32186
1.32163
1.32142
1.32122
1.32104
1.32088
1.32073
1.3206
1.32049
1.3204
1.32032
1.32025
1.32021
1.32017
1.32016
1.32016
1.32018
1.32021
1.32026
1.32032
1.3204
1.3205
1.32061
1.32074
1.32089
1.32106
1.32124
1.32144
1.32166
1.3219
1.32216
1.32244
1.32274
1.32306
1.32341
1.32377
1.32416
1.32458
1.32502
1.32549
1.32598
1.3265
1.32705
1.32763
1.32824
1.32886
1.32953
1.33022
1.33094
1.33169
1.33248
1.33328
1.33412
1.33498
1.33587
1.33678
1.33771
1.33867
1.33964
1.34063
1.34164
1.34265
1.34368
1.34471
1.34575
1.34679
1.34783
1.34887
1.3499
1.35091
1.35192
1.35292
1.35389
1.35484
1.35577
1.35667
1.35754
1.35837
1.35918
1.35994
1.36067
1.36136
1.362
1.3626
1.36317
1.36369
1.36417
1.36461
1.36501
1.36538
1.36571
1.36601
1.36629
1.36653
1.36675
1.36694
1.36712
1.36727
1.36741
1.36753
1.36764
1.36773
1.36782
1.36789
1.36795
1.36801
1.36806
1.36811
1.36815
1.36819
1.36822
1.36825
1.36828
1.36831
1.36833
1.36835
1.36838
1.3684
1.36842
1.36844
1.36847
1.36849
1.36851
1.36853
1.36856
1.36858
1.3686
1.36862
1.36865
1.36867
1.36869
1.36872
1.36874
1.36876
1.36878
1.36881
1.36883
1.36885
1.36887
1.3689
1.36892
1.36894
1.36896
1.36898
1.369
1.36902
1.36904
1.36906
1.36908