# vtk DataFile Version 2.0
LBE two cylinders
ASCII
DATASET STRUCTURED_POINTS
DIMENSIONS 400 100 1
ASPECT_RATIO 1 1 1
ORIGIN 0 0 0
POINT_DATA 40000
SCALARS rho double 1
LOOKUP_TABLE default
1.33863
1.33591
1.33618
1.3362
1.33527
1.33474
1.3344
1.33371
1.33308
1.33253
1.33192
1.33128
1.33069
1.33011
1.32951
1.32894
1.32839
1.32785
1.32733
1.32682
1.32634
1.32587
1.32542
1.32499
1.32458
1.3242
1.32383
1.32348
1.32314
1.32283
1.32254
1.32226
1.32201
1.32177
1.32155
1.32134
1.32115
1.32098
1.32083
1.32069
1.32057
1.32046
1.32037
1.3203
1.32024
1.3202
1.32017
1.32016
1.32017
1.32019
1.32023
1.32028
1.32036
1.32044
1.32055
1.32068
1.32082
1.32098
1.32116
1.32136
1.32158
1.32182
1.32208
1.32237
1.32268
1.32301
1.32336
1.32374
1.32414
1.32457
1.32503
1.32551
1.32601
1.32655
1.32711
1.3277
1.32832
1.32897
1.32964
1.33034
1.33107
1.33183
1.33261
1.33341
1.33424
1.33509
1.33597
1.33686
1.33777
1.3387
1.33964
1.3406
1.34156
1.34253
1.34351
1.34449
1.34547
1.34645
1.34742
1.34838
1.34934
1.35027
1.3512
1.3521
1.35299
1.35385
1.35468
1.35549
1.35627
1.35702
1.35773
1.35842
1.35906
1.35968
1.36026
1.36081
1.36132
1.36179
1.36224
1.36265
1.36303
1.36338
1.3637
1.36399
1.36426
1.3645
1.36472
1.36491
1.36509
1.36525
1.36539
1.36551
1.36562
1.36572
1.3658
1.36587
1.36594
1.36599
1.36604
1.36607
1.36611
1.36613
1.36615
1.36617
1.36619
1.3662
1.3662
1.36621
1.36621
1.36621
1.36621
1.36621
1.36621
1.36621
1.3662
1.3662
1.36619
1.36619
1.36618
1.36618
1.36617
1.36616
1.36616
1.36615
1.36615
1.36614
1.36614
1.36613
1.36613
1.36612
1.36612
1.36612
1.36611
1.36611
1.36611
1.36611
1.36611
1.36611
1.36611
1.3661
1.36611
1.36611
1.36611
1.36611
1.36611
1.36612
1.36612
1.36612
1.36613
1.36613
1.36614
1.36615
1.36615
1.36616
1.36617
1.36618
1.36619
1.3662
1.36622
1.36623
1.36624
1.36626
1.36627
1.36629
1.36631
1.36633
1.36635
1.36637
1.36639
1.36641
1.36644
1.36646
1.36649
1.36651
1.36654
1.36656
1.36659
1.36662
1.36665
1.36668
1.36671
1.36674
1.36677
1.36679
1.36682
1.36685
1.36688
1.3669
1.36693
1.36695
1.36697
1.36699
1.367
1.36701
1.36702
1.36703
1.36703
1.36703
1.36702
1.36701
1.367
1.36698
1.36695
1.36692
1.36688
1.36684
1.36679
1.36673
1.36667
1.3666
1.36653
1.36645
1.36636
1.36627
1.36617
1.36607
1.36597
1.36585
1.36574
1.36562
1.36549
1.36536
1.36523
1.3651
1.36496
1.36481
1.36466
1.36451
1.36435
1.36419
1.36402
1.36384
1.36366
1.36347
1.36326
1.36305
1.36282
1.36258
1.36233
1.36205
1.36176
1.36144
1.36111
1.36075
1.36036
1.35995
1.3595
1.35903
1.35852
1.35799
1.35742
1.35682
1.35619
1.35552
1.35483
1.35411
1.35336
1.35258
1.35178
1.35095
1.35011
1.34925
1.34837
1.34748
1.34658
1.34567
1.34476
1.34384
1.34292
1.342
1.34108
1.34017
1.33926
1.33836
1.33747
1.33659
1.33572
1.33486
1.33401
1.33318
1.33236
1.33156
1.33077
1.33
1.32925
1.32851
1.32779
1.32709
1.3264
1.32573
1.32507
1.32444
1.32382
1.32321
1.32262
1.32205
1.32149
1.32095
1.32042
1.31991
1.31942
1.31893
1.31847
1.31801
1.31757
1.31715
1.31673
1.31633
1.31594
1.31557
1.3152
1.31485
1.31451
1.31418
1.31386
1.31356
1.31326
1.31298
1.31271
1.31244
1.31219
1.31195
1.31171
1.31149
1.31128
1.31107
1.31088
1.31069
1.31051
1.31035
1.31019
1.31004
1.3099
1.30977
1.30965
1.30953
1.30943
1.30934
1.30925
1.30918
1.30912
1.30907
1.30901
1.30898
1.30901
1.30897
1.30887
1.30902
1.30919
1.30885
1.30873
1.30967
1.30956
1.3075
1.30847
1.31236
1.30774
1.29902
1.30955
1.3186
1.33676
1.3369
1.33641
1.33573
1.33543
1.33493
1.33433
1.33374
1.33319
1.33257
1.33195
1.33135
1.33075
1.33015
1.32956
1.329
1.32844
1.3279
1.32737
1.32687
1.32638
1.32591
1.32546
1.32503
1.32462
1.32423
1.32386
1.32351
1.32318
1.32287
1.32257
1.3223
1.32204
1.3218
1.32158
1.32137
1.32118
1.32101
1.32086
1.32072
1.3206
1.32049
1.3204
1.32033
1.32027
1.32022
1.3202
1.32019
1.32019
1.32021
1.32025
1.32031
1.32038
1.32047
1.32057
1.32069
1.32084
1.321
1.32118
1.32138
1.3216
1.32184
1.3221
1.32238
1.32269
1.32302
1.32337
1.32375
1.32415
1.32457
1.32503
1.32551
1.32601
1.32655
1.32711
1.32769
1.32831
1.32895
1.32963
1.33032
1.33105
1.3318
1.33258
1.33338
1.33421
1.33506
1.33593
1.33682
1.33773
1.33865
1.33959
1.34055
1.34151
1.34248
1.34345
1.34443
1.34541
1.34638
1.34736
1.34832
1.34927
1.35021
1.35113
1.35204
1.35292
1.35378
1.35462
1.35543
1.35621
1.35696
1.35767
1.35836
1.35901
1.35963
1.36021
1.36076
1.36127
1.36175
1.3622
1.36261
1.363
1.36335
1.36367
1.36397
1.36423
1.36448
1.3647
1.3649
1.36507
1.36523
1.36537
1.3655
1.36561
1.36571
1.36579
1.36586
1.36593
1.36598
1.36603
1.36607
1.3661
1.36613
1.36615
1.36617
1.36618
1.36619
1.3662
1.36621
1.36621
1.36621
1.36621
1.36621
1.36621
1.3662
1.3662
1.36619
1.36619
1.36618
1.36618
1.36617
1.36617
1.36616
1.36615
1.36615
1.36614
1.36614
1.36613
1.36613
1.36613
1.36612
1.36612
1.36611
1.36611
1.36611
1.36611
1.3661
1.3661
1.3661
1.3661
1.3661
1.3661
1.3661
1.3661
1.3661
1.36611
1.36611
1.36611
1.36612
1.36612
1.36613
1.36613
1.36614
1.36615
1.36615
1.36616
1.36617
1.36618
1.36619
1.36621
1.36622
1.36623
1.36625
1.36626
1.36628
1.3663
1.36632
1.36634
1.36636
1.36638
1.3664
1.36642
1.36645
1.36647
1.3665
1.36652
1.36655
1.36658
1.3666
1.36663
1.36666
1.36669
1.36672
1.36674
1.36677
1.3668
1.36683
1.36685
1.36688
1.3669
1.36692
1.36694
1.36696
1.36698
1.36699
1.367
1.367
1.367
1.367
1.367
1.36698
1.36697
1.36695
1.36692
1.36689
1.36685
1.36681
1.36676
1.3667
1.36664
1.36657
1.3665
1.36642
1.36633
1.36624
1.36614
1.36604
1.36593
1.36582
1.3657
1.36558
1.36546
1.36533
1.36519
1.36506
1.36491
1.36477
1.36462
1.36446
1.3643
1.36414
1.36396
1.36378
1.3636
1.3634
1.3632
1.36298
1.36275
1.36251
1.36225
1.36198
1.36168
1.36137
1.36103
1.36067
1.36028
1.35986
1.35942
1.35895
1.35845
1.35791
1.35735
1.35675
1.35612
1.35546
1.35477
1.35405
1.3533
1.35253
1.35173
1.35091
1.35007
1.34922
1.34835
1.34746
1.34656
1.34566
1.34475
1.34384
1.34292
1.34201
1.34109
1.34018
1.33928
1.33838
1.33749
1.33662
1.33575
1.33489
1.33405
1.33322
1.3324
1.3316
1.33082
1.33005
1.3293
1.32856
1.32784
1.32714
1.32645
1.32578
1.32512
1.32449
1.32386
1.32326
1.32267
1.3221
1.32154
1.321
1.32047
1.31996
1.31946
1.31898
1.31851
1.31805
1.31761
1.31718
1.31677
1.31636
1.31597
1.3156
1.31523
1.31488
1.31453
1.3142
1.31389
1.31358
1.31328
1.31299
1.31272
1.31245
1.3122
1.31195
1.31172
1.31149
1.31128
1.31107
1.31087
1.31068
1.31051
1.31034
1.31017
1.31002
1.30988
1.30974
1.30962
1.3095
1.30939
1.30929
1.30921
1.30913
1.30905
1.30899
1.30895
1.30889
1.30883
1.30886
1.30886
1.30874
1.30874
1.30899
1.30882
1.30832
1.30874
1.30942
1.3077
1.30622
1.30887
1.30832
1.29845
1.29298
1.33609
1.33707
1.33636
1.33565
1.33562
1.33504
1.33432
1.33383
1.33327
1.3326
1.33199
1.33141
1.33078
1.33018
1.3296
1.32903
1.32846
1.32792
1.3274
1.32689
1.3264
1.32593
1.32548
1.32505
1.32464
1.32425
1.32388
1.32353
1.32319
1.32288
1.32259
1.32231
1.32205
1.32181
1.32159
1.32138
1.32119
1.32102
1.32087
1.32073
1.32061
1.3205
1.32041
1.32033
1.32028
1.32023
1.32021
1.32019
1.3202
1.32022
1.32026
1.32031
1.32038
1.32047
1.32057
1.3207
1.32084
1.321
1.32117
1.32137
1.32159
1.32183
1.32209
1.32237
1.32268
1.323
1.32335
1.32373
1.32413
1.32455
1.325
1.32548
1.32598
1.32651
1.32707
1.32766
1.32827
1.32891
1.32958
1.33028
1.331
1.33175
1.33252
1.33332
1.33415
1.335
1.33587
1.33676
1.33766
1.33859
1.33953
1.34048
1.34144
1.34241
1.34338
1.34436
1.34534
1.34632
1.34729
1.34825
1.34921
1.35015
1.35107
1.35198
1.35287
1.35373
1.35457
1.35538
1.35617
1.35692
1.35764
1.35833
1.35898
1.3596
1.36019
1.36074
1.36126
1.36174
1.36219
1.36261
1.36299
1.36334
1.36367
1.36396
1.36423
1.36448
1.3647
1.3649
1.36507
1.36523
1.36537
1.3655
1.36561
1.36571
1.36579
1.36587
1.36593
1.36598
1.36603
1.36607
1.3661
1.36613
1.36615
1.36617
1.36618
1.36619
1.3662
1.3662
1.36621
1.36621
1.36621
1.36621
1.3662
1.3662
1.3662
1.36619
1.36619
1.36618
1.36617
1.36617
1.36616
1.36616
1.36615
1.36615
1.36614
1.36614
1.36613
1.36613
1.36612
1.36612
1.36611
1.36611
1.36611
1.3661
1.3661
1.3661
1.3661
1.3661
1.3661
1.36609
1.36609
1.3661
1.3661
1.3661
1.3661
1.3661
1.36611
1.36611
1.36611
1.36612
1.36612
1.36613
1.36614
1.36615
1.36615
1.36616
1.36617
1.36619
1.3662
1.36621
1.36622
1.36624
1.36625
1.36627
1.36629
1.3663
1.36632
1.36634
1.36636
1.36638
1.36641
1.36643
1.36645
1.36648
1.3665
1.36653
1.36656
1.36658
1.36661
1.36664
1.36667
1.3667
1.36672
1.36675
1.36678
1.36681
1.36683
1.36686
1.36688
1.3669
1.36692
1.36694
1.36695
1.36696
1.36697
1.36698
1.36698
1.36698
1.36697
1.36696
1.36694
1.36692
1.3669
1.36686
1.36683
1.36678
1.36673
1.36668
1.36661
1.36655
1.36647
1.36639
1.36631
1.36621
1.36612
1.36601
1.3659
1.36579
1.36567
1.36555
1.36542
1.36529
1.36516
1.36502
1.36487
1.36473
1.36457
1.36442
1.36426
1.36409
1.36391
1.36373
1.36355
1.36335
1.36314
1.36292
1.36269
1.36245
1.36219
1.36191
1.36162
1.3613
1.36096
1.3606
1.36021
1.3598
1.35936
1.35889
1.35838
1.35785
1.35729
1.35669
1.35606
1.3554
1.35472
1.354
1.35325
1.35248
1.35169
1.35087
1.35004
1.34918
1.34831
1.34743
1.34654
1.34564
1.34473
1.34382
1.34291
1.34199
1.34108
1.34018
1.33928
1.33838
1.3375
1.33662
1.33576
1.3349
1.33406
1.33324
1.33242
1.33162
1.33084
1.33007
1.32932
1.32859
1.32787
1.32716
1.32648
1.32581
1.32515
1.32452
1.32389
1.32329
1.3227
1.32213
1.32157
1.32103
1.3205
1.31998
1.31949
1.319
1.31853
1.31808
1.31763
1.3172
1.31679
1.31638
1.31599
1.31561
1.31525
1.31489
1.31455
1.31422
1.3139
1.31359
1.31329
1.313
1.31273
1.31246
1.3122
1.31196
1.31172
1.31149
1.31127
1.31106
1.31087
1.31068
1.31049
1.31032
1.31016
1.31
1.30986
1.30972
1.30959
1.30947
1.30936
1.30925
1.30916
1.30908
1.30899
1.30891
1.30887
1.30884
1.30873
1.30869
1.30879
1.30871
1.30841
1.30865
1.30904
1.30818
1.30759
1.30944
1.3091
1.30431
1.3063
1.31312
1.30077
1.28864
1.33651
1.33659
1.33646
1.3362
1.33567
1.335
1.33452
1.33394
1.33327
1.33266
1.33206
1.33142
1.3308
1.3302
1.32961
1.32903
1.32847
1.32792
1.32739
1.32688
1.32639
1.32592
1.32547
1.32504
1.32463
1.32424
1.32387
1.32352
1.32318
1.32287
1.32258
1.3223
1.32204
1.3218
1.32158
1.32137
1.32118
1.32101
1.32086
1.32072
1.3206
1.32049
1.3204
1.32033
1.32027
1.32022
1.3202
1.32018
1.32019
1.32021
1.32024
1.3203
1.32037
1.32045
1.32056
1.32068
1.32082
1.32097
1.32115
1.32135
1.32156
1.3218
1.32206
1.32234
1.32264
1.32296
1.32331
1.32368
1.32408
1.3245
1.32495
1.32542
1.32592
1.32645
1.32701
1.32759
1.3282
1.32884
1.3295
1.33019
1.33092
1.33166
1.33244
1.33324
1.33406
1.3349
1.33577
1.33666
1.33757
1.33849
1.33943
1.34039
1.34135
1.34232
1.3433
1.34428
1.34526
1.34624
1.34722
1.34818
1.34914
1.35009
1.35102
1.35193
1.35282
1.35369
1.35454
1.35535
1.35614
1.3569
1.35763
1.35832
1.35898
1.3596
1.36019
1.36075
1.36127
1.36175
1.3622
1.36262
1.36301
1.36336
1.36368
1.36398
1.36425
1.36449
1.36471
1.36491
1.36509
1.36525
1.36539
1.36551
1.36562
1.36572
1.3658
1.36587
1.36594
1.36599
1.36604
1.36607
1.36611
1.36613
1.36615
1.36617
1.36618
1.36619
1.3662
1.36621
1.36621
1.36621
1.36621
1.36621
1.3662
1.3662
1.36619
1.36619
1.36618
1.36618
1.36617
1.36617
1.36616
1.36615
1.36615
1.36614
1.36614
1.36613
1.36613
1.36612
1.36612
1.36611
1.36611
1.36611
1.3661
1.3661
1.3661
1.36609
1.36609
1.36609
1.36609
1.36609
1.36609
1.36609
1.36609
1.36609
1.36609
1.3661
1.3661
1.3661
1.36611
1.36611
1.36612
1.36612
1.36613
1.36614
1.36615
1.36616
1.36616
1.36618
1.36619
1.3662
1.36621
1.36623
1.36624
1.36626
1.36627
1.36629
1.36631
1.36633
1.36635
1.36637
1.36639
1.36641
1.36644
1.36646
1.36649
1.36651
1.36654
1.36657
1.36659
1.36662
1.36665
1.36668
1.3667
1.36673
1.36676
1.36678
1.36681
1.36683
1.36686
1.36688
1.3669
1.36691
1.36693
1.36694
1.36695
1.36696
1.36696
1.36696
1.36695
1.36694
1.36692
1.3669
1.36687
1.36684
1.3668
1.36676
1.36671
1.36665
1.36659
1.36652
1.36645
1.36637
1.36628
1.36619
1.36609
1.36599
1.36588
1.36577
1.36565
1.36552
1.3654
1.36526
1.36513
1.36499
1.36484
1.36469
1.36454
1.36438
1.36422
1.36405
1.36387
1.36369
1.3635
1.3633
1.3631
1.36288
1.36265
1.3624
1.36214
1.36186
1.36157
1.36125
1.36091
1.36055
1.36016
1.35974
1.3593
1.35883
1.35832
1.35779
1.35722
1.35663
1.356
1.35534
1.35465
1.35393
1.35319
1.35242
1.35162
1.35081
1.34997
1.34912
1.34825
1.34737
1.34648
1.34558
1.34467
1.34376
1.34285
1.34194
1.34103
1.34013
1.33923
1.33834
1.33746
1.33658
1.33572
1.33487
1.33403
1.33321
1.3324
1.3316
1.33082
1.33006
1.32931
1.32858
1.32786
1.32716
1.32648
1.32581
1.32516
1.32452
1.3239
1.3233
1.32271
1.32214
1.32158
1.32104
1.32051
1.32
1.3195
1.31902
1.31855
1.31809
1.31765
1.31722
1.3168
1.3164
1.31601
1.31563
1.31526
1.31491
1.31456
1.31423
1.31391
1.3136
1.3133
1.31301
1.31273
1.31247
1.31221
1.31196
1.31172
1.31149
1.31127
1.31106
1.31086
1.31067
1.31049
1.31032
1.31015
1.30999
1.30985
1.30971
1.30958
1.30945
1.30934
1.30924
1.30913
1.30904
1.30897
1.3089
1.3088
1.30876
1.30878
1.30867
1.30854
1.30871
1.30878
1.30828
1.3083
1.30918
1.30856
1.30687
1.30851
1.31016
1.30542
1.30337
1.30873
1.30937
1.3373
1.33699
1.33683
1.33646
1.33573
1.33517
1.33469
1.33397
1.33331
1.33272
1.33207
1.33141
1.3308
1.33019
1.32958
1.329
1.32844
1.32789
1.32736
1.32685
1.32635
1.32588
1.32543
1.325
1.32459
1.3242
1.32383
1.32348
1.32314
1.32283
1.32254
1.32226
1.322
1.32177
1.32154
1.32134
1.32115
1.32098
1.32083
1.32069
1.32057
1.32046
1.32037
1.3203
1.32024
1.32019
1.32017
1.32015
1.32016
1.32018
1.32021
1.32026
1.32033
1.32042
1.32052
1.32064
1.32078
1.32093
1.32111
1.3213
1.32151
1.32175
1.322
1.32228
1.32258
1.3229
1.32324
1.32361
1.324
1.32442
1.32487
1.32534
1.32583
1.32636
1.32691
1.32748
1.32809
1.32873
1.32939
1.33008
1.3308
1.33154
1.33232
1.33311
1.33393
1.33478
1.33565
1.33654
1.33745
1.33837
1.33931
1.34027
1.34124
1.34221
1.34319
1.34418
1.34516
1.34615
1.34713
1.3481
1.34907
1.35002
1.35096
1.35188
1.35278
1.35366
1.35451
1.35533
1.35613
1.35689
1.35763
1.35832
1.35899
1.35962
1.36021
1.36077
1.36129
1.36178
1.36223
1.36265
1.36304
1.36339
1.36372
1.36402
1.36428
1.36453
1.36475
1.36494
1.36512
1.36527
1.36541
1.36554
1.36564
1.36574
1.36582
1.36589
1.36595
1.366
1.36605
1.36608
1.36612
1.36614
1.36616
1.36618
1.36619
1.3662
1.3662
1.36621
1.36621
1.36621
1.36621
1.36621
1.3662
1.3662
1.36619
1.36619
1.36618
1.36618
1.36617
1.36616
1.36616
1.36615
1.36615
1.36614
1.36613
1.36613
1.36612
1.36612
1.36611
1.36611
1.36611
1.3661
1.3661
1.36609
1.36609
1.36609
1.36609
1.36609
1.36608
1.36608
1.36608
1.36608
1.36608
1.36609
1.36609
1.36609
1.36609
1.3661
1.3661
1.3661
1.36611
1.36612
1.36612
1.36613
1.36614
1.36615
1.36616
1.36617
1.36618
1.36619
1.3662
1.36621
1.36623
1.36624
1.36626
1.36628
1.3663
1.36631
1.36633
1.36636
1.36638
1.3664
1.36642
1.36645
1.36647
1.3665
1.36652
1.36655
1.36658
1.3666
1.36663
1.36666
1.36668
1.36671
1.36674
1.36676
1.36679
1.36681
1.36684
1.36686
1.36688
1.36689
1.36691
1.36692
1.36693
1.36693
1.36694
1.36693
1.36693
1.36692
1.3669
1.36688
1.36685
1.36682
1.36678
1.36674
1.36669
1.36663
1.36657
1.3665
1.36643
1.36635
1.36626
1.36617
1.36607
1.36597
1.36586
1.36574
1.36562
1.3655
1.36537
1.36524
1.3651
1.36496
1.36481
1.36466
1.36451
1.36435
1.36419
1.36402
1.36384
1.36366
1.36347
1.36327
1.36306
1.36284
1.36261
1.36236
1.3621
1.36182
1.36152
1.3612
1.36086
1.3605
1.3601
1.35969
1.35924
1.35876
1.35826
1.35772
1.35715
1.35655
1.35591
1.35525
1.35456
1.35384
1.35309
1.35231
1.35152
1.3507
1.34986
1.34901
1.34814
1.34725
1.34636
1.34546
1.34456
1.34365
1.34274
1.34183
1.34093
1.34003
1.33913
1.33824
1.33736
1.33649
1.33563
1.33479
1.33395
1.33313
1.33233
1.33154
1.33076
1.33
1.32926
1.32853
1.32782
1.32712
1.32644
1.32578
1.32513
1.3245
1.32388
1.32328
1.3227
1.32213
1.32157
1.32104
1.32051
1.32
1.31951
1.31902
1.31856
1.3181
1.31766
1.31723
1.31682
1.31641
1.31602
1.31564
1.31528
1.31492
1.31458
1.31425
1.31393
1.31362
1.31332
1.31303
1.31275
1.31248
1.31223
1.31198
1.31174
1.31151
1.31129
1.31108
1.31088
1.31069
1.31051
1.31033
1.31017
1.31001
1.30986
1.30972
1.30959
1.30947
1.30935
1.30925
1.30916
1.30906
1.30898
1.30893
1.30887
1.30877
1.30877
1.30882
1.30866
1.30857
1.3089
1.30887
1.30825
1.30872
1.30972
1.30819
1.30725
1.31063
1.30993
1.305
1.30833
1.31086
1.33821
1.33778
1.33723
1.33658
1.33603
1.33544
1.33471
1.33402
1.33341
1.33272
1.33204
1.33141
1.33077
1.33014
1.32953
1.32895
1.32837
1.32782
1.32728
1.32677
1.32628
1.32581
1.32535
1.32492
1.32451
1.32412
1.32375
1.3234
1.32307
1.32276
1.32247
1.3222
1.32194
1.32171
1.32149
1.32128
1.3211
1.32093
1.32077
1.32064
1.32052
1.32041
1.32032
1.32025
1.32019
1.32015
1.32012
1.32011
1.32011
1.32013
1.32016
1.32021
1.32028
1.32036
1.32046
1.32058
1.32072
1.32087
1.32104
1.32123
1.32144
1.32167
1.32192
1.3222
1.32249
1.32281
1.32315
1.32351
1.3239
1.32432
1.32475
1.32522
1.32571
1.32623
1.32678
1.32735
1.32796
1.32859
1.32924
1.32993
1.33065
1.33139
1.33216
1.33296
1.33378
1.33462
1.33549
1.33638
1.33729
1.33822
1.33917
1.34013
1.3411
1.34207
1.34306
1.34405
1.34505
1.34604
1.34703
1.34801
1.34898
1.34994
1.35089
1.35182
1.35273
1.35361
1.35448
1.35531
1.35612
1.35689
1.35763
1.35834
1.35901
1.35965
1.36025
1.36081
1.36134
1.36183
1.36228
1.3627
1.36309
1.36344
1.36377
1.36406
1.36433
1.36457
1.36479
1.36498
1.36516
1.36531
1.36545
1.36557
1.36567
1.36576
1.36584
1.36591
1.36597
1.36602
1.36606
1.3661
1.36613
1.36615
1.36617
1.36618
1.3662
1.3662
1.36621
1.36621
1.36621
1.36621
1.36621
1.36621
1.3662
1.3662
1.36619
1.36619
1.36618
1.36618
1.36617
1.36616
1.36616
1.36615
1.36614
1.36614
1.36613
1.36613
1.36612
1.36612
1.36611
1.36611
1.3661
1.3661
1.36609
1.36609
1.36609
1.36609
1.36608
1.36608
1.36608
1.36608
1.36608
1.36608
1.36608
1.36608
1.36608
1.36608
1.36609
1.36609
1.36609
1.3661
1.3661
1.36611
1.36611
1.36612
1.36613
1.36614
1.36615
1.36616
1.36617
1.36618
1.36619
1.3662
1.36622
1.36623
1.36625
1.36626
1.36628
1.3663
1.36632
1.36634
1.36636
1.36638
1.36641
1.36643
1.36645
1.36648
1.3665
1.36653
1.36656
1.36658
1.36661
1.36664
1.36666
1.36669
1.36672
1.36674
1.36677
1.36679
1.36681
1.36684
1.36686
1.36687
1.36689
1.3669
1.36691
1.36691
1.36692
1.36691
1.36691
1.3669
1.36688
1.36686
1.36683
1.3668
1.36676
1.36672
1.36667
1.36662
1.36655
1.36648
1.36641
1.36633
1.36624
1.36615
1.36605
1.36595
1.36584
1.36572
1.3656
1.36548
1.36535
1.36522
1.36508
1.36494
1.36479
1.36464
1.36449
1.36433
1.36416
1.364
1.36382
1.36363
1.36345
1.36324
1.36303
1.36281
1.36258
1.36233
1.36207
1.36178
1.36148
1.36116
1.36081
1.36044
1.36005
1.35962
1.35917
1.35869
1.35817
1.35763
1.35705
1.35644
1.3558
1.35513
1.35443
1.3537
1.35295
1.35217
1.35136
1.35054
1.3497
1.34884
1.34797
1.34708
1.34619
1.34529
1.34438
1.34347
1.34257
1.34166
1.34075
1.33985
1.33896
1.33808
1.3372
1.33633
1.33548
1.33464
1.33381
1.33299
1.3322
1.33141
1.33064
1.32989
1.32915
1.32843
1.32772
1.32704
1.32636
1.32571
1.32507
1.32444
1.32383
1.32324
1.32266
1.3221
1.32155
1.32102
1.3205
1.31999
1.3195
1.31902
1.31856
1.31811
1.31767
1.31724
1.31683
1.31643
1.31604
1.31567
1.3153
1.31495
1.31461
1.31428
1.31396
1.31365
1.31335
1.31306
1.31279
1.31252
1.31226
1.31202
1.31178
1.31155
1.31133
1.31112
1.31092
1.31073
1.31055
1.31038
1.31021
1.31006
1.30992
1.30978
1.30965
1.30953
1.30942
1.30931
1.30923
1.30916
1.30907
1.309
1.309
1.30897
1.30885
1.30889
1.30907
1.3089
1.30871
1.30929
1.30951
1.30855
1.30902
1.31084
1.30946
1.30777
1.31105
1.31287
1.30986
1.30954
1.33926
1.33845
1.3377
1.33696
1.33632
1.33556
1.33477
1.33412
1.33342
1.33268
1.33201
1.33136
1.33069
1.33005
1.32944
1.32884
1.32826
1.32771
1.32717
1.32665
1.32616
1.32569
1.32524
1.32481
1.3244
1.32402
1.32365
1.3233
1.32297
1.32267
1.32238
1.32211
1.32185
1.32162
1.3214
1.3212
1.32102
1.32085
1.3207
1.32057
1.32045
1.32034
1.32025
1.32018
1.32012
1.32008
1.32005
1.32004
1.32004
1.32006
1.32009
1.32014
1.32021
1.32029
1.32039
1.3205
1.32064
1.32079
1.32096
1.32114
1.32135
1.32158
1.32182
1.32209
1.32238
1.3227
1.32303
1.32339
1.32377
1.32418
1.32461
1.32507
1.32556
1.32608
1.32662
1.32719
1.32779
1.32841
1.32907
1.32975
1.33046
1.33121
1.33197
1.33277
1.33359
1.33443
1.3353
1.33619
1.33711
1.33804
1.33899
1.33995
1.34092
1.34191
1.3429
1.3439
1.3449
1.3459
1.3469
1.34789
1.34888
1.34985
1.35081
1.35175
1.35267
1.35357
1.35444
1.35529
1.3561
1.35689
1.35764
1.35836
1.35904
1.35968
1.36029
1.36086
1.36139
1.36188
1.36234
1.36276
1.36315
1.3635
1.36383
1.36412
1.36439
1.36463
1.36484
1.36503
1.3652
1.36536
1.36549
1.3656
1.36571
1.3658
1.36587
1.36594
1.36599
1.36604
1.36608
1.36611
1.36614
1.36616
1.36618
1.36619
1.3662
1.36621
1.36621
1.36622
1.36622
1.36621
1.36621
1.36621
1.3662
1.3662
1.36619
1.36619
1.36618
1.36617
1.36617
1.36616
1.36615
1.36615
1.36614
1.36613
1.36613
1.36612
1.36612
1.36611
1.36611
1.3661
1.3661
1.36609
1.36609
1.36609
1.36608
1.36608
1.36608
1.36608
1.36608
1.36607
1.36607
1.36607
1.36607
1.36607
1.36608
1.36608
1.36608
1.36608
1.36609
1.36609
1.36609
1.3661
1.36611
1.36611
1.36612
1.36613
1.36614
1.36615
1.36616
1.36617
1.36618
1.36619
1.36621
1.36622
1.36624
1.36625
1.36627
1.36629
1.36631
1.36633
1.36635
1.36637
1.36639
1.36641
1.36644
1.36646
1.36649
1.36651
1.36654
1.36657
1.36659
1.36662
1.36665
1.36667
1.3667
1.36672
1.36675
1.36677
1.36679
1.36682
1.36683
1.36685
1.36687
1.36688
1.36689
1.36689
1.3669
1.36689
1.36689
1.36688
1.36686
1.36684
1.36681
1.36678
1.36674
1.3667
1.36665
1.36659
1.36653
1.36646
1.36639
1.36631
1.36622
1.36613
1.36603
1.36592
1.36582
1.3657
1.36558
1.36546
1.36533
1.3652
1.36506
1.36492
1.36477
1.36463
1.36447
1.36431
1.36415
1.36398
1.3638
1.36362
1.36343
1.36323
1.36302
1.3628
1.36256
1.36231
1.36204
1.36175
1.36145
1.36112
1.36077
1.36039
1.35999
1.35956
1.3591
1.3586
1.35808
1.35752
1.35693
1.35631
1.35566
1.35498
1.35427
1.35353
1.35276
1.35198
1.35116
1.35033
1.34948
1.34862
1.34774
1.34686
1.34596
1.34505
1.34415
1.34324
1.34233
1.34142
1.34052
1.33962
1.33873
1.33785
1.33697
1.33611
1.33526
1.33443
1.3336
1.3328
1.332
1.33123
1.33047
1.32972
1.32899
1.32828
1.32758
1.32691
1.32624
1.3256
1.32496
1.32435
1.32375
1.32317
1.3226
1.32204
1.3215
1.32098
1.32047
1.31997
1.31948
1.31901
1.31856
1.31811
1.31768
1.31726
1.31685
1.31646
1.31607
1.3157
1.31534
1.31499
1.31465
1.31432
1.31401
1.3137
1.31341
1.31312
1.31285
1.31258
1.31233
1.31208
1.31185
1.31162
1.31141
1.3112
1.311
1.31082
1.31064
1.31047
1.31031
1.31016
1.31002
1.30988
1.30976
1.30965
1.30955
1.30946
1.30937
1.30931
1.30927
1.3092
1.30916
1.30921
1.30921
1.30911
1.30925
1.30952
1.30932
1.30928
1.31012
1.31021
1.30938
1.3106
1.31209
1.3107
1.31091
1.31345
1.31371
1.31436
1.3403
1.33904
1.33821
1.33738
1.33649
1.33565
1.33491
1.33415
1.33335
1.33263
1.33195
1.33124
1.33056
1.32993
1.3293
1.32869
1.32811
1.32755
1.32701
1.3265
1.32601
1.32554
1.32509
1.32466
1.32426
1.32388
1.32351
1.32317
1.32285
1.32254
1.32226
1.32199
1.32174
1.32151
1.3213
1.3211
1.32092
1.32076
1.32061
1.32047
1.32036
1.32026
1.32017
1.3201
1.32004
1.32
1.31997
1.31996
1.31996
1.31998
1.32001
1.32006
1.32012
1.3202
1.3203
1.32041
1.32054
1.32069
1.32085
1.32104
1.32124
1.32146
1.3217
1.32197
1.32225
1.32256
1.32289
1.32324
1.32362
1.32402
1.32445
1.32491
1.32539
1.32589
1.32643
1.32699
1.32758
1.32821
1.32886
1.32954
1.33025
1.33099
1.33175
1.33254
1.33336
1.33421
1.33508
1.33597
1.33688
1.33782
1.33877
1.33974
1.34072
1.34171
1.34271
1.34372
1.34473
1.34574
1.34675
1.34775
1.34875
1.34973
1.35071
1.35166
1.35259
1.35351
1.35439
1.35525
1.35608
1.35688
1.35764
1.35837
1.35907
1.35972
1.36033
1.36091
1.36145
1.36194
1.3624
1.36283
1.36322
1.36357
1.3639
1.36419
1.36445
1.36469
1.3649
1.36509
1.36525
1.3654
1.36553
1.36565
1.36574
1.36583
1.3659
1.36597
1.36602
1.36607
1.3661
1.36613
1.36616
1.36618
1.36619
1.3662
1.36621
1.36622
1.36622
1.36622
1.36622
1.36622
1.36621
1.36621
1.36621
1.3662
1.36619
1.36619
1.36618
1.36617
1.36617
1.36616
1.36615
1.36615
1.36614
1.36613
1.36613
1.36612
1.36612
1.36611
1.3661
1.3661
1.3661
1.36609
1.36609
1.36608
1.36608
1.36608
1.36607
1.36607
1.36607
1.36607
1.36607
1.36607
1.36607
1.36607
1.36607
1.36607
1.36607
1.36608
1.36608
1.36608
1.36609
1.36609
1.3661
1.3661
1.36611
1.36612
1.36613
1.36614
1.36615
1.36616
1.36617
1.36618
1.3662
1.36621
1.36622
1.36624
1.36626
1.36627
1.36629
1.36631
1.36633
1.36635
1.36638
1.3664
1.36642
1.36645
1.36647
1.3665
1.36652
1.36655
1.36657
1.3666
1.36663
1.36665
1.36668
1.3667
1.36673
1.36675
1.36677
1.36679
1.36681
1.36683
1.36684
1.36686
1.36687
1.36687
1.36687
1.36687
1.36686
1.36685
1.36684
1.36682
1.36679
1.36676
1.36672
1.36668
1.36663
1.36657
1.36651
1.36644
1.36637
1.36628
1.3662
1.36611
1.36601
1.3659
1.36579
1.36568
1.36556
1.36544
1.36531
1.36518
1.36504
1.3649
1.36476
1.36461
1.36446
1.3643
1.36414
1.36397
1.3638
1.36361
1.36342
1.36322
1.36301
1.36278
1.36254
1.36229
1.36202
1.36173
1.36142
1.36109
1.36073
1.36034
1.35993
1.35949
1.35901
1.35851
1.35797
1.3574
1.3568
1.35616
1.3555
1.3548
1.35407
1.35332
1.35255
1.35174
1.35092
1.35008
1.34922
1.34835
1.34747
1.34657
1.34567
1.34477
1.34386
1.34295
1.34204
1.34113
1.34022
1.33933
1.33844
1.33756
1.33669
1.33583
1.33499
1.33415
1.33334
1.33254
1.33175
1.33098
1.33024
1.3295
1.32878
1.32808
1.3274
1.32673
1.32608
1.32545
1.32482
1.32422
1.32364
1.32306
1.3225
1.32196
1.32143
1.32092
1.32042
1.31993
1.31946
1.319
1.31855
1.31811
1.31769
1.31728
1.31688
1.31649
1.31611
1.31575
1.31539
1.31505
1.31471
1.31439
1.31408
1.31378
1.31349
1.31321
1.31294
1.31268
1.31243
1.31219
1.31195
1.31173
1.31152
1.31132
1.31112
1.31094
1.31077
1.3106
1.31045
1.3103
1.31017
1.31004
1.30993
1.30983
1.30973
1.30966
1.3096
1.30953
1.3095
1.30951
1.30947
1.30946
1.30961
1.30967
1.30956
1.30984
1.3103
1.31007
1.31008
1.31134
1.31159
1.31071
1.31216
1.31427
1.3137
1.3137
1.3165
1.31854
1.34114
1.33964
1.33865
1.33764
1.33665
1.33578
1.33494
1.33408
1.33328
1.33255
1.3318
1.33107
1.3304
1.32975
1.3291
1.3285
1.32792
1.32735
1.32681
1.3263
1.32581
1.32535
1.32491
1.32448
1.32408
1.32371
1.32335
1.32301
1.32269
1.32239
1.32211
1.32185
1.32161
1.32138
1.32117
1.32098
1.3208
1.32064
1.3205
1.32037
1.32025
1.32015
1.32007
1.32
1.31994
1.3199
1.31987
1.31986
1.31986
1.31988
1.31991
1.31996
1.32002
1.3201
1.32019
1.3203
1.32043
1.32057
1.32073
1.32091
1.32111
1.32133
1.32157
1.32182
1.3221
1.3224
1.32273
1.32308
1.32344
1.32384
1.32426
1.32471
1.32518
1.32569
1.32622
1.32677
1.32736
1.32798
1.32862
1.32929
1.33
1.33073
1.33149
1.33228
1.3331
1.33395
1.33482
1.33571
1.33663
1.33757
1.33852
1.33949
1.34048
1.34148
1.34249
1.34351
1.34453
1.34555
1.34657
1.34759
1.34859
1.34959
1.35058
1.35155
1.3525
1.35343
1.35433
1.35521
1.35605
1.35687
1.35764
1.35839
1.35909
1.35975
1.36038
1.36096
1.36151
1.36201
1.36247
1.3629
1.36329
1.36365
1.36397
1.36426
1.36452
1.36476
1.36496
1.36515
1.36531
1.36546
1.36558
1.36569
1.36579
1.36587
1.36594
1.366
1.36605
1.36609
1.36612
1.36615
1.36618
1.36619
1.36621
1.36622
1.36622
1.36623
1.36623
1.36623
1.36623
1.36622
1.36622
1.36621
1.36621
1.3662
1.36619
1.36619
1.36618
1.36617
1.36617
1.36616
1.36615
1.36614
1.36614
1.36613
1.36612
1.36612
1.36611
1.36611
1.3661
1.3661
1.36609
1.36609
1.36608
1.36608
1.36608
1.36607
1.36607
1.36607
1.36607
1.36607
1.36607
1.36606
1.36606
1.36606
1.36607
1.36607
1.36607
1.36607
1.36607
1.36608
1.36608
1.36609
1.36609
1.3661
1.3661
1.36611
1.36612
1.36613
1.36614
1.36615
1.36616
1.36617
1.36619
1.3662
1.36621
1.36623
1.36625
1.36626
1.36628
1.3663
1.36632
1.36634
1.36636
1.36638
1.36641
1.36643
1.36645
1.36648
1.3665
1.36653
1.36656
1.36658
1.36661
1.36663
1.36666
1.36668
1.36671
1.36673
1.36675
1.36677
1.36679
1.36681
1.36682
1.36683
1.36684
1.36685
1.36685
1.36685
1.36684
1.36683
1.36681
1.36679
1.36677
1.36673
1.3667
1.36665
1.3666
1.36655
1.36648
1.36642
1.36634
1.36626
1.36617
1.36608
1.36598
1.36588
1.36577
1.36566
1.36554
1.36542
1.36529
1.36516
1.36503
1.36489
1.36475
1.3646
1.36445
1.36429
1.36413
1.36396
1.36379
1.36361
1.36342
1.36322
1.363
1.36278
1.36254
1.36228
1.362
1.36171
1.3614
1.36105
1.36069
1.36029
1.35987
1.35941
1.35892
1.3584
1.35785
1.35726
1.35664
1.35599
1.35531
1.35459
1.35385
1.35309
1.35229
1.35148
1.35064
1.34979
1.34892
1.34804
1.34715
1.34625
1.34534
1.34444
1.34352
1.3426
1.34169
1.34078
1.33988
1.33898
1.3381
1.33722
1.33635
1.3355
1.33466
1.33383
1.33302
1.33223
1.33146
1.3307
1.32995
1.32923
1.32853
1.32783
1.32717
1.32651
1.32587
1.32525
1.32465
1.32406
1.32349
1.32293
1.32238
1.32185
1.32134
1.32084
1.32035
1.31988
1.31942
1.31897
1.31853
1.31811
1.3177
1.31729
1.3169
1.31653
1.31616
1.3158
1.31546
1.31512
1.31479
1.31448
1.31418
1.31388
1.3136
1.31332
1.31306
1.3128
1.31256
1.31232
1.3121
1.31188
1.31167
1.31148
1.31129
1.31111
1.31094
1.31079
1.31064
1.3105
1.31038
1.31026
1.31016
1.31007
1.30999
1.30992
1.30989
1.30985
1.30981
1.30984
1.30991
1.30989
1.30995
1.31021
1.31032
1.31027
1.31075
1.31132
1.31113
1.3115
1.31289
1.31317
1.31308
1.31465
1.31619
1.31701
1.31832
1.3199
1.34173
1.34009
1.33894
1.33779
1.33677
1.33582
1.33486
1.33399
1.33318
1.33237
1.33159
1.33088
1.33019
1.32951
1.32887
1.32826
1.32767
1.32711
1.32658
1.32607
1.32559
1.32513
1.32469
1.32427
1.32388
1.32351
1.32316
1.32283
1.32251
1.32222
1.32195
1.32169
1.32145
1.32123
1.32103
1.32084
1.32067
1.32051
1.32037
1.32024
1.32013
1.32004
1.31995
1.31988
1.31983
1.31979
1.31976
1.31975
1.31975
1.31977
1.3198
1.31985
1.31991
1.31998
1.32007
1.32018
1.3203
1.32044
1.3206
1.32078
1.32097
1.32118
1.32141
1.32166
1.32193
1.32223
1.32255
1.32289
1.32325
1.32364
1.32405
1.32449
1.32496
1.32545
1.32597
1.32652
1.3271
1.32771
1.32835
1.32902
1.32971
1.33044
1.3312
1.33199
1.3328
1.33365
1.33452
1.33541
1.33633
1.33727
1.33823
1.33921
1.34021
1.34121
1.34223
1.34326
1.34429
1.34532
1.34635
1.34738
1.34841
1.34942
1.35042
1.35141
1.35238
1.35332
1.35425
1.35514
1.356
1.35684
1.35763
1.35839
1.35911
1.35979
1.36042
1.36102
1.36157
1.36208
1.36255
1.36298
1.36337
1.36373
1.36405
1.36434
1.3646
1.36483
1.36503
1.36521
1.36538
1.36551
1.36563
1.36574
1.36583
1.36591
1.36598
1.36603
1.36608
1.36612
1.36615
1.36617
1.36619
1.36621
1.36622
1.36623
1.36623
1.36624
1.36624
1.36623
1.36623
1.36623
1.36622
1.36622
1.36621
1.3662
1.3662
1.36619
1.36618
1.36617
1.36617
1.36616
1.36615
1.36614
1.36614
1.36613
1.36612
1.36612
1.36611
1.36611
1.3661
1.3661
1.36609
1.36609
1.36608
1.36608
1.36607
1.36607
1.36607
1.36607
1.36606
1.36606
1.36606
1.36606
1.36606
1.36606
1.36606
1.36606
1.36606