# vtk DataFile Version 2.0
LBE two cylinders
ASCII
DATASET STRUCTURED_POINTS
DIMENSIONS 400 100 1
ASPECT_RATIO 1 1 1
ORIGIN 0 0 0
POINT_DATA 40000
SCALARS rho double 1
LOOKUP_TABLE default
1.33861
1.33589
1.33616
1.33618
1.33524
1.33471
1.33437
1.33369
1.33305
1.3325
1.33189
1.33126
1.33067
1.33008
1.32949
1.32892
1.32837
1.32783
1.3273
1.3268
1.32631
1.32585
1.3254
1.32497
1.32456
1.32418
1.32381
1.32346
1.32313
1.32281
1.32252
1.32225
1.32199
1.32175
1.32153
1.32133
1.32114
1.32097
1.32081
1.32068
1.32056
1.32045
1.32036
1.32029
1.32023
1.32019
1.32016
1.32015
1.32016
1.32018
1.32022
1.32027
1.32034
1.32043
1.32054
1.32066
1.32081
1.32097
1.32115
1.32135
1.32157
1.32181
1.32207
1.32236
1.32266
1.32299
1.32335
1.32373
1.32413
1.32456
1.32501
1.32549
1.326
1.32654
1.3271
1.32769
1.32831
1.32895
1.32963
1.33033
1.33106
1.33181
1.33259
1.3334
1.33423
1.33508
1.33595
1.33685
1.33776
1.33869
1.33963
1.34058
1.34155
1.34252
1.3435
1.34448
1.34546
1.34643
1.34741
1.34837
1.34932
1.35026
1.35119
1.35209
1.35297
1.35384
1.35467
1.35548
1.35626
1.35701
1.35772
1.35841
1.35906
1.35967
1.36025
1.3608
1.36131
1.36179
1.36223
1.36264
1.36302
1.36337
1.3637
1.36399
1.36426
1.3645
1.36472
1.36491
1.36509
1.36525
1.36539
1.36551
1.36562
1.36572
1.36581
1.36588
1.36594
1.366
1.36604
1.36608
1.36612
1.36615
1.36617
1.36619
1.3662
1.36621
1.36622
1.36623
1.36623
1.36623
1.36623
1.36623
1.36623
1.36623
1.36623
1.36622
1.36622
1.36622
1.36621
1.36621
1.3662
1.3662
1.36619
1.36619
1.36618
1.36618
1.36618
1.36617
1.36617
1.36617
1.36616
1.36616
1.36616
1.36616
1.36615
1.36615
1.36615
1.36615
1.36615
1.36615
1.36615
1.36615
1.36616
1.36616
1.36616
1.36616
1.36617
1.36617
1.36618
1.36618
1.36619
1.3662
1.3662
1.36621
1.36622
1.36623
1.36624
1.36625
1.36626
1.36628
1.36629
1.36631
1.36632
1.36634
1.36635
1.36637
1.36639
1.36641
1.36643
1.36646
1.36648
1.3665
1.36653
1.36655
1.36658
1.3666
1.36663
1.36666
1.36669
1.36671
1.36674
1.36677
1.3668
1.36683
1.36685
1.36688
1.36691
1.36693
1.36695
1.36698
1.36699
1.36701
1.36703
1.36704
1.36705
1.36705
1.36705
1.36705
1.36704
1.36703
1.36701
1.36699
1.36696
1.36693
1.36689
1.36685
1.3668
1.36674
1.36668
1.36661
1.36654
1.36646
1.36637
1.36628
1.36618
1.36608
1.36598
1.36586
1.36575
1.36563
1.3655
1.36538
1.36524
1.36511
1.36497
1.36482
1.36467
1.36452
1.36436
1.3642
1.36403
1.36386
1.36367
1.36348
1.36328
1.36306
1.36284
1.3626
1.36234
1.36206
1.36177
1.36146
1.36112
1.36076
1.36037
1.35996
1.35951
1.35904
1.35854
1.358
1.35743
1.35683
1.3562
1.35553
1.35484
1.35412
1.35336
1.35259
1.35178
1.35096
1.35012
1.34925
1.34838
1.34749
1.34658
1.34567
1.34476
1.34384
1.34292
1.342
1.34108
1.34017
1.33926
1.33836
1.33747
1.33658
1.33571
1.33485
1.33401
1.33318
1.33236
1.33156
1.33077
1.33
1.32924
1.32851
1.32779
1.32708
1.32639
1.32572
1.32507
1.32443
1.32381
1.32321
1.32262
1.32204
1.32149
1.32095
1.32042
1.31991
1.31941
1.31893
1.31846
1.31801
1.31757
1.31714
1.31673
1.31633
1.31594
1.31556
1.3152
1.31485
1.31451
1.31418
1.31386
1.31355
1.31326
1.31297
1.3127
1.31244
1.31218
1.31194
1.3117
1.31148
1.31127
1.31106
1.31087
1.31068
1.31051
1.31034
1.31018
1.31003
1.30989
1.30976
1.30964
1.30952
1.30942
1.30933
1.30924
1.30917
1.30911
1.30906
1.309
1.30897
1.309
1.30896
1.30887
1.30901
1.30919
1.30885
1.30873
1.30966
1.30956
1.3075
1.30847
1.31236
1.30775
1.29903
1.30956
1.31861
1.33674
1.33688
1.33639
1.33571
1.3354
1.33491
1.3343
1.33372
1.33316
1.33254
1.33192
1.33133
1.33072
1.33012
1.32954
1.32897
1.32841
1.32787
1.32735
1.32685
1.32636
1.32589
1.32544
1.32501
1.3246
1.32421
1.32384
1.32349
1.32316
1.32285
1.32256
1.32228
1.32202
1.32178
1.32156
1.32136
1.32117
1.321
1.32084
1.3207
1.32058
1.32048
1.32039
1.32031
1.32026
1.32021
1.32019
1.32018
1.32018
1.3202
1.32024
1.32029
1.32037
1.32045
1.32056
1.32068
1.32083
1.32099
1.32117
1.32136
1.32158
1.32182
1.32209
1.32237
1.32267
1.323
1.32336
1.32373
1.32413
1.32456
1.32501
1.32549
1.326
1.32653
1.32709
1.32768
1.3283
1.32894
1.32961
1.33031
1.33104
1.33179
1.33257
1.33337
1.33419
1.33504
1.33592
1.33681
1.33772
1.33864
1.33958
1.34053
1.34149
1.34246
1.34344
1.34442
1.3454
1.34637
1.34734
1.3483
1.34926
1.3502
1.35112
1.35202
1.35291
1.35377
1.35461
1.35542
1.3562
1.35695
1.35766
1.35835
1.359
1.35962
1.3602
1.36075
1.36127
1.36175
1.36219
1.36261
1.36299
1.36334
1.36367
1.36396
1.36423
1.36448
1.3647
1.36489
1.36507
1.36523
1.36537
1.3655
1.36561
1.36571
1.3658
1.36587
1.36593
1.36599
1.36604
1.36608
1.36611
1.36614
1.36616
1.36618
1.3662
1.36621
1.36622
1.36622
1.36623
1.36623
1.36623
1.36623
1.36623
1.36623
1.36622
1.36622
1.36622
1.36621
1.36621
1.3662
1.3662
1.36619
1.36619
1.36618
1.36618
1.36618
1.36617
1.36617
1.36616
1.36616
1.36616
1.36616
1.36615
1.36615
1.36615
1.36615
1.36615
1.36615
1.36615
1.36615
1.36615
1.36615
1.36615
1.36615
1.36615
1.36616
1.36616
1.36617
1.36617
1.36618
1.36618
1.36619
1.36619
1.3662
1.36621
1.36622
1.36623
1.36624
1.36625
1.36627
1.36628
1.36629
1.36631
1.36633
1.36634
1.36636
1.36638
1.3664
1.36642
1.36644
1.36646
1.36649
1.36651
1.36654
1.36656
1.36659
1.36661
1.36664
1.36667
1.3667
1.36672
1.36675
1.36678
1.36681
1.36683
1.36686
1.36688
1.36691
1.36693
1.36695
1.36697
1.36699
1.367
1.36701
1.36702
1.36702
1.36702
1.36702
1.36701
1.367
1.36698
1.36696
1.36693
1.3669
1.36686
1.36682
1.36677
1.36671
1.36665
1.36658
1.36651
1.36643
1.36634
1.36625
1.36615
1.36605
1.36594
1.36583
1.36571
1.36559
1.36547
1.36534
1.3652
1.36507
1.36492
1.36478
1.36463
1.36447
1.36431
1.36415
1.36398
1.3638
1.36361
1.36342
1.36321
1.363
1.36277
1.36252
1.36226
1.36199
1.36169
1.36138
1.36104
1.36068
1.36029
1.35988
1.35943
1.35896
1.35846
1.35792
1.35736
1.35676
1.35613
1.35547
1.35478
1.35406
1.35331
1.35254
1.35174
1.35092
1.35008
1.34922
1.34835
1.34747
1.34657
1.34566
1.34475
1.34384
1.34292
1.34201
1.34109
1.34018
1.33928
1.33838
1.33749
1.33661
1.33575
1.33489
1.33405
1.33322
1.3324
1.3316
1.33082
1.33005
1.32929
1.32856
1.32783
1.32713
1.32644
1.32577
1.32512
1.32448
1.32386
1.32325
1.32267
1.32209
1.32153
1.32099
1.32046
1.31995
1.31945
1.31897
1.3185
1.31805
1.3176
1.31718
1.31676
1.31636
1.31597
1.31559
1.31522
1.31487
1.31453
1.3142
1.31388
1.31357
1.31327
1.31299
1.31271
1.31245
1.31219
1.31195
1.31171
1.31148
1.31127
1.31106
1.31086
1.31068
1.3105
1.31033
1.31017
1.31001
1.30987
1.30973
1.30961
1.30949
1.30938
1.30928
1.3092
1.30912
1.30904
1.30898
1.30894
1.30888
1.30883
1.30886
1.30886
1.30873
1.30873
1.30899
1.30882
1.30832
1.30874
1.30942
1.3077
1.30622
1.30887
1.30832
1.29845
1.29299
1.33607
1.33705
1.33633
1.33562
1.3356
1.33502
1.3343
1.33381
1.33325
1.33257
1.33197
1.33138
1.33076
1.33016
1.32958
1.329
1.32844
1.3279
1.32738
1.32687
1.32638
1.32591
1.32546
1.32503
1.32462
1.32423
1.32386
1.32351
1.32318
1.32286
1.32257
1.32229
1.32203
1.32179
1.32157
1.32137
1.32118
1.32101
1.32085
1.32072
1.32059
1.32049
1.3204
1.32032
1.32026
1.32022
1.32019
1.32018
1.32019
1.32021
1.32025
1.3203
1.32037
1.32046
1.32056
1.32068
1.32083
1.32098
1.32116
1.32136
1.32158
1.32182
1.32208
1.32236
1.32266
1.32299
1.32334
1.32371
1.32411
1.32454
1.32499
1.32547
1.32597
1.3265
1.32706
1.32764
1.32826
1.3289
1.32957
1.33026
1.33098
1.33173
1.33251
1.33331
1.33413
1.33498
1.33585
1.33674
1.33765
1.33857
1.33951
1.34046
1.34142
1.34239
1.34337
1.34435
1.34533
1.3463
1.34728
1.34824
1.34919
1.35014
1.35106
1.35197
1.35286
1.35372
1.35456
1.35537
1.35616
1.35691
1.35763
1.35832
1.35897
1.3596
1.36018
1.36073
1.36125
1.36173
1.36218
1.3626
1.36298
1.36334
1.36366
1.36396
1.36423
1.36447
1.3647
1.36489
1.36507
1.36523
1.36538
1.3655
1.36561
1.36571
1.3658
1.36587
1.36594
1.36599
1.36604
1.36608
1.36611
1.36614
1.36616
1.36618
1.3662
1.36621
1.36622
1.36622
1.36623
1.36623
1.36623
1.36623
1.36623
1.36622
1.36622
1.36622
1.36621
1.36621
1.3662
1.3662
1.3662
1.36619
1.36619
1.36618
1.36618
1.36617
1.36617
1.36616
1.36616
1.36616
1.36615
1.36615
1.36615
1.36615
1.36614
1.36614
1.36614
1.36614
1.36614
1.36614
1.36614
1.36614
1.36614
1.36615
1.36615
1.36615
1.36615
1.36616
1.36616
1.36617
1.36617
1.36618
1.36619
1.36619
1.3662
1.36621
1.36622
1.36623
1.36624
1.36626
1.36627
1.36628
1.3663
1.36631
1.36633
1.36635
1.36637
1.36639
1.36641
1.36643
1.36645
1.36647
1.36649
1.36652
1.36654
1.36657
1.36659
1.36662
1.36665
1.36668
1.3667
1.36673
1.36676
1.36678
1.36681
1.36684
1.36686
1.36688
1.36691
1.36693
1.36694
1.36696
1.36697
1.36699
1.36699
1.367
1.367
1.367
1.36699
1.36698
1.36696
1.36694
1.36691
1.36688
1.36684
1.36679
1.36674
1.36669
1.36662
1.36656
1.36648
1.3664
1.36631
1.36622
1.36612
1.36602
1.36591
1.3658
1.36568
1.36556
1.36543
1.3653
1.36517
1.36503
1.36489
1.36474
1.36459
1.36443
1.36427
1.3641
1.36393
1.36375
1.36356
1.36336
1.36316
1.36294
1.36271
1.36246
1.3622
1.36193
1.36163
1.36131
1.36098
1.36061
1.36023
1.35981
1.35937
1.3589
1.35839
1.35786
1.3573
1.3567
1.35607
1.35541
1.35473
1.35401
1.35326
1.35249
1.3517
1.35088
1.35004
1.34919
1.34832
1.34744
1.34654
1.34564
1.34473
1.34382
1.34291
1.342
1.34109
1.34018
1.33928
1.33838
1.3375
1.33662
1.33575
1.3349
1.33406
1.33323
1.33242
1.33162
1.33084
1.33007
1.32932
1.32858
1.32786
1.32716
1.32647
1.3258
1.32515
1.32451
1.32389
1.32328
1.3227
1.32212
1.32156
1.32102
1.32049
1.31998
1.31948
1.319
1.31853
1.31807
1.31763
1.3172
1.31678
1.31638
1.31599
1.31561
1.31524
1.31489
1.31454
1.31421
1.31389
1.31358
1.31328
1.313
1.31272
1.31245
1.3122
1.31195
1.31171
1.31148
1.31127
1.31106
1.31086
1.31067
1.31049
1.31031
1.31015
1.30999
1.30985
1.30971
1.30958
1.30946
1.30935
1.30924
1.30915
1.30907
1.30899
1.3089
1.30886
1.30883
1.30872
1.30868
1.30879
1.30871
1.30841
1.30865
1.30904
1.30818
1.30759
1.30944
1.3091
1.30431
1.3063
1.31313
1.30077
1.28864
1.33649
1.33657
1.33643
1.33618
1.33564
1.33498
1.3345
1.33391
1.33324
1.33263
1.33203
1.33139
1.33078
1.33018
1.32959
1.329
1.32845
1.3279
1.32737
1.32686
1.32637
1.3259
1.32545
1.32502
1.32461
1.32422
1.32385
1.3235
1.32317
1.32285
1.32256
1.32228
1.32202
1.32178
1.32156
1.32136
1.32117
1.321
1.32084
1.32071
1.32058
1.32048
1.32039
1.32031
1.32025
1.32021
1.32018
1.32017
1.32018
1.3202
1.32023
1.32029
1.32036
1.32044
1.32055
1.32067
1.32081
1.32096
1.32114
1.32134
1.32155
1.32179
1.32205
1.32233
1.32263
1.32295
1.3233
1.32367
1.32407
1.32449
1.32493
1.32541
1.32591
1.32644
1.32699
1.32757
1.32818
1.32882
1.32949
1.33018
1.3309
1.33165
1.33242
1.33322
1.33404
1.33489
1.33576
1.33665
1.33755
1.33848
1.33942
1.34037
1.34134
1.34231
1.34328
1.34427
1.34525
1.34623
1.3472
1.34817
1.34913
1.35008
1.35101
1.35192
1.35281
1.35368
1.35453
1.35534
1.35613
1.35689
1.35762
1.35831
1.35897
1.3596
1.36019
1.36074
1.36126
1.36174
1.3622
1.36261
1.363
1.36335
1.36368
1.36398
1.36425
1.36449
1.36471
1.36491
1.36509
1.36525
1.36539
1.36551
1.36562
1.36572
1.36581
1.36588
1.36594
1.366
1.36604
1.36608
1.36612
1.36614
1.36617
1.36618
1.3662
1.36621
1.36622
1.36622
1.36623
1.36623
1.36623
1.36623
1.36623
1.36622
1.36622
1.36622
1.36621
1.36621
1.3662
1.3662
1.36619
1.36619
1.36618
1.36618
1.36617
1.36617
1.36616
1.36616
1.36616
1.36615
1.36615
1.36615
1.36614
1.36614
1.36614
1.36614
1.36614
1.36614
1.36613
1.36613
1.36613
1.36614
1.36614
1.36614
1.36614
1.36614
1.36615
1.36615
1.36615
1.36616
1.36616
1.36617
1.36618
1.36618
1.36619
1.3662
1.36621
1.36622
1.36623
1.36624
1.36626
1.36627
1.36629
1.3663
1.36632
1.36633
1.36635
1.36637
1.36639
1.36641
1.36643
1.36645
1.36648
1.3665
1.36653
1.36655
1.36658
1.3666
1.36663
1.36666
1.36668
1.36671
1.36674
1.36676
1.36679
1.36681
1.36684
1.36686
1.36688
1.3669
1.36692
1.36694
1.36695
1.36696
1.36697
1.36698
1.36698
1.36697
1.36697
1.36695
1.36694
1.36691
1.36689
1.36685
1.36682
1.36677
1.36672
1.36666
1.3666
1.36653
1.36646
1.36638
1.36629
1.3662
1.3661
1.366
1.36589
1.36577
1.36566
1.36553
1.3654
1.36527
1.36514
1.365
1.36485
1.3647
1.36455
1.36439
1.36423
1.36406
1.36389
1.3637
1.36351
1.36332
1.36311
1.36289
1.36266
1.36241
1.36215
1.36187
1.36158
1.36126
1.36092
1.36056
1.36017
1.35976
1.35931
1.35884
1.35833
1.3578
1.35723
1.35664
1.35601
1.35535
1.35466
1.35394
1.3532
1.35243
1.35163
1.35081
1.34998
1.34912
1.34825
1.34737
1.34648
1.34558
1.34468
1.34377
1.34285
1.34194
1.34104
1.34013
1.33923
1.33834
1.33746
1.33658
1.33572
1.33487
1.33403
1.33321
1.3324
1.3316
1.33082
1.33006
1.32931
1.32857
1.32786
1.32715
1.32647
1.3258
1.32515
1.32452
1.3239
1.32329
1.3227
1.32213
1.32158
1.32103
1.32051
1.32
1.3195
1.31901
1.31854
1.31809
1.31764
1.31722
1.3168
1.31639
1.316
1.31562
1.31526
1.3149
1.31456
1.31423
1.3139
1.31359
1.31329
1.31301
1.31273
1.31246
1.3122
1.31195
1.31171
1.31149
1.31127
1.31106
1.31086
1.31066
1.31048
1.31031
1.31014
1.30999
1.30984
1.3097
1.30957
1.30944
1.30933
1.30923
1.30912
1.30903
1.30896
1.30889
1.30879
1.30876
1.30877
1.30866
1.30853
1.30871
1.30878
1.30828
1.30829
1.30918
1.30856
1.30687
1.30851
1.31016
1.30543
1.30338
1.30874
1.30938
1.33728
1.33697
1.33681
1.33644
1.3357
1.33514
1.33467
1.33395
1.33328
1.3327
1.33205
1.33139
1.33078
1.33017
1.32956
1.32898
1.32842
1.32787
1.32733
1.32683
1.32633
1.32586
1.32541
1.32498
1.32457
1.32418
1.32381
1.32346
1.32313
1.32281
1.32252
1.32225
1.32199
1.32175
1.32153
1.32132
1.32114
1.32097
1.32081
1.32068
1.32055
1.32045
1.32036
1.32028
1.32023
1.32018
1.32016
1.32014
1.32015
1.32017
1.3202
1.32025
1.32032
1.32041
1.32051
1.32063
1.32077
1.32092
1.3211
1.32129
1.3215
1.32174
1.32199
1.32227
1.32257
1.32289
1.32323
1.3236
1.32399
1.32441
1.32485
1.32532
1.32582
1.32634
1.32689
1.32747
1.32808
1.32871
1.32938
1.33007
1.33078
1.33153
1.3323
1.3331
1.33392
1.33477
1.33564
1.33652
1.33743
1.33836
1.3393
1.34026
1.34122
1.3422
1.34318
1.34416
1.34515
1.34614
1.34712
1.34809
1.34906
1.35001
1.35095
1.35187
1.35277
1.35364
1.3545
1.35532
1.35612
1.35688
1.35762
1.35832
1.35898
1.35961
1.3602
1.36076
1.36129
1.36177
1.36223
1.36265
1.36303
1.36339
1.36371
1.36401
1.36428
1.36452
1.36474
1.36494
1.36512
1.36527
1.36541
1.36554
1.36564
1.36574
1.36582
1.36589
1.36596
1.36601
1.36605
1.36609
1.36612
1.36615
1.36617
1.36619
1.3662
1.36621
1.36622
1.36622
1.36623
1.36623
1.36623
1.36623
1.36622
1.36622
1.36622
1.36621
1.36621
1.3662
1.3662
1.36619
1.36619
1.36618
1.36618
1.36617
1.36617
1.36616
1.36616
1.36615
1.36615
1.36615
1.36614
1.36614
1.36614
1.36614
1.36613
1.36613
1.36613
1.36613
1.36613
1.36613
1.36613
1.36613
1.36613
1.36613
1.36613
1.36614
1.36614
1.36614
1.36615
1.36615
1.36616
1.36616
1.36617
1.36617
1.36618
1.36619
1.3662
1.36621
1.36622
1.36623
1.36624
1.36626
1.36627
1.36629
1.3663
1.36632
1.36634
1.36636
1.36637
1.36639
1.36642
1.36644
1.36646
1.36648
1.36651
1.36653
1.36656
1.36658
1.36661
1.36664
1.36666
1.36669
1.36671
1.36674
1.36677
1.36679
1.36682
1.36684
1.36686
1.36688
1.3669
1.36692
1.36693
1.36694
1.36695
1.36695
1.36695
1.36695
1.36694
1.36693
1.36692
1.36689
1.36687
1.36683
1.3668
1.36675
1.3667
1.36664
1.36658
1.36651
1.36644
1.36636
1.36627
1.36618
1.36608
1.36597
1.36586
1.36575
1.36563
1.36551
1.36538
1.36525
1.36511
1.36497
1.36482
1.36467
1.36452
1.36436
1.3642
1.36403
1.36385
1.36367
1.36348
1.36328
1.36307
1.36285
1.36262
1.36237
1.36211
1.36183
1.36153
1.36121
1.36087
1.36051
1.36012
1.3597
1.35925
1.35877
1.35827
1.35773
1.35716
1.35656
1.35592
1.35526
1.35457
1.35384
1.3531
1.35232
1.35152
1.3507
1.34987
1.34901
1.34814
1.34726
1.34637
1.34547
1.34456
1.34365
1.34274
1.34183
1.34093
1.34003
1.33913
1.33824
1.33736
1.33649
1.33563
1.33479
1.33395
1.33313
1.33232
1.33153
1.33076
1.33
1.32925
1.32852
1.32781
1.32712
1.32643
1.32577
1.32512
1.32449
1.32388
1.32328
1.32269
1.32212
1.32157
1.32103
1.32051
1.32
1.3195
1.31902
1.31855
1.3181
1.31766
1.31723
1.31681
1.31641
1.31602
1.31564
1.31527
1.31492
1.31458
1.31424
1.31392
1.31361
1.31331
1.31302
1.31275
1.31248
1.31222
1.31197
1.31173
1.3115
1.31128
1.31107
1.31087
1.31068
1.3105
1.31032
1.31016
1.31
1.30985
1.30971
1.30958
1.30946
1.30934
1.30924
1.30915
1.30905
1.30897
1.30893
1.30886
1.30876
1.30877
1.30882
1.30866
1.30857
1.3089
1.30887
1.30824
1.30872
1.30972
1.30819
1.30725
1.31063
1.30994
1.305
1.30834
1.31087
1.33819
1.33776
1.33721
1.33655
1.33601
1.33542
1.33469
1.33399
1.33338
1.3327
1.33201
1.33138
1.33075
1.33011
1.32951
1.32892
1.32835
1.32779
1.32726
1.32675
1.32626
1.32579
1.32533
1.3249
1.32449
1.32411
1.32374
1.32339
1.32306
1.32275
1.32246
1.32218
1.32193
1.32169
1.32147
1.32127
1.32108
1.32091
1.32076
1.32063
1.3205
1.3204
1.32031
1.32024
1.32018
1.32014
1.32011
1.3201
1.3201
1.32012
1.32015
1.3202
1.32027
1.32035
1.32045
1.32057
1.32071
1.32086
1.32103
1.32122
1.32143
1.32166
1.32191
1.32219
1.32248
1.3228
1.32314
1.3235
1.32389
1.3243
1.32474
1.32521
1.3257
1.32622
1.32676
1.32734
1.32794
1.32857
1.32923
1.32992
1.33063
1.33138
1.33215
1.33294
1.33376
1.33461
1.33548
1.33637
1.33728
1.33821
1.33915
1.34011
1.34108
1.34206
1.34305
1.34404
1.34503
1.34603
1.34701
1.348
1.34897
1.34993
1.35088
1.35181
1.35272
1.3536
1.35447
1.3553
1.35611
1.35688
1.35762
1.35833
1.359
1.35964
1.36024
1.3608
1.36133
1.36182
1.36227
1.36269
1.36308
1.36344
1.36376
1.36406
1.36433
1.36457
1.36478
1.36498
1.36516
1.36531
1.36545
1.36557
1.36567
1.36576
1.36585
1.36592
1.36597
1.36603
1.36607
1.3661
1.36613
1.36616
1.36618
1.36619
1.36621
1.36622
1.36622
1.36623
1.36623
1.36623
1.36623
1.36623
1.36622
1.36622
1.36622
1.36621
1.36621
1.3662
1.3662
1.36619
1.36618
1.36618
1.36617
1.36617
1.36616
1.36616
1.36615
1.36615
1.36615
1.36614
1.36614
1.36614
1.36613
1.36613
1.36613
1.36613
1.36612
1.36612
1.36612
1.36612
1.36612
1.36612
1.36612
1.36612
1.36613
1.36613
1.36613
1.36613
1.36614
1.36614
1.36615
1.36615
1.36616
1.36616
1.36617
1.36618
1.36619
1.3662
1.36621
1.36622
1.36623
1.36624
1.36626
1.36627
1.36629
1.3663
1.36632
1.36634
1.36636
1.36638
1.3664
1.36642
1.36644
1.36647
1.36649
1.36651
1.36654
1.36656
1.36659
1.36662
1.36664
1.36667
1.36669
1.36672
1.36675
1.36677
1.36679
1.36682
1.36684
1.36686
1.36688
1.36689
1.36691
1.36692
1.36693
1.36693
1.36693
1.36693
1.36692
1.36691
1.36689
1.36687
1.36685
1.36681
1.36677
1.36673
1.36668
1.36662
1.36656
1.36649
1.36642
1.36633
1.36625
1.36615
1.36606
1.36595
1.36584
1.36573
1.36561
1.36548
1.36536
1.36522
1.36509
1.36495
1.3648
1.36465
1.3645
1.36434
1.36417
1.36401
1.36383
1.36365
1.36346
1.36326
1.36305
1.36283
1.36259
1.36234
1.36208
1.3618
1.36149
1.36117
1.36083
1.36046
1.36006
1.35964
1.35918
1.3587
1.35818
1.35764
1.35706
1.35645
1.35581
1.35514
1.35444
1.35371
1.35295
1.35217
1.35137
1.35055
1.3497
1.34884
1.34797
1.34709
1.34619
1.34529
1.34439
1.34348
1.34257
1.34166
1.34075
1.33986
1.33896
1.33808
1.3372
1.33633
1.33548
1.33464
1.33381
1.33299
1.33219
1.33141
1.33064
1.32988
1.32915
1.32843
1.32772
1.32703
1.32636
1.3257
1.32506
1.32444
1.32383
1.32324
1.32266
1.32209
1.32155
1.32101
1.32049
1.31999
1.3195
1.31902
1.31855
1.3181
1.31767
1.31724
1.31683
1.31643
1.31604
1.31566
1.3153
1.31495
1.3146
1.31427
1.31395
1.31365
1.31335
1.31306
1.31278
1.31251
1.31226
1.31201
1.31177
1.31154
1.31133
1.31112
1.31092
1.31073
1.31054
1.31037
1.31021
1.31005
1.30991
1.30977
1.30964
1.30952
1.30941
1.30931
1.30922
1.30915
1.30907
1.30899
1.30899
1.30896
1.30884
1.30889
1.30906
1.30889
1.30871
1.30928
1.3095
1.30855
1.30902
1.31084
1.30946
1.30777
1.31106
1.31287
1.30987
1.30954
1.33924
1.33842
1.33768
1.33693
1.3363
1.33554
1.33475
1.33409
1.3334
1.33265
1.33198
1.33133
1.33066
1.33002
1.32942
1.32882
1.32824
1.32768
1.32715
1.32663
1.32614
1.32567
1.32522
1.32479
1.32438
1.324
1.32363
1.32328
1.32296
1.32265
1.32236
1.32209
1.32184
1.32161
1.32139
1.32119
1.32101
1.32084
1.32069
1.32055
1.32043
1.32033
1.32024
1.32017
1.32011
1.32007
1.32004
1.32003
1.32003
1.32005
1.32008
1.32013
1.3202
1.32028
1.32038
1.3205
1.32063
1.32078
1.32095
1.32113
1.32134
1.32157
1.32181
1.32208
1.32237
1.32268
1.32302
1.32338
1.32376
1.32417
1.3246
1.32506
1.32555
1.32606
1.3266
1.32718
1.32777
1.3284
1.32906
1.32974
1.33045
1.33119
1.33196
1.33275
1.33357
1.33442
1.33529
1.33618
1.33709
1.33802
1.33897
1.33994
1.34091
1.3419
1.34289
1.34389
1.34489
1.34589
1.34689
1.34788
1.34887
1.34984
1.35079
1.35174
1.35266
1.35356
1.35443
1.35528
1.35609
1.35688
1.35763
1.35835
1.35903
1.35967
1.36028
1.36085
1.36138
1.36187
1.36233
1.36275
1.36314
1.3635
1.36382
1.36412
1.36438
1.36462
1.36484
1.36503
1.3652
1.36535
1.36548
1.3656
1.36571
1.3658
1.36587
1.36594
1.366
1.36604
1.36609
1.36612
1.36615
1.36617
1.36619
1.3662
1.36621
1.36622
1.36623
1.36623
1.36623
1.36623
1.36623
1.36623
1.36622
1.36622
1.36621
1.36621
1.3662
1.3662
1.36619
1.36619
1.36618
1.36618
1.36617
1.36617
1.36616
1.36615
1.36615
1.36615
1.36614
1.36614
1.36613
1.36613
1.36613
1.36612
1.36612
1.36612
1.36612
1.36612
1.36612
1.36612
1.36611
1.36612
1.36612
1.36612
1.36612
1.36612
1.36612
1.36613
1.36613
1.36613
1.36614
1.36614
1.36615
1.36615
1.36616
1.36617
1.36618
1.36619
1.3662
1.36621
1.36622
1.36623
1.36625
1.36626
1.36627
1.36629
1.36631
1.36632
1.36634
1.36636
1.36638
1.3664
1.36643
1.36645
1.36647
1.36649
1.36652
1.36654
1.36657
1.36659
1.36662
1.36665
1.36667
1.3667
1.36672
1.36675
1.36677
1.3668
1.36682
1.36684
1.36685
1.36687
1.36688
1.3669
1.3669
1.36691
1.36691
1.36691
1.3669
1.36689
1.36687
1.36685
1.36682
1.36679
1.36675
1.36671
1.36666
1.3666
1.36654
1.36647
1.36639
1.36631
1.36623
1.36613
1.36603
1.36593
1.36582
1.36571
1.36559
1.36546
1.36534
1.3652
1.36507
1.36493
1.36478
1.36463
1.36448
1.36432
1.36416
1.36399
1.36381
1.36363
1.36344
1.36324
1.36303
1.36281
1.36257
1.36232
1.36205
1.36177
1.36146
1.36113
1.36078
1.3604
1.36
1.35957
1.35911
1.35861
1.35809
1.35753
1.35694
1.35632
1.35567
1.35499
1.35428
1.35354
1.35277
1.35198
1.35117
1.35034
1.34949
1.34863
1.34775
1.34686
1.34596
1.34506
1.34415
1.34324
1.34233
1.34142
1.34052
1.33962
1.33873
1.33785
1.33697
1.33611
1.33526
1.33442
1.3336
1.33279
1.332
1.33122
1.33046
1.32972
1.32899
1.32828
1.32758
1.3269
1.32624
1.32559
1.32496
1.32435
1.32375
1.32316
1.32259
1.32204
1.3215
1.32097
1.32046
1.31996
1.31948
1.31901
1.31855
1.31811
1.31768
1.31726
1.31685
1.31645
1.31607
1.3157
1.31534
1.31499
1.31465
1.31432
1.314
1.3137
1.3134
1.31312
1.31284
1.31258
1.31232
1.31208
1.31184
1.31162
1.3114
1.31119
1.311
1.31081
1.31063
1.31046
1.3103
1.31015
1.31001
1.30988
1.30975
1.30964
1.30954
1.30945
1.30936
1.3093
1.30926
1.30919
1.30915
1.30921
1.30921
1.3091
1.30925
1.30951
1.30931
1.30928
1.31012
1.31021
1.30938
1.3106
1.3121
1.3107
1.31092
1.31346
1.31372
1.31437
1.34027
1.33902
1.33818
1.33735
1.33647
1.33563
1.33489
1.33412
1.33333
1.33261
1.33192
1.33121
1.33054
1.3299
1.32927
1.32866
1.32809
1.32753
1.32699
1.32648
1.32599
1.32552
1.32507
1.32465
1.32424
1.32386
1.3235
1.32315
1.32283
1.32253
1.32224
1.32198
1.32173
1.3215
1.32128
1.32109
1.32091
1.32074
1.3206
1.32046
1.32035
1.32024
1.32016
1.32009
1.32003
1.31999
1.31996
1.31995
1.31995
1.31997
1.32
1.32005
1.32011
1.32019
1.32029
1.3204
1.32053
1.32068
1.32084
1.32103
1.32123
1.32145
1.32169
1.32196
1.32224
1.32255
1.32288
1.32323
1.32361
1.32401
1.32444
1.3249
1.32537
1.32588
1.32642
1.32698
1.32757
1.3282
1.32885
1.32952
1.33024
1.33097
1.33174
1.33253
1.33335
1.33419
1.33506
1.33596
1.33687
1.33781
1.33876
1.33973
1.34071
1.3417
1.3427
1.34371
1.34472
1.34573
1.34674
1.34774
1.34874
1.34972
1.35069
1.35165
1.35258
1.3535
1.35438
1.35524
1.35607
1.35687
1.35763
1.35836
1.35906
1.35971
1.36032
1.3609
1.36144
1.36193
1.3624
1.36282
1.36321
1.36356
1.36389
1.36418
1.36444
1.36468
1.3649
1.36508
1.36525
1.3654
1.36553
1.36564
1.36574
1.36583
1.3659
1.36597
1.36602
1.36607
1.3661
1.36614
1.36616
1.36618
1.3662
1.36621
1.36622
1.36623
1.36623
1.36623
1.36623
1.36623
1.36623
1.36623
1.36622
1.36622
1.36621
1.36621
1.3662
1.3662
1.36619
1.36618
1.36618
1.36617
1.36617
1.36616
1.36616
1.36615
1.36615
1.36614
1.36614
1.36613
1.36613
1.36613
1.36612
1.36612
1.36612
1.36611
1.36611
1.36611
1.36611
1.36611
1.36611
1.36611
1.36611
1.36611
1.36611
1.36611
1.36611
1.36612
1.36612
1.36612
1.36613
1.36613
1.36614
1.36615
1.36615
1.36616
1.36617
1.36618
1.36619
1.3662
1.36621
1.36622
1.36623
1.36625
1.36626
1.36628
1.36629
1.36631
1.36633
1.36635
1.36637
1.36639
1.36641
1.36643
1.36645
1.36648
1.3665
1.36652
1.36655
1.36658
1.3666
1.36663
1.36665
1.36668
1.3667
1.36673
1.36675
1.36677
1.36679
1.36681
1.36683
1.36685
1.36686
1.36687
1.36688
1.36689
1.36689
1.36688
1.36688
1.36686
1.36685
1.36683
1.3668
1.36677
1.36673
1.36668
1.36663
1.36658
1.36651
1.36645
1.36637
1.36629
1.3662
1.36611
1.36601
1.36591
1.3658
1.36569
1.36557
1.36544
1.36532
1.36519
1.36505
1.36491
1.36477
1.36462
1.36447
1.36431
1.36415
1.36398
1.3638
1.36362
1.36343
1.36323
1.36302
1.36279
1.36256
1.3623
1.36203
1.36174
1.36143
1.3611
1.36074
1.36035
1.35994
1.3595
1.35902
1.35852
1.35798
1.35741
1.35681
1.35617
1.35551
1.35481
1.35408
1.35333
1.35255
1.35175
1.35093
1.35009
1.34923
1.34836
1.34747
1.34658
1.34568
1.34477
1.34386
1.34295
1.34204
1.34113
1.34023
1.33933
1.33844
1.33756
1.33669
1.33583
1.33498
1.33415
1.33334
1.33254
1.33175
1.33098
1.33023
1.3295
1.32878
1.32808
1.3274
1.32672
1.32608
1.32544
1.32482
1.32422
1.32363
1.32306
1.3225
1.32196
1.32143
1.32092
1.32042
1.31993
1.31945
1.31899
1.31855
1.31811
1.31769
1.31727
1.31687
1.31649
1.31611
1.31574
1.31539
1.31504
1.31471
1.31439
1.31408
1.31378
1.31349
1.3132
1.31293
1.31267
1.31242
1.31218
1.31195
1.31173
1.31152
1.31131
1.31112
1.31094
1.31076
1.3106
1.31044
1.3103
1.31016
1.31004
1.30993
1.30982
1.30973
1.30966
1.30959
1.30952
1.3095
1.30951
1.30946
1.30945
1.3096
1.30967
1.30956
1.30983
1.3103
1.31006
1.31008
1.31134
1.31159
1.31071
1.31216
1.31427
1.3137
1.31371
1.31651
1.31855
1.34111
1.33962
1.33862
1.33761
1.33662
1.33576
1.33492
1.33406
1.33326
1.33253
1.33178
1.33105
1.33038
1.32972
1.32908
1.32847
1.32789
1.32733
1.32679
1.32628
1.3258
1.32533
1.32489
1.32447
1.32407
1.32369
1.32333
1.32299
1.32268
1.32238
1.3221
1.32184
1.32159
1.32137
1.32116
1.32097
1.32079
1.32063
1.32049
1.32036
1.32024
1.32014
1.32006
1.31999
1.31993
1.31989
1.31986
1.31985
1.31985
1.31987
1.3199
1.31995
1.32001
1.32009
1.32018
1.32029
1.32042
1.32056
1.32073
1.32091
1.3211
1.32132
1.32156
1.32182
1.32209
1.32239
1.32272
1.32307
1.32343
1.32383
1.32425
1.3247
1.32517
1.32568
1.3262
1.32676
1.32735
1.32796
1.32861
1.32928
1.32999
1.33072
1.33148
1.33227
1.33309
1.33393
1.3348
1.3357
1.33661
1.33755
1.33851
1.33948
1.34047
1.34147
1.34248
1.3435
1.34451
1.34553
1.34656
1.34757
1.34858
1.34958
1.35057
1.35153
1.35249
1.35342
1.35432
1.35519
1.35604
1.35686
1.35763
1.35837
1.35908
1.35974
1.36037
1.36095
1.3615
1.362
1.36247
1.36289
1.36328
1.36364
1.36396
1.36425
1.36452
1.36475
1.36496
1.36515
1.36531
1.36545
1.36558
1.36569
1.36578
1.36587
1.36594
1.366
1.36605
1.36609
1.36613
1.36615
1.36618
1.3662
1.36621
1.36622
1.36623
1.36623
1.36624
1.36624
1.36624
1.36624
1.36623
1.36623
1.36622
1.36622
1.36621
1.36621
1.3662
1.36619
1.36619
1.36618
1.36618
1.36617
1.36616
1.36616
1.36615
1.36615
1.36614
1.36614
1.36613
1.36613
1.36612
1.36612
1.36612
1.36611
1.36611
1.36611
1.36611
1.36611
1.3661
1.3661
1.3661
1.3661
1.3661
1.3661
1.3661
1.36611
1.36611
1.36611
1.36611
1.36612
1.36612
1.36612
1.36613
1.36614
1.36614
1.36615
1.36616
1.36617
1.36618
1.36619
1.3662
1.36621
1.36622
1.36623
1.36625
1.36626
1.36628
1.3663
1.36631
1.36633
1.36635
1.36637
1.36639
1.36641
1.36644
1.36646
1.36648
1.36651
1.36653
1.36656
1.36658
1.36661
1.36663
1.36666
1.36668
1.3667
1.36673
1.36675
1.36677
1.36679
1.36681
1.36682
1.36684
1.36685
1.36686
1.36686
1.36686
1.36686
1.36685
1.36684
1.36682
1.3668
1.36677
1.36674
1.3667
1.36666
1.36661
1.36655
1.36649
1.36642
1.36634
1.36626
1.36618
1.36608
1.36599
1.36588
1.36577
1.36566
1.36554
1.36542
1.3653
1.36517
1.36503
1.3649
1.36475
1.36461
1.36446
1.3643
1.36414
1.36397
1.3638
1.36361
1.36343
1.36323
1.36301
1.36279
1.36255
1.36229
1.36202
1.36172
1.36141
1.36106
1.3607
1.3603
1.35988
1.35942
1.35893
1.35842
1.35786
1.35727
1.35665
1.356
1.35532
1.3546
1.35386
1.35309
1.3523
1.35149
1.35065
1.3498
1.34893
1.34805
1.34716
1.34626
1.34535
1.34444
1.34352
1.34261
1.3417
1.34079
1.33988
1.33899
1.3381
1.33722
1.33635
1.3355
1.33466
1.33383
1.33302
1.33223
1.33145
1.33069
1.32995
1.32923
1.32852
1.32783
1.32716
1.32651
1.32587
1.32525
1.32465
1.32406
1.32348
1.32293
1.32238
1.32185
1.32134
1.32084
1.32035
1.31988
1.31942
1.31897
1.31853
1.31811
1.31769
1.31729
1.3169
1.31652
1.31616
1.3158
1.31545
1.31512
1.31479
1.31448
1.31417
1.31388
1.31359
1.31332
1.31305
1.3128
1.31255
1.31232
1.31209
1.31187
1.31167
1.31147
1.31128
1.31111
1.31094
1.31078
1.31063
1.3105
1.31037
1.31025
1.31015
1.31006
1.30998
1.30991
1.30988
1.30985
1.30981
1.30983
1.3099
1.30989
1.30994
1.31021
1.31032
1.31027
1.31075
1.31132
1.31113
1.3115
1.3129
1.31317
1.31309
1.31466
1.3162
1.31702
1.31833
1.31991
1.34171
1.34006
1.33892
1.33777
1.33674
1.33579
1.33483
1.33396
1.33315
1.33235
1.33157
1.33086
1.33016
1.32948
1.32885
1.32824
1.32765
1.32709
1.32656
1.32605
1.32557
1.32511
1.32467
1.32426
1.32386
1.32349
1.32314
1.32281
1.3225
1.32221
1.32193
1.32168
1.32144
1.32122
1.32102
1.32083
1.32066
1.3205
1.32036
1.32024
1.32012
1.32003
1.31994
1.31988
1.31982
1.31978
1.31976
1.31974
1.31975
1.31976
1.31979
1.31984
1.3199
1.31998
1.32007
1.32017
1.3203
1.32044
1.32059
1.32077
1.32096
1.32117
1.3214
1.32166
1.32193
1.32222
1.32254
1.32288
1.32324
1.32363
1.32404
1.32448
1.32495
1.32544
1.32596
1.32651
1.32709
1.3277
1.32834
1.32901
1.3297
1.33043
1.33119
1.33198
1.33279
1.33364
1.33451
1.3354
1.33632
1.33726
1.33822
1.3392
1.34019
1.3412
1.34222
1.34324
1.34427
1.34531
1.34634
1.34737
1.34839
1.34941
1.35041
1.3514
1.35237
1.35331
1.35424
1.35513
1.35599
1.35682
1.35762
1.35838
1.3591
1.35978
1.36041
1.361
1.36156
1.36207
1.36254
1.36297
1.36336
1.36372
1.36404
1.36433
1.36459
1.36482
1.36502
1.36521
1.36537
1.36551
1.36563
1.36574
1.36583
1.3659
1.36597
1.36603
1.36608
1.36612
1.36615
1.36618
1.3662
1.36621
1.36622
1.36623
1.36624
1.36624
1.36624
1.36624
1.36624
1.36624
1.36623
1.36623
1.36622
1.36622
1.36621
1.36621
1.3662
1.36619
1.36619
1.36618
1.36617
1.36617
1.36616
1.36615
1.36615
1.36614
1.36614
1.36613
1.36613
1.36612
1.36612
1.36612
1.36611
1.36611
1.36611
1.3661
1.3661
1.3661
1.3661
1.3661