# vtk DataFile Version 2.0
LBE two cylinders
ASCII
DATASET STRUCTURED_POINTS
DIMENSIONS 400 100 1
ASPECT_RATIO 1 1 1
ORIGIN 0 0 0
POINT_DATA 40000
SCALARS rho double 1
LOOKUP_TABLE default
1.33863
1.33591
1.33618
1.3362
1.33527
1.33474
1.3344
1.33371
1.33308
1.33253
1.33192
1.33128
1.33069
1.33011
1.32951
1.32894
1.32839
1.32785
1.32733
1.32682
1.32634
1.32587
1.32542
1.32499
1.32458
1.3242
1.32383
1.32348
1.32315
1.32283
1.32254
1.32226
1.32201
1.32177
1.32155
1.32134
1.32115
1.32098
1.32083
1.32069
1.32057
1.32046
1.32037
1.3203
1.32024
1.3202
1.32017
1.32016
1.32017
1.32019
1.32023
1.32029
1.32036
1.32045
1.32055
1.32068
1.32082
1.32098
1.32116
1.32136
1.32158
1.32182
1.32209
1.32237
1.32268
1.32301
1.32336
1.32374
1.32414
1.32457
1.32503
1.32551
1.32602
1.32655
1.32711
1.3277
1.32832
1.32897
1.32964
1.33034
1.33107
1.33183
1.33261
1.33342
1.33424
1.3351
1.33597
1.33686
1.33778
1.33871
1.33965
1.3406
1.34157
1.34254
1.34352
1.3445
1.34548
1.34645
1.34743
1.34839
1.34934
1.35028
1.35121
1.35211
1.35299
1.35386
1.35469
1.3555
1.35628
1.35703
1.35774
1.35843
1.35908
1.35969
1.36027
1.36082
1.36133
1.36181
1.36225
1.36267
1.36305
1.3634
1.36372
1.36401
1.36428
1.36452
1.36474
1.36494
1.36511
1.36527
1.36541
1.36554
1.36565
1.36574
1.36583
1.3659
1.36596
1.36602
1.36607
1.36611
1.36614
1.36617
1.36619
1.36621
1.36622
1.36623
1.36624
1.36625
1.36625
1.36625
1.36625
1.36625
1.36625
1.36625
1.36624
1.36624
1.36623
1.36623
1.36622
1.36622
1.36621
1.36621
1.3662
1.3662
1.36619
1.36619
1.36618
1.36618
1.36617
1.36617
1.36617
1.36616
1.36616
1.36616
1.36616
1.36616
1.36615
1.36615
1.36615
1.36615
1.36615
1.36615
1.36616
1.36616
1.36616
1.36616
1.36617
1.36617
1.36618
1.36618
1.36619
1.3662
1.3662
1.36621
1.36622
1.36623
1.36624
1.36625
1.36626
1.36628
1.36629
1.36631
1.36632
1.36634
1.36636
1.36638
1.3664
1.36642
1.36644
1.36646
1.36648
1.36651
1.36653
1.36656
1.36658
1.36661
1.36664
1.36667
1.36669
1.36672
1.36675
1.36678
1.36681
1.36684
1.36687
1.36689
1.36692
1.36694
1.36697
1.36699
1.36701
1.36703
1.36704
1.36705
1.36706
1.36707
1.36707
1.36707
1.36706
1.36705
1.36704
1.36701
1.36699
1.36695
1.36692
1.36687
1.36682
1.36677
1.3667
1.36664
1.36656
1.36648
1.3664
1.3663
1.36621
1.36611
1.366
1.36589
1.36577
1.36565
1.36552
1.3654
1.36526
1.36513
1.36499
1.36484
1.36469
1.36454
1.36438
1.36422
1.36405
1.36387
1.36368
1.36349
1.36329
1.36307
1.36285
1.36261
1.36235
1.36207
1.36178
1.36147
1.36113
1.36077
1.36038
1.35996
1.35952
1.35905
1.35854
1.35801
1.35744
1.35684
1.3562
1.35554
1.35485
1.35412
1.35337
1.35259
1.35179
1.35097
1.35012
1.34926
1.34838
1.34749
1.34659
1.34568
1.34476
1.34385
1.34293
1.342
1.34109
1.34017
1.33926
1.33836
1.33747
1.33659
1.33572
1.33486
1.33401
1.33318
1.33237
1.33156
1.33078
1.33001
1.32925
1.32851
1.32779
1.32709
1.3264
1.32573
1.32508
1.32444
1.32382
1.32321
1.32262
1.32205
1.32149
1.32095
1.32043
1.31992
1.31942
1.31894
1.31847
1.31802
1.31757
1.31715
1.31673
1.31633
1.31594
1.31557
1.31521
1.31485
1.31451
1.31418
1.31387
1.31356
1.31327
1.31298
1.31271
1.31244
1.31219
1.31195
1.31172
1.31149
1.31128
1.31107
1.31088
1.31069
1.31052
1.31035
1.31019
1.31004
1.3099
1.30977
1.30965
1.30954
1.30943
1.30934
1.30926
1.30918
1.30913
1.30908
1.30901
1.30898
1.30902
1.30897
1.30888
1.30902
1.30919
1.30886
1.30874
1.30967
1.30956
1.30751
1.30848
1.31236
1.30775
1.29903
1.30956
1.31861
1.33676
1.3369
1.33641
1.33573
1.33542
1.33493
1.33433
1.33374
1.33319
1.33257
1.33195
1.33135
1.33075
1.33015
1.32956
1.329
1.32844
1.3279
1.32737
1.32687
1.32638
1.32591
1.32546
1.32503
1.32462
1.32424
1.32386
1.32351
1.32318
1.32287
1.32257
1.3223
1.32204
1.3218
1.32158
1.32137
1.32118
1.32101
1.32086
1.32072
1.3206
1.32049
1.3204
1.32033
1.32027
1.32023
1.3202
1.32019
1.32019
1.32022
1.32025
1.32031
1.32038
1.32047
1.32057
1.3207
1.32084
1.321
1.32118
1.32138
1.3216
1.32184
1.3221
1.32238
1.32269
1.32302
1.32337
1.32375
1.32415
1.32458
1.32503
1.32551
1.32601
1.32655
1.32711
1.3277
1.32831
1.32896
1.32963
1.33033
1.33105
1.3318
1.33258
1.33339
1.33421
1.33506
1.33593
1.33682
1.33773
1.33866
1.3396
1.34055
1.34151
1.34248
1.34346
1.34444
1.34541
1.34639
1.34736
1.34832
1.34928
1.35022
1.35114
1.35204
1.35293
1.35379
1.35463
1.35544
1.35622
1.35697
1.35769
1.35837
1.35902
1.35964
1.36022
1.36077
1.36129
1.36177
1.36222
1.36263
1.36301
1.36337
1.36369
1.36398
1.36425
1.3645
1.36472
1.36492
1.3651
1.36526
1.3654
1.36552
1.36563
1.36573
1.36582
1.36589
1.36596
1.36601
1.36606
1.3661
1.36613
1.36616
1.36618
1.3662
1.36622
1.36623
1.36624
1.36624
1.36625
1.36625
1.36625
1.36625
1.36624
1.36624
1.36624
1.36623
1.36623
1.36622
1.36622
1.36621
1.36621
1.3662
1.3662
1.36619
1.36619
1.36618
1.36618
1.36617
1.36617
1.36617
1.36616
1.36616
1.36616
1.36615
1.36615
1.36615
1.36615
1.36615
1.36615
1.36615
1.36615
1.36615
1.36615
1.36615
1.36615
1.36616
1.36616
1.36617
1.36617
1.36618
1.36618
1.36619
1.3662
1.3662
1.36621
1.36622
1.36623
1.36624
1.36626
1.36627
1.36628
1.3663
1.36631
1.36633
1.36635
1.36636
1.36638
1.3664
1.36642
1.36645
1.36647
1.36649
1.36652
1.36654
1.36657
1.36659
1.36662
1.36665
1.36668
1.3667
1.36673
1.36676
1.36679
1.36682
1.36684
1.36687
1.3669
1.36692
1.36694
1.36696
1.36698
1.367
1.36702
1.36703
1.36704
1.36704
1.36704
1.36704
1.36703
1.36702
1.36701
1.36698
1.36696
1.36693
1.36689
1.36684
1.36679
1.36674
1.36667
1.36661
1.36653
1.36645
1.36637
1.36627
1.36618
1.36607
1.36597
1.36585
1.36574
1.36561
1.36549
1.36536
1.36522
1.36509
1.36494
1.3648
1.36465
1.36449
1.36433
1.36416
1.36399
1.36381
1.36362
1.36343
1.36322
1.36301
1.36278
1.36253
1.36227
1.362
1.3617
1.36139
1.36105
1.36069
1.3603
1.35988
1.35944
1.35897
1.35846
1.35793
1.35736
1.35676
1.35613
1.35547
1.35478
1.35406
1.35332
1.35254
1.35175
1.35093
1.35009
1.34923
1.34836
1.34747
1.34657
1.34567
1.34476
1.34384
1.34293
1.34201
1.3411
1.34019
1.33928
1.33839
1.3375
1.33662
1.33575
1.3349
1.33405
1.33322
1.33241
1.33161
1.33082
1.33005
1.3293
1.32856
1.32784
1.32714
1.32645
1.32578
1.32513
1.32449
1.32387
1.32326
1.32267
1.3221
1.32154
1.321
1.32047
1.31996
1.31946
1.31898
1.31851
1.31805
1.31761
1.31718
1.31677
1.31637
1.31598
1.3156
1.31523
1.31488
1.31454
1.31421
1.31389
1.31358
1.31328
1.313
1.31272
1.31246
1.3122
1.31196
1.31172
1.3115
1.31128
1.31107
1.31088
1.31069
1.31051
1.31034
1.31018
1.31003
1.30988
1.30975
1.30962
1.30951
1.3094
1.3093
1.30921
1.30913
1.30905
1.30899
1.30896
1.3089
1.30884
1.30887
1.30887
1.30874
1.30874
1.309
1.30882
1.30833
1.30875
1.30942
1.30771
1.30622
1.30887
1.30832
1.29845
1.29299
1.33609
1.33707
1.33636
1.33564
1.33562
1.33504
1.33432
1.33383
1.33327
1.3326
1.33199
1.33141
1.33078
1.33018
1.3296
1.32903
1.32846
1.32792
1.3274
1.32689
1.3264
1.32593
1.32548
1.32505
1.32464
1.32425
1.32388
1.32353
1.3232
1.32288
1.32259
1.32231
1.32205
1.32181
1.32159
1.32138
1.3212
1.32102
1.32087
1.32073
1.32061
1.3205
1.32041
1.32034
1.32028
1.32023
1.32021
1.3202
1.3202
1.32022
1.32026
1.32031
1.32038
1.32047
1.32057
1.3207
1.32084
1.321
1.32118
1.32137
1.32159
1.32183
1.32209
1.32237
1.32268
1.323
1.32335
1.32373
1.32413
1.32455
1.325
1.32548
1.32598
1.32652
1.32707
1.32766
1.32827
1.32891
1.32958
1.33028
1.331
1.33175
1.33253
1.33333
1.33415
1.335
1.33587
1.33676
1.33767
1.33859
1.33953
1.34048
1.34144
1.34241
1.34339
1.34437
1.34535
1.34632
1.3473
1.34826
1.34921
1.35015
1.35108
1.35199
1.35288
1.35374
1.35458
1.35539
1.35618
1.35693
1.35765
1.35834
1.359
1.35962
1.3602
1.36076
1.36127
1.36176
1.36221
1.36262
1.36301
1.36336
1.36369
1.36398
1.36425
1.3645
1.36472
1.36492
1.3651
1.36526
1.3654
1.36552
1.36564
1.36573
1.36582
1.36589
1.36596
1.36601
1.36606
1.3661
1.36613
1.36616
1.36618
1.3662
1.36622
1.36623
1.36623
1.36624
1.36624
1.36625
1.36625
1.36624
1.36624
1.36624
1.36624
1.36623
1.36623
1.36622
1.36622
1.36621
1.36621
1.3662
1.36619
1.36619
1.36618
1.36618
1.36617
1.36617
1.36617
1.36616
1.36616
1.36615
1.36615
1.36615
1.36615
1.36615
1.36614
1.36614
1.36614
1.36614
1.36614
1.36614
1.36614
1.36615
1.36615
1.36615
1.36615
1.36616
1.36616
1.36617
1.36617
1.36618
1.36619
1.36619
1.3662
1.36621
1.36622
1.36623
1.36624
1.36626
1.36627
1.36628
1.3663
1.36632
1.36633
1.36635
1.36637
1.36639
1.36641
1.36643
1.36645
1.36648
1.3665
1.36652
1.36655
1.36657
1.3666
1.36663
1.36666
1.36668
1.36671
1.36674
1.36677
1.36679
1.36682
1.36685
1.36687
1.3669
1.36692
1.36694
1.36696
1.36698
1.36699
1.367
1.36701
1.36702
1.36702
1.36702
1.36701
1.367
1.36698
1.36696
1.36693
1.3669
1.36686
1.36682
1.36677
1.36671
1.36665
1.36658
1.36651
1.36642
1.36634
1.36625
1.36615
1.36604
1.36594
1.36582
1.3657
1.36558
1.36545
1.36532
1.36519
1.36505
1.3649
1.36476
1.3646
1.36444
1.36428
1.36412
1.36394
1.36376
1.36357
1.36337
1.36317
1.36295
1.36272
1.36247
1.36221
1.36194
1.36164
1.36132
1.36098
1.36062
1.36023
1.35982
1.35938
1.3589
1.3584
1.35787
1.3573
1.35671
1.35608
1.35542
1.35473
1.35401
1.35327
1.3525
1.3517
1.35088
1.35005
1.34919
1.34832
1.34744
1.34655
1.34565
1.34474
1.34383
1.34291
1.342
1.34109
1.34018
1.33928
1.33839
1.3375
1.33663
1.33576
1.33491
1.33407
1.33324
1.33242
1.33163
1.33084
1.33007
1.32932
1.32859
1.32787
1.32716
1.32648
1.32581
1.32515
1.32452
1.3239
1.32329
1.3227
1.32213
1.32157
1.32103
1.3205
1.31999
1.31949
1.319
1.31853
1.31808
1.31764
1.31721
1.31679
1.31639
1.316
1.31562
1.31525
1.3149
1.31455
1.31422
1.3139
1.31359
1.31329
1.31301
1.31273
1.31246
1.3122
1.31196
1.31172
1.31149
1.31128
1.31107
1.31087
1.31068
1.3105
1.31032
1.31016
1.31001
1.30986
1.30972
1.30959
1.30947
1.30936
1.30925
1.30916
1.30908
1.309
1.30891
1.30888
1.30884
1.30874
1.30869
1.3088
1.30872
1.30842
1.30866
1.30905
1.30819
1.3076
1.30945
1.30911
1.30432
1.3063
1.31313
1.30077
1.28865
1.33651
1.33659
1.33646
1.3362
1.33567
1.335
1.33452
1.33394
1.33327
1.33266
1.33206
1.33142
1.3308
1.3302
1.32961
1.32903
1.32847
1.32792
1.32739
1.32688
1.3264
1.32592
1.32547
1.32504
1.32463
1.32424
1.32387
1.32352
1.32318
1.32287
1.32258
1.3223
1.32204
1.3218
1.32158
1.32137
1.32119
1.32101
1.32086
1.32072
1.3206
1.32049
1.3204
1.32033
1.32027
1.32022
1.3202
1.32018
1.32019
1.32021
1.32025
1.3203
1.32037
1.32045
1.32056
1.32068
1.32082
1.32098
1.32115
1.32135
1.32157
1.3218
1.32206
1.32234
1.32264
1.32297
1.32331
1.32368
1.32408
1.3245
1.32495
1.32542
1.32592
1.32645
1.32701
1.32759
1.3282
1.32884
1.3295
1.3302
1.33092
1.33167
1.33244
1.33324
1.33406
1.33491
1.33578
1.33667
1.33757
1.3385
1.33944
1.34039
1.34135
1.34233
1.3433
1.34428
1.34527
1.34625
1.34722
1.34819
1.34915
1.35009
1.35103
1.35194
1.35283
1.3537
1.35454
1.35536
1.35615
1.35691
1.35764
1.35833
1.35899
1.35962
1.36021
1.36076
1.36128
1.36177
1.36222
1.36264
1.36302
1.36338
1.3637
1.364
1.36427
1.36451
1.36474
1.36493
1.36511
1.36527
1.36541
1.36554
1.36565
1.36574
1.36583
1.3659
1.36597
1.36602
1.36606
1.3661
1.36614
1.36616
1.36619
1.3662
1.36622
1.36623
1.36624
1.36624
1.36624
1.36624
1.36624
1.36624
1.36624
1.36624
1.36623
1.36623
1.36622
1.36622
1.36621
1.36621
1.3662
1.3662
1.36619
1.36618
1.36618
1.36617
1.36617
1.36617
1.36616
1.36616
1.36615
1.36615
1.36615
1.36614
1.36614
1.36614
1.36614
1.36614
1.36614
1.36614
1.36614
1.36614
1.36614
1.36614
1.36614
1.36614
1.36615
1.36615
1.36615
1.36616
1.36616
1.36617
1.36618
1.36618
1.36619
1.3662
1.36621
1.36622
1.36623
1.36625
1.36626
1.36627
1.36629
1.3663
1.36632
1.36634
1.36635
1.36637
1.36639
1.36641
1.36644
1.36646
1.36648
1.36651
1.36653
1.36656
1.36658
1.36661
1.36664
1.36666
1.36669
1.36672
1.36675
1.36677
1.3668
1.36682
1.36685
1.36687
1.3669
1.36692
1.36694
1.36695
1.36697
1.36698
1.36699
1.36699
1.367
1.36699
1.36699
1.36697
1.36696
1.36694
1.36691
1.36688
1.36684
1.3668
1.36675
1.36669
1.36663
1.36656
1.36648
1.3664
1.36631
1.36622
1.36612
1.36602
1.36591
1.3658
1.36568
1.36555
1.36542
1.36529
1.36515
1.36501
1.36487
1.36472
1.36457
1.36441
1.36424
1.36407
1.3639
1.36372
1.36353
1.36333
1.36312
1.3629
1.36267
1.36242
1.36216
1.36188
1.36159
1.36127
1.36093
1.36057
1.36018
1.35976
1.35932
1.35884
1.35834
1.35781
1.35724
1.35664
1.35601
1.35535
1.35466
1.35395
1.3532
1.35243
1.35163
1.35082
1.34998
1.34913
1.34826
1.34738
1.34649
1.34559
1.34468
1.34377
1.34286
1.34195
1.34104
1.34014
1.33924
1.33835
1.33746
1.33659
1.33573
1.33488
1.33404
1.33321
1.3324
1.33161
1.33083
1.33006
1.32931
1.32858
1.32786
1.32716
1.32648
1.32581
1.32516
1.32452
1.3239
1.3233
1.32271
1.32214
1.32158
1.32104
1.32051
1.32
1.3195
1.31902
1.31855
1.31809
1.31765
1.31722
1.31681
1.3164
1.31601
1.31563
1.31526
1.31491
1.31457
1.31423
1.31391
1.3136
1.3133
1.31301
1.31274
1.31247
1.31221
1.31196
1.31172
1.3115
1.31128
1.31107
1.31087
1.31068
1.31049
1.31032
1.31015
1.31
1.30985
1.30971
1.30958
1.30945
1.30934
1.30924
1.30913
1.30904
1.30898
1.3089
1.3088
1.30877
1.30879
1.30867
1.30854
1.30872
1.30879
1.30829
1.3083
1.30918
1.30857
1.30688
1.30851
1.31016
1.30543
1.30338
1.30874
1.30938
1.3373
1.33699
1.33683
1.33646
1.33573
1.33517
1.33469
1.33397
1.33331
1.33272
1.33207
1.33141
1.3308
1.33019
1.32958
1.329
1.32844
1.32789
1.32736
1.32685
1.32636
1.32588
1.32543
1.325
1.32459
1.3242
1.32383
1.32348
1.32314
1.32283
1.32254
1.32226
1.32201
1.32177
1.32154
1.32134
1.32115
1.32098
1.32083
1.32069
1.32057
1.32046
1.32037
1.3203
1.32024
1.3202
1.32017
1.32016
1.32016
1.32018
1.32021
1.32027
1.32033
1.32042
1.32052
1.32064
1.32078
1.32093
1.32111
1.3213
1.32152
1.32175
1.322
1.32228
1.32258
1.3229
1.32324
1.32361
1.32401
1.32442
1.32487
1.32534
1.32583
1.32636
1.32691
1.32749
1.32809
1.32873
1.32939
1.33008
1.3308
1.33155
1.33232
1.33312
1.33394
1.33478
1.33565
1.33654
1.33745
1.33838
1.33932
1.34027
1.34124
1.34221
1.3432
1.34418
1.34517
1.34615
1.34714
1.34811
1.34908
1.35003
1.35097
1.35189
1.35279
1.35366
1.35452
1.35534
1.35614
1.3569
1.35764
1.35834
1.359
1.35963
1.36023
1.36079
1.36131
1.3618
1.36225
1.36267
1.36306
1.36341
1.36374
1.36403
1.3643
1.36455
1.36477
1.36496
1.36514
1.3653
1.36544
1.36556
1.36567
1.36576
1.36585
1.36592
1.36598
1.36603
1.36608
1.36611
1.36614
1.36617
1.36619
1.36621
1.36622
1.36623
1.36624
1.36624
1.36624
1.36624
1.36624
1.36624
1.36624
1.36623
1.36623
1.36623
1.36622
1.36621
1.36621
1.3662
1.3662
1.36619
1.36619
1.36618
1.36618
1.36617
1.36616
1.36616
1.36616
1.36615
1.36615
1.36614
1.36614
1.36614
1.36614
1.36613
1.36613
1.36613
1.36613
1.36613
1.36613
1.36613
1.36613
1.36613
1.36613
1.36613
1.36614
1.36614
1.36614
1.36615
1.36615
1.36616
1.36617
1.36617
1.36618
1.36619
1.3662
1.36621
1.36622
1.36623
1.36625
1.36626
1.36627
1.36629
1.3663
1.36632
1.36634
1.36636
1.36638
1.3664
1.36642
1.36644
1.36646
1.36649
1.36651
1.36654
1.36656
1.36659
1.36662
1.36664
1.36667
1.3667
1.36672
1.36675
1.36678
1.3668
1.36683
1.36685
1.36687
1.36689
1.36691
1.36693
1.36695
1.36696
1.36697
1.36697
1.36697
1.36697
1.36696
1.36695
1.36694
1.36692
1.36689
1.36686
1.36682
1.36677
1.36672
1.36667
1.3666
1.36654
1.36646
1.36638
1.36629
1.3662
1.3661
1.366
1.36589
1.36577
1.36565
1.36553
1.3654
1.36527
1.36513
1.36499
1.36484
1.36469
1.36454
1.36438
1.36421
1.36404
1.36387
1.36368
1.36349
1.36329
1.36308
1.36286
1.36263
1.36238
1.36212
1.36184
1.36154
1.36122
1.36088
1.36051
1.36012
1.3597
1.35926
1.35878
1.35827
1.35773
1.35716
1.35656
1.35593
1.35526
1.35457
1.35385
1.3531
1.35233
1.35153
1.35071
1.34987
1.34902
1.34815
1.34726
1.34637
1.34547
1.34457
1.34366
1.34275
1.34184
1.34093
1.34003
1.33913
1.33825
1.33737
1.3365
1.33564
1.33479
1.33396
1.33314
1.33233
1.33154
1.33076
1.33
1.32926
1.32853
1.32782
1.32712
1.32644
1.32578
1.32513
1.3245
1.32388
1.32328
1.3227
1.32213
1.32158
1.32104
1.32051
1.32
1.31951
1.31903
1.31856
1.3181
1.31766
1.31723
1.31682
1.31642
1.31602
1.31565
1.31528
1.31493
1.31458
1.31425
1.31393
1.31362
1.31332
1.31303
1.31275
1.31249
1.31223
1.31198
1.31174
1.31151
1.31129
1.31108
1.31088
1.31069
1.31051
1.31033
1.31017
1.31001
1.30986
1.30972
1.3096
1.30947
1.30935
1.30925
1.30916
1.30906
1.30898
1.30894
1.30887
1.30877
1.30878
1.30883
1.30867
1.30858
1.30891
1.30888
1.30825
1.30872
1.30973
1.3082
1.30725
1.31063
1.30994
1.30501
1.30834
1.31087
1.33821
1.33778
1.33723
1.33658
1.33603
1.33544
1.33471
1.33402
1.33341
1.33272
1.33204
1.33141
1.33077
1.33014
1.32953
1.32895
1.32837
1.32782
1.32728
1.32677
1.32628
1.32581
1.32536
1.32492
1.32451
1.32412
1.32375
1.32341
1.32308
1.32276
1.32247
1.3222
1.32194
1.32171
1.32149
1.32128
1.3211
1.32093
1.32078
1.32064
1.32052
1.32041
1.32032
1.32025
1.32019
1.32015
1.32012
1.32011
1.32011
1.32013
1.32016
1.32021
1.32028
1.32036
1.32046
1.32058
1.32072
1.32087
1.32104
1.32123
1.32144
1.32167
1.32193
1.3222
1.32249
1.32281
1.32315
1.32351
1.3239
1.32432
1.32476
1.32522
1.32571
1.32623
1.32678
1.32735
1.32796
1.32859
1.32925
1.32994
1.33065
1.33139
1.33216
1.33296
1.33378
1.33463
1.3355
1.33639
1.3373
1.33822
1.33917
1.34013
1.3411
1.34208
1.34307
1.34406
1.34505
1.34604
1.34703
1.34802
1.34899
1.34995
1.3509
1.35183
1.35274
1.35362
1.35449
1.35532
1.35612
1.3569
1.35764
1.35835
1.35902
1.35966
1.36026
1.36082
1.36135
1.36184
1.3623
1.36272
1.3631
1.36346
1.36378
1.36408
1.36435
1.36459
1.36481
1.365
1.36518
1.36533
1.36547
1.36559
1.3657
1.36579
1.36587
1.36594
1.366
1.36605
1.36609
1.36613
1.36615
1.36618
1.3662
1.36621
1.36623
1.36623
1.36624
1.36624
1.36625
1.36624
1.36624
1.36624
1.36624
1.36623
1.36623
1.36622
1.36622
1.36621
1.36621
1.3662
1.36619
1.36619
1.36618
1.36618
1.36617
1.36617
1.36616
1.36616
1.36615
1.36615
1.36614
1.36614
1.36614
1.36613
1.36613
1.36613
1.36612
1.36612
1.36612
1.36612
1.36612
1.36612
1.36612
1.36612
1.36612
1.36613
1.36613
1.36613
1.36614
1.36614
1.36615
1.36615
1.36616
1.36616
1.36617
1.36618
1.36619
1.3662
1.36621
1.36622
1.36623
1.36625
1.36626
1.36627
1.36629
1.36631
1.36632
1.36634
1.36636
1.36638
1.3664
1.36642
1.36645
1.36647
1.36649
1.36652
1.36654
1.36657
1.3666
1.36662
1.36665
1.36668
1.3667
1.36673
1.36676
1.36678
1.36681
1.36683
1.36685
1.36687
1.36689
1.36691
1.36692
1.36693
1.36694
1.36695
1.36695
1.36695
1.36694
1.36693
1.36691
1.36689
1.36687
1.36683
1.3668
1.36675
1.3667
1.36665
1.36658
1.36651
1.36644
1.36636
1.36627
1.36618
1.36608
1.36597
1.36586
1.36575
1.36563
1.36551
1.36538
1.36524
1.36511
1.36496
1.36482
1.36467
1.36451
1.36435
1.36419
1.36402
1.36384
1.36366
1.36347
1.36327
1.36306
1.36284
1.3626
1.36235
1.36209
1.3618
1.3615
1.36118
1.36083
1.36046
1.36007
1.35964
1.35919
1.3587
1.35819
1.35764
1.35707
1.35646
1.35581
1.35514
1.35444
1.35371
1.35296
1.35218
1.35137
1.35055
1.34971
1.34885
1.34798
1.34709
1.3462
1.3453
1.34439
1.34348
1.34257
1.34167
1.34076
1.33986
1.33897
1.33808
1.3372
1.33634
1.33548
1.33464
1.33381
1.333
1.3322
1.33141
1.33064
1.32989
1.32915
1.32843
1.32773
1.32704
1.32637
1.32571
1.32507
1.32444
1.32383
1.32324
1.32266
1.3221
1.32155
1.32102
1.3205
1.31999
1.3195
1.31902
1.31856
1.31811
1.31767
1.31725
1.31683
1.31643
1.31605
1.31567
1.3153
1.31495
1.31461
1.31428
1.31396
1.31365
1.31335
1.31307
1.31279
1.31252
1.31227
1.31202
1.31178
1.31155
1.31134
1.31113
1.31093
1.31074
1.31055
1.31038
1.31022
1.31006
1.30992
1.30978
1.30965
1.30954
1.30943
1.30932
1.30923
1.30917
1.30908
1.309
1.309
1.30897
1.30885
1.3089
1.30907
1.3089
1.30872
1.30929
1.30951
1.30856
1.30902
1.31085
1.30946
1.30777
1.31106
1.31287
1.30987
1.30954
1.33926
1.33845
1.3377
1.33696
1.33632
1.33556
1.33477
1.33412
1.33342
1.33268
1.33201
1.33136
1.33069
1.33005
1.32944
1.32884
1.32826
1.32771
1.32717
1.32665
1.32616
1.32569
1.32524
1.32481
1.3244
1.32402
1.32365
1.3233
1.32298
1.32267
1.32238
1.32211
1.32186
1.32162
1.3214
1.3212
1.32102
1.32085
1.3207
1.32057
1.32045
1.32034
1.32025
1.32018
1.32012
1.32008
1.32005
1.32004
1.32004
1.32006
1.3201
1.32015
1.32021
1.32029
1.32039
1.32051
1.32064
1.32079
1.32096
1.32115
1.32135
1.32158
1.32183
1.32209
1.32238
1.3227
1.32303
1.32339
1.32377
1.32418
1.32462
1.32508
1.32556
1.32608
1.32662
1.32719
1.32779
1.32841
1.32907
1.32975
1.33047
1.33121
1.33197
1.33277
1.33359
1.33444
1.3353
1.3362
1.33711
1.33804
1.33899
1.33995
1.34093
1.34191
1.34291
1.34391
1.34491
1.34591
1.34691
1.3479
1.34888
1.34986
1.35081
1.35176
1.35268
1.35357
1.35445
1.3553
1.35611
1.3569
1.35765
1.35837
1.35905
1.35969
1.3603
1.36087
1.3614
1.36189
1.36235
1.36278
1.36316
1.36352
1.36384
1.36414
1.3644
1.36464
1.36486
1.36505
1.36522
1.36538
1.36551
1.36563
1.36573
1.36582
1.36589
1.36596
1.36602
1.36607
1.36611
1.36614
1.36617
1.36619
1.36621
1.36622
1.36623
1.36624
1.36624
1.36625
1.36625
1.36625
1.36624
1.36624
1.36624
1.36623
1.36623
1.36622
1.36621
1.36621
1.3662
1.3662
1.36619
1.36618
1.36618
1.36617
1.36617
1.36616
1.36615
1.36615
1.36615
1.36614
1.36614
1.36613
1.36613
1.36613
1.36612
1.36612
1.36612
1.36612
1.36612
1.36611
1.36611
1.36611
1.36611
1.36611
1.36612
1.36612
1.36612
1.36612
1.36613
1.36613
1.36614
1.36614
1.36615
1.36615
1.36616
1.36617
1.36618
1.36619
1.3662
1.36621
1.36622
1.36623
1.36625
1.36626
1.36628
1.36629
1.36631
1.36633
1.36634
1.36636
1.36638
1.36641
1.36643
1.36645
1.36647
1.3665
1.36652
1.36655
1.36658
1.3666
1.36663
1.36665
1.36668
1.36671
1.36673
1.36676
1.36678
1.36681
1.36683
1.36685
1.36687
1.36689
1.3669
1.36691
1.36692
1.36693
1.36693
1.36693
1.36692
1.36691
1.36689
1.36687
1.36684
1.36681
1.36677
1.36673
1.36668
1.36662
1.36656
1.36649
1.36642
1.36634
1.36625
1.36616
1.36606
1.36595
1.36584
1.36573
1.36561
1.36548
1.36535
1.36522
1.36509
1.36494
1.3648
1.36465
1.36449
1.36434
1.36417
1.364
1.36382
1.36364
1.36345
1.36325
1.36304
1.36282
1.36258
1.36233
1.36206
1.36177
1.36147
1.36114
1.36079
1.36041
1.36001
1.35957
1.35911
1.35862
1.35809
1.35754
1.35695
1.35633
1.35568
1.35499
1.35428
1.35354
1.35278
1.35199
1.35117
1.35034
1.3495
1.34863
1.34775
1.34686
1.34597
1.34506
1.34416
1.34325
1.34233
1.34143
1.34052
1.33962
1.33873
1.33785
1.33698
1.33612
1.33527
1.33443
1.33361
1.3328
1.33201
1.33123
1.33047
1.32972
1.329
1.32828
1.32759
1.32691
1.32625
1.3256
1.32497
1.32435
1.32375
1.32317
1.3226
1.32204
1.3215
1.32098
1.32047
1.31997
1.31949
1.31902
1.31856
1.31811
1.31768
1.31726
1.31685
1.31646
1.31607
1.3157
1.31534
1.31499
1.31465
1.31433
1.31401
1.31371
1.31341
1.31313
1.31285
1.31259
1.31233
1.31209
1.31185
1.31163
1.31141
1.3112
1.31101
1.31082
1.31064
1.31047
1.31031
1.31016
1.31002
1.30989
1.30976
1.30965
1.30955
1.30946
1.30937
1.30931
1.30927
1.3092
1.30916
1.30922
1.30922
1.30911
1.30926
1.30952
1.30932
1.30929
1.31012
1.31021
1.30938
1.31061
1.3121
1.3107
1.31092
1.31346
1.31372
1.31437
1.3403
1.33904
1.33821
1.33738
1.33649
1.33565
1.33491
1.33415
1.33335
1.33263
1.33195
1.33124
1.33056
1.32993
1.3293
1.32869
1.32811
1.32755
1.32701
1.3265
1.32601
1.32554
1.32509
1.32466
1.32426
1.32388
1.32351
1.32317
1.32285
1.32254
1.32226
1.32199
1.32174
1.32151
1.3213
1.3211
1.32092
1.32076
1.32061
1.32048
1.32036
1.32026
1.32017
1.3201
1.32004
1.32
1.31997
1.31996
1.31996
1.31998
1.32001
1.32006
1.32012
1.3202
1.3203
1.32041
1.32054
1.32069
1.32085
1.32104
1.32124
1.32146
1.32171
1.32197
1.32225
1.32256
1.32289
1.32324
1.32362
1.32402
1.32445
1.32491
1.32539
1.32589
1.32643
1.327
1.32759
1.32821
1.32886
1.32954
1.33025
1.33099
1.33175
1.33255
1.33337
1.33421
1.33508
1.33597
1.33689
1.33782
1.33878
1.33974
1.34072
1.34172
1.34272
1.34373
1.34474
1.34575
1.34676
1.34776
1.34875
1.34974
1.35071
1.35166
1.3526
1.35351
1.3544
1.35526
1.35609
1.35689
1.35765
1.35838
1.35908
1.35973
1.36034
1.36092
1.36146
1.36196
1.36242
1.36284
1.36323
1.36359
1.36391
1.3642
1.36447
1.3647
1.36492
1.36511
1.36527
1.36542
1.36555
1.36566
1.36577
1.36585
1.36593
1.36599
1.36604
1.36609
1.36613
1.36616
1.36618
1.3662
1.36622
1.36623
1.36624
1.36624
1.36625
1.36625
1.36625
1.36625
1.36624
1.36624
1.36624
1.36623
1.36622
1.36622
1.36621
1.36621
1.3662
1.36619
1.36619
1.36618
1.36617
1.36617
1.36616
1.36616
1.36615
1.36614
1.36614
1.36614
1.36613
1.36613
1.36612
1.36612
1.36612
1.36611
1.36611
1.36611
1.36611
1.36611
1.36611
1.36611
1.36611
1.36611
1.36611
1.36611
1.36611
1.36611
1.36612
1.36612
1.36613
1.36613
1.36614
1.36614
1.36615
1.36616
1.36617
1.36617
1.36618
1.3662
1.36621
1.36622
1.36623
1.36625
1.36626
1.36628
1.36629
1.36631
1.36633
1.36635
1.36637
1.36639
1.36641
1.36643
1.36646
1.36648
1.3665
1.36653
1.36656
1.36658
1.36661
1.36663
1.36666
1.36669
1.36671
1.36674
1.36676
1.36678
1.36681
1.36683
1.36684
1.36686
1.36688
1.36689
1.3669
1.3669
1.3669
1.3669
1.36689
1.36688
1.36687
1.36685
1.36682
1.36679
1.36675
1.36671
1.36666
1.3666
1.36654
1.36647
1.36639
1.36631
1.36622
1.36613
1.36603
1.36593
1.36582
1.36571
1.36559
1.36546
1.36534
1.3652
1.36507
1.36493
1.36478
1.36463
1.36448
1.36432
1.36416
1.36399
1.36382
1.36363
1.36344
1.36324
1.36303
1.3628
1.36256
1.36231
1.36204
1.36175
1.36144
1.3611
1.36074
1.36036
1.35995
1.3595
1.35903
1.35852
1.35799
1.35742
1.35681
1.35618
1.35551
1.35481
1.35409
1.35334
1.35256
1.35176
1.35093
1.35009
1.34923
1.34836
1.34748
1.34658
1.34568
1.34477
1.34386
1.34295
1.34204
1.34113
1.34023
1.33933
1.33844
1.33756
1.33669
1.33583
1.33499
1.33416
1.33334
1.33254
1.33176
1.33099
1.33024
1.3295
1.32878
1.32808
1.3274
1.32673
1.32608
1.32545
1.32483
1.32422
1.32364
1.32306
1.32251
1.32196
1.32144
1.32092
1.32042
1.31993
1.31946
1.319
1.31855
1.31811
1.31769
1.31728
1.31688
1.31649
1.31611
1.31575
1.31539
1.31505
1.31472
1.3144
1.31408
1.31378
1.31349
1.31321
1.31294
1.31268
1.31243
1.31219
1.31196
1.31174
1.31152
1.31132
1.31113
1.31094
1.31077
1.31061
1.31045
1.31031
1.31017
1.31005
1.30994
1.30983
1.30974
1.30967
1.3096
1.30953
1.30951
1.30952
1.30947
1.30946
1.30961
1.30967
1.30956
1.30984
1.31031
1.31007
1.31008
1.31134
1.31159
1.31071
1.31217
1.31427
1.31371
1.31371
1.31651
1.31854
1.34113
1.33964
1.33864
1.33764
1.33665
1.33578
1.33494
1.33408
1.33328
1.33255
1.3318
1.33107
1.3304
1.32975
1.3291
1.3285
1.32792
1.32735
1.32682
1.32631
1.32581
1.32535
1.32491
1.32448
1.32408
1.32371
1.32335
1.32301
1.32269
1.32239
1.32211
1.32185
1.32161
1.32138
1.32117
1.32098
1.3208
1.32064
1.3205
1.32037
1.32025
1.32015
1.32007
1.32
1.31994
1.3199
1.31987
1.31986
1.31986
1.31988
1.31991
1.31996
1.32002
1.3201
1.32019
1.3203
1.32043
1.32057
1.32073
1.32091
1.32111
1.32133
1.32157
1.32183
1.32211
1.3224
1.32273
1.32308
1.32345
1.32384
1.32427
1.32471
1.32518
1.32569
1.32622
1.32677
1.32736
1.32798
1.32862
1.3293
1.33
1.33073
1.3315
1.33229
1.3331
1.33395
1.33482
1.33571
1.33663
1.33757
1.33852
1.3395
1.34049
1.34148
1.34249
1.34351
1.34453
1.34555
1.34658
1.34759
1.3486
1.3496
1.35059
1.35155
1.3525
1.35343
1.35434
1.35521
1.35606
1.35688
1.35765
1.35839
1.3591
1.35976
1.36039
1.36097
1.36152
1.36202
1.36249
1.36291
1.36331
1.36366
1.36398
1.36428
1.36454
1.36477
1.36498
1.36517
1.36533
1.36547
1.3656
1.36571
1.3658
1.36589
1.36596
1.36602
1.36607
1.36611
1.36615
1.36617
1.3662
1.36622
1.36623
1.36624
1.36625
1.36625
1.36625
1.36625
1.36625
1.36625
1.36625
1.36624
1.36624
1.36623
1.36622
1.36622
1.36621
1.3662
1.3662
1.36619
1.36618
1.36618
1.36617
1.36616
1.36616
1.36615
1.36615
1.36614
1.36613
1.36613
1.36613
1.36612
1.36612
1.36611
1.36611
1.36611
1.36611
1.3661
1.3661
1.3661
1.3661
1.3661
1.3661
1.3661
1.3661
1.3661
1.3661
1.36611
1.36611
1.36611
1.36612
1.36612
1.36613
1.36613
1.36614
1.36615
1.36615
1.36616
1.36617
1.36618
1.36619
1.36621
1.36622
1.36623
1.36625
1.36626
1.36628
1.3663
1.36631
1.36633
1.36635
1.36637
1.36639
1.36642
1.36644
1.36646
1.36649
1.36651
1.36653
1.36656
1.36659
1.36661
1.36664
1.36666
1.36669
1.36671
1.36674
1.36676
1.36678
1.3668
1.36682
1.36684
1.36685
1.36686
1.36687
1.36688
1.36688
1.36688
1.36687
1.36686
1.36684
1.36682
1.36679
1.36676
1.36672
1.36668
1.36663
1.36657
1.36651
1.36644
1.36636
1.36628
1.3662
1.3661
1.36601
1.3659
1.36579
1.36568
1.36556
1.36544
1.36531
1.36518
1.36505
1.36491
1.36477
1.36462
1.36447
1.36431
1.36415
1.36399
1.36381
1.36363
1.36344
1.36324
1.36302
1.36279
1.36256
1.3623
1.36202
1.36173
1.36141
1.36107
1.3607
1.36031
1.35988
1.35943
1.35894
1.35842
1.35787
1.35728
1.35666
1.35601
1.35532
1.35461
1.35387
1.3531
1.3523
1.35149
1.35065
1.3498
1.34893
1.34805
1.34716
1.34626
1.34535
1.34444
1.34353
1.34261
1.3417
1.34079
1.33989
1.33899
1.3381
1.33722
1.33636
1.3355
1.33466
1.33384
1.33303
1.33223
1.33146
1.3307
1.32996
1.32924
1.32853
1.32784
1.32717
1.32651
1.32587
1.32525
1.32465
1.32406
1.32349
1.32293
1.32239
1.32186
1.32134
1.32084
1.32036
1.31988
1.31942
1.31897
1.31853
1.31811
1.3177
1.3173
1.31691
1.31653
1.31616
1.3158
1.31546
1.31512
1.3148
1.31448
1.31418
1.31388
1.3136
1.31332
1.31306
1.3128
1.31256
1.31232
1.3121
1.31188
1.31168
1.31148
1.31129
1.31111
1.31095
1.31079
1.31064
1.31051
1.31038
1.31026
1.31016
1.31007
1.30999
1.30992
1.30989
1.30986
1.30982
1.30984
1.30991
1.3099
1.30995
1.31022
1.31033
1.31028
1.31076
1.31132
1.31113
1.31151
1.3129
1.31318
1.31309
1.31466
1.3162
1.31702
1.31833
1.31991
1.34173
1.34009
1.33894
1.33779
1.33677
1.33582
1.33486
1.33399
1.33318
1.33237
1.33159
1.33088
1.33019
1.32951
1.32887
1.32826
1.32767
1.32711
1.32658
1.32607
1.32559
1.32513
1.32469
1.32427
1.32388
1.32351
1.32316
1.32283
1.32251
1.32222
1.32195
1.32169
1.32146
1.32123
1.32103
1.32084
1.32067
1.32051
1.32037
1.32025
1.32013
1.32004
1.31995
1.31989
1.31983
1.31979
1.31977
1.31975
1.31976
1.31977
1.3198
1.31985
1.31991
1.31998
1.32007
1.32018
1.3203
1.32044
1.3206
1.32078
1.32097
1.32118
1.32141
1.32167
1.32194
1.32223
1.32255
1.32289
1.32325
1.32364
1.32405
1.32449
1.32496
1.32545
1.32597
1.32652
1.32711
1.32771
1.32835
1.32902
1.32972
1.33045
1.33121
1.33199
1.33281
1.33365
1.33452
1.33542
1.33634
1.33728
1.33824
1.33922
1.34021
1.34122
1.34224
1.34326
1.34429
1.34533
1.34636
1.34739
1.34841
1.34943
1.35043
1.35142
1.35238
1.35333
1.35425
1.35515
1.35601
1.35684
1.35764
1.3584
1.35912
1.3598
1.36043
1.36102
1.36158
1.36209
1.36256
1.36299
1.36338
1.36374
1.36406
1.36435
1.36461
1.36484
1.36504
1.36523
1.36539
1.36553
1.36565
1.36576
1.36585
1.36592
1.36599
1.36605
1.3661
1.36614
1.36617
1.36619
1.36621
1.36623
1.36624
1.36625
1.36626
1.36626
1.36626
1.36626
1.36626
1.36625
1.36625
1.36624
1.36624
1.36623
1.36622
1.36621
1.36621
1.3662
1.36619
1.36619
1.36618
1.36617
1.36617
1.36616
1.36615
1.36615
1.36614
1.36614
1.36613
1.36613
1.36612
1.36612
1.36611
1.36611
1.36611
1.3661
1.3661
1.3661
1.3661
1.36609
1.36609
1.36609