# vtk DataFile Version 2.0
LBE two cylinders
ASCII
DATASET STRUCTURED_POINTS
DIMENSIONS 400 100 1
ASPECT_RATIO 1 1 1
ORIGIN 0 0 0
POINT_DATA 40000
SCALARS rho double 1
LOOKUP_TABLE default
1.33649
1.33354
1.33381
1.33383
1.33286
1.33233
1.332
1.33133
1.33071
1.33019
1.32961
1.32901
1.32846
1.32791
1.32736
1.32684
1.32633
1.32583
1.32535
1.32489
1.32444
1.32401
1.3236
1.32321
1.32283
1.32248
1.32213
1.32181
1.3215
1.32121
1.32094
1.32069
1.32045
1.32023
1.32002
1.31983
1.31966
1.3195
1.31936
1.31923
1.31912
1.31903
1.31894
1.31887
1.31882
1.31878
1.31875
1.31874
1.31874
1.31875
1.31878
1.31882
1.31888
1.31895
1.31904
1.31914
1.31925
1.31939
1.31953
1.3197
1.31989
1.32009
1.32031
1.32055
1.32082
1.3211
1.32141
1.32175
1.3221
1.32249
1.3229
1.32334
1.3238
1.3243
1.32482
1.32538
1.32596
1.32658
1.32722
1.3279
1.32861
1.32934
1.33011
1.3309
1.33172
1.33256
1.33343
1.33431
1.33522
1.33615
1.33709
1.33805
1.33902
1.34
1.34098
1.34196
1.34295
1.34393
1.34491
1.34588
1.34684
1.34778
1.34871
1.34962
1.35051
1.35138
1.35221
1.35302
1.3538
1.35455
1.35527
1.35595
1.3566
1.35722
1.35779
1.35834
1.35885
1.35932
1.35976
1.36017
1.36055
1.36089
1.36121
1.3615
1.36176
1.362
1.36221
1.3624
1.36257
1.36272
1.36286
1.36297
1.36308
1.36316
1.36324
1.3633
1.36336
1.36341
1.36344
1.36347
1.3635
1.36351
1.36353
1.36353
1.36354
1.36354
1.36354
1.36353
1.36352
1.36351
1.3635
1.36349
1.36348
1.36346
1.36345
1.36343
1.36342
1.3634
1.36339
1.36337
1.36336
1.36335
1.36333
1.36332
1.36331
1.3633
1.3633
1.36329
1.36329
1.36328
1.36328
1.36328
1.36328
1.36329
1.36329
1.3633
1.3633
1.36331
1.36332
1.36333
1.36334
1.36335
1.36336
1.36338
1.36339
1.3634
1.36342
1.36343
1.36345
1.36347
1.36348
1.3635
1.36352
1.36354
1.36356
1.36358
1.3636
1.36362
1.36364
1.36366
1.36368
1.36371
1.36373
1.36375
1.36377
1.36379
1.36381
1.36383
1.36385
1.36387
1.36389
1.36391
1.36392
1.36394
1.36395
1.36397
1.36398
1.36399
1.364
1.36401
1.36402
1.36403
1.36404
1.36404
1.36405
1.36406
1.36406
1.36407
1.36408
1.36408
1.36409
1.36409
1.36409
1.3641
1.3641
1.36409
1.36409
1.36408
1.36408
1.36406
1.36405
1.36403
1.36401
1.36398
1.36395
1.36392
1.36388
1.36384
1.36379
1.36374
1.36368
1.36362
1.36355
1.36348
1.3634
1.36332
1.36324
1.36315
1.36306
1.36297
1.36287
1.36277
1.36267
1.36256
1.36245
1.36233
1.36221
1.36209
1.36196
1.36182
1.36168
1.36153
1.36138
1.36121
1.36103
1.36085
1.36064
1.36043
1.36019
1.35994
1.35967
1.35938
1.35906
1.35872
1.35835
1.35796
1.35753
1.35707
1.35658
1.35606
1.3555
1.35492
1.35429
1.35364
1.35295
1.35223
1.35149
1.35071
1.34991
1.34909
1.34824
1.34738
1.3465
1.3456
1.34469
1.34378
1.34286
1.34193
1.34101
1.34008
1.33916
1.33824
1.33733
1.33643
1.33553
1.33465
1.33378
1.33293
1.33209
1.33127
1.33046
1.32967
1.3289
1.32815
1.32741
1.32669
1.326
1.32532
1.32465
1.32401
1.32339
1.32278
1.32219
1.32162
1.32106
1.32052
1.31999
1.31948
1.31898
1.3185
1.31803
1.31758
1.31713
1.3167
1.31628
1.31588
1.31548
1.31509
1.31472
1.31436
1.314
1.31366
1.31332
1.31299
1.31268
1.31237
1.31207
1.31178
1.3115
1.31123
1.31097
1.31072
1.31047
1.31023
1.31
1.30978
1.30957
1.30936
1.30916
1.30897
1.30878
1.3086
1.30843
1.30826
1.3081
1.30795
1.30781
1.30767
1.30754
1.30742
1.30733
1.30724
1.30714
1.30707
1.30708
1.307
1.30689
1.30701
1.30717
1.30682
1.30671
1.30765
1.30755
1.30552
1.30654
1.31045
1.30587
1.29723
1.30784
1.31692
1.3345
1.3346
1.33406
1.33335
1.33303
1.33254
1.33194
1.33137
1.33084
1.33024
1.32965
1.32909
1.32852
1.32796
1.32742
1.3269
1.32638
1.32588
1.3254
1.32494
1.32449
1.32407
1.32365
1.32326
1.32288
1.32252
1.32218
1.32186
1.32155
1.32126
1.32099
1.32073
1.32049
1.32027
1.32006
1.31987
1.3197
1.31954
1.3194
1.31927
1.31916
1.31906
1.31898
1.31891
1.31886
1.31881
1.31879
1.31877
1.31877
1.31879
1.31881
1.31885
1.31891
1.31898
1.31907
1.31917
1.31928
1.31941
1.31956
1.31973
1.31991
1.32011
1.32034
1.32058
1.32084
1.32113
1.32143
1.32177
1.32212
1.3225
1.32291
1.32335
1.32381
1.3243
1.32483
1.32538
1.32596
1.32657
1.32722
1.32789
1.32859
1.32933
1.33009
1.33088
1.33169
1.33253
1.3334
1.33428
1.33519
1.33611
1.33705
1.33801
1.33897
1.33994
1.34092
1.34191
1.34289
1.34387
1.34485
1.34582
1.34678
1.34772
1.34865
1.34956
1.35045
1.35131
1.35215
1.35296
1.35374
1.35449
1.35521
1.3559
1.35655
1.35716
1.35774
1.35829
1.3588
1.35928
1.35972
1.36013
1.36051
1.36086
1.36118
1.36147
1.36173
1.36197
1.36219
1.36238
1.36255
1.36271
1.36284
1.36296
1.36306
1.36315
1.36323
1.36329
1.36335
1.3634
1.36343
1.36346
1.36349
1.36351
1.36352
1.36353
1.36353
1.36353
1.36353
1.36353
1.36352
1.36351
1.3635
1.36349
1.36347
1.36346
1.36344
1.36343
1.36341
1.3634
1.36338
1.36337
1.36336
1.36334
1.36333
1.36332
1.36331
1.3633
1.36329
1.36329
1.36328
1.36328
1.36328
1.36328
1.36328
1.36328
1.36329
1.36329
1.3633
1.36331
1.36332
1.36333
1.36333
1.36335
1.36336
1.36337
1.36338
1.3634
1.36341
1.36343
1.36344
1.36346
1.36347
1.36349
1.36351
1.36353
1.36355
1.36357
1.36359
1.36361
1.36363
1.36365
1.36367
1.3637
1.36372
1.36374
1.36376
1.36378
1.3638
1.36382
1.36384
1.36386
1.36388
1.36389
1.36391
1.36393
1.36394
1.36395
1.36396
1.36398
1.36399
1.364
1.364
1.36401
1.36402
1.36403
1.36403
1.36404
1.36405
1.36405
1.36406
1.36407
1.36407
1.36407
1.36408
1.36408
1.36408
1.36407
1.36407
1.36406
1.36405
1.36404
1.36403
1.36401
1.36399
1.36396
1.36393
1.36389
1.36386
1.36381
1.36376
1.36371
1.36365
1.36359
1.36352
1.36345
1.36337
1.36329
1.36321
1.36312
1.36303
1.36294
1.36284
1.36273
1.36263
1.36252
1.3624
1.36229
1.36217
1.36204
1.36191
1.36177
1.36163
1.36148
1.36132
1.36115
1.36097
1.36078
1.36058
1.36036
1.36012
1.35987
1.3596
1.3593
1.35899
1.35864
1.35827
1.35788
1.35745
1.357
1.35651
1.35599
1.35543
1.35485
1.35423
1.35357
1.35289
1.35218
1.35143
1.35066
1.34987
1.34905
1.34821
1.34735
1.34647
1.34558
1.34468
1.34377
1.34286
1.34194
1.34101
1.34009
1.33917
1.33826
1.33735
1.33646
1.33557
1.33469
1.33382
1.33297
1.33214
1.33132
1.33051
1.32972
1.32895
1.3282
1.32747
1.32675
1.32606
1.32538
1.32472
1.32407
1.32345
1.32284
1.32225
1.32168
1.32112
1.32057
1.32005
1.31954
1.31904
1.31856
1.31809
1.31763
1.31718
1.31675
1.31633
1.31592
1.31552
1.31514
1.31476
1.31439
1.31404
1.31369
1.31335
1.31303
1.31271
1.3124
1.3121
1.31181
1.31153
1.31126
1.31099
1.31074
1.31049
1.31025
1.31002
1.30979
1.30957
1.30936
1.30916
1.30896
1.30878
1.30859
1.30842
1.30824
1.30808
1.30793
1.30778
1.30764
1.30751
1.30739
1.30727
1.30717
1.30709
1.307
1.30691
1.30691
1.30689
1.30674
1.30673
1.30698
1.3068
1.30632
1.30675
1.30744
1.30577
1.30434
1.30701
1.3065
1.29674
1.29135
1.33379
1.33479
1.33401
1.33326
1.33324
1.33266
1.33194
1.33147
1.33093
1.33028
1.32971
1.32916
1.32857
1.32801
1.32748
1.32694
1.32642
1.32593
1.32544
1.32498
1.32453
1.3241
1.32369
1.32329
1.32292
1.32256
1.32221
1.32189
1.32158
1.32129
1.32102
1.32076
1.32052
1.3203
1.3201
1.31991
1.31973
1.31958
1.31943
1.31931
1.31919
1.3191
1.31901
1.31894
1.31889
1.31885
1.31882
1.3188
1.3188
1.31881
1.31884
1.31888
1.31894
1.31901
1.31909
1.31919
1.3193
1.31943
1.31958
1.31975
1.31993
1.32013
1.32035
1.32059
1.32085
1.32114
1.32144
1.32177
1.32212
1.3225
1.32291
1.32334
1.3238
1.32429
1.32481
1.32536
1.32594
1.32655
1.32719
1.32787
1.32856
1.3293
1.33005
1.33084
1.33165
1.33249
1.33335
1.33423
1.33514
1.33606
1.337
1.33795
1.33891
1.33989
1.34087
1.34185
1.34283
1.34382
1.34479
1.34576
1.34672
1.34767
1.3486
1.34951
1.3504
1.35127
1.35211
1.35292
1.35371
1.35446
1.35518
1.35587
1.35652
1.35714
1.35772
1.35827
1.35879
1.35927
1.35971
1.36012
1.3605
1.36085
1.36117
1.36147
1.36173
1.36197
1.36218
1.36238
1.36255
1.3627
1.36284
1.36296
1.36306
1.36315
1.36322
1.36329
1.36335
1.36339
1.36343
1.36346
1.36348
1.3635
1.36351
1.36352
1.36353
1.36353
1.36352
1.36352
1.36351
1.3635
1.36349
1.36348
1.36347
1.36346
1.36344
1.36343
1.36341
1.3634
1.36338
1.36337
1.36335
1.36334
1.36333
1.36332
1.36331
1.3633
1.36329
1.36329
1.36328
1.36328
1.36328
1.36328
1.36328
1.36328
1.36329
1.36329
1.3633
1.36331
1.36331
1.36332
1.36333
1.36334
1.36335
1.36337
1.36338
1.36339
1.3634
1.36342
1.36343
1.36345
1.36347
1.36348
1.3635
1.36352
1.36354
1.36356
1.36358
1.3636
1.36362
1.36364
1.36366
1.36369
1.36371
1.36373
1.36375
1.36377
1.36379
1.36381
1.36383
1.36385
1.36386
1.36388
1.3639
1.36391
1.36393
1.36394
1.36395
1.36396
1.36397
1.36398
1.36399
1.364
1.36401
1.36401
1.36402
1.36403
1.36403
1.36404
1.36404
1.36405
1.36405
1.36406
1.36406
1.36406
1.36406
1.36406
1.36405
1.36405
1.36404
1.36403
1.36401
1.36399
1.36397
1.36394
1.36391
1.36388
1.36384
1.36379
1.36374
1.36369
1.36363
1.36357
1.3635
1.36343
1.36335
1.36327
1.36319
1.3631
1.363
1.36291
1.36281
1.3627
1.36259
1.36248
1.36237
1.36225
1.36213
1.362
1.36187
1.36173
1.36158
1.36143
1.36127
1.3611
1.36092
1.36073
1.36052
1.3603
1.36007
1.35981
1.35954
1.35924
1.35893
1.35858
1.35822
1.35782
1.35739
1.35694
1.35645
1.35593
1.35538
1.35479
1.35418
1.35353
1.35285
1.35213
1.35139
1.35063
1.34983
1.34902
1.34818
1.34732
1.34645
1.34556
1.34467
1.34376
1.34285
1.34193
1.34101
1.3401
1.33918
1.33827
1.33737
1.33647
1.33558
1.33471
1.33385
1.333
1.33217
1.33135
1.33055
1.32976
1.32899
1.32824
1.32751
1.3268
1.3261
1.32542
1.32477
1.32412
1.3235
1.32289
1.3223
1.32173
1.32117
1.32063
1.3201
1.31959
1.31909
1.3186
1.31813
1.31768
1.31723
1.3168
1.31638
1.31597
1.31557
1.31518
1.3148
1.31443
1.31408
1.31373
1.31339
1.31306
1.31274
1.31243
1.31213
1.31184
1.31156
1.31128
1.31102
1.31076
1.31051
1.31027
1.31003
1.30981
1.30959
1.30938
1.30917
1.30897
1.30878
1.30859
1.30841
1.30824
1.30807
1.30792
1.30776
1.30761
1.30748
1.30736
1.30723
1.30711
1.30703
1.30697
1.30683
1.30675
1.30684
1.30673
1.30643
1.30666
1.30704
1.30619
1.30562
1.30748
1.30716
1.30243
1.30446
1.31129
1.29901
1.28695
1.33422
1.33425
1.3341
1.33384
1.33329
1.33262
1.33216
1.33159
1.33094
1.33036
1.32979
1.32919
1.32861
1.32805
1.3275
1.32696
1.32645
1.32595
1.32546
1.325
1.32455
1.32412
1.3237
1.32331
1.32293
1.32257
1.32223
1.32191
1.3216
1.32131
1.32104
1.32078
1.32055
1.32032
1.32012
1.31993
1.31976
1.3196
1.31946
1.31933
1.31922
1.31912
1.31904
1.31897
1.31891
1.31887
1.31884
1.31883
1.31882
1.31884
1.31886
1.3189
1.31896
1.31902
1.31911
1.31921
1.31932
1.31945
1.31959
1.31976
1.31994
1.32014
1.32035
1.32059
1.32085
1.32113
1.32143
1.32176
1.32211
1.32249
1.32289
1.32332
1.32378
1.32427
1.32478
1.32533
1.32591
1.32651
1.32715
1.32782
1.32851
1.32924
1.33
1.33078
1.33159
1.33243
1.33329
1.33417
1.33507
1.33599
1.33693
1.33788
1.33885
1.33982
1.3408
1.34179
1.34277
1.34376
1.34474
1.34571
1.34667
1.34762
1.34855
1.34947
1.35036
1.35123
1.35208
1.3529
1.35369
1.35444
1.35517
1.35586
1.35652
1.35714
1.35773
1.35828
1.35879
1.35928
1.35972
1.36014
1.36052
1.36087
1.36119
1.36148
1.36174
1.36198
1.3622
1.36239
1.36256
1.36271
1.36284
1.36296
1.36306
1.36315
1.36323
1.36329
1.36335
1.36339
1.36343
1.36346
1.36348
1.3635
1.36351
1.36352
1.36352
1.36352
1.36352
1.36352
1.36351
1.3635
1.36349
1.36348
1.36346
1.36345
1.36343
1.36342
1.36341
1.36339
1.36338
1.36336
1.36335
1.36334
1.36332
1.36331
1.3633
1.3633
1.36329
1.36328
1.36328
1.36328
1.36328
1.36328
1.36328
1.36328
1.36328
1.36329
1.36329
1.3633
1.36331
1.36332
1.36333
1.36334
1.36335
1.36336
1.36337
1.36339
1.3634
1.36341
1.36343
1.36344
1.36346
1.36348
1.36349
1.36351
1.36353
1.36355
1.36357
1.36359
1.36361
1.36363
1.36365
1.36367
1.36369
1.36372
1.36374
1.36376
1.36378
1.3638
1.36382
1.36383
1.36385
1.36387
1.36388
1.3639
1.36391
1.36393
1.36394
1.36395
1.36396
1.36397
1.36398
1.36398
1.36399
1.364
1.36401
1.36401
1.36402
1.36403
1.36403
1.36404
1.36404
1.36404
1.36405
1.36405
1.36405
1.36404
1.36404
1.36403
1.36402
1.36401
1.364
1.36398
1.36395
1.36393
1.3639
1.36386
1.36382
1.36378
1.36373
1.36367
1.36362
1.36355
1.36348
1.36341
1.36333
1.36325
1.36317
1.36308
1.36298
1.36288
1.36278
1.36268
1.36257
1.36246
1.36234
1.36222
1.36209
1.36196
1.36183
1.36169
1.36154
1.36139
1.36123
1.36106
1.36088
1.36068
1.36048
1.36026
1.36002
1.35977
1.35949
1.3592
1.35888
1.35854
1.35817
1.35777
1.35735
1.35689
1.3564
1.35588
1.35533
1.35474
1.35413
1.35348
1.35279
1.35208
1.35134
1.35057
1.34978
1.34897
1.34813
1.34727
1.3464
1.34552
1.34462
1.34372
1.34281
1.34189
1.34098
1.34006
1.33915
1.33824
1.33734
1.33645
1.33557
1.3347
1.33384
1.33299
1.33216
1.33135
1.33055
1.32977
1.32901
1.32826
1.32753
1.32682
1.32613
1.32545
1.3248
1.32416
1.32353
1.32293
1.32234
1.32177
1.32121
1.32067
1.32014
1.31963
1.31913
1.31865
1.31818
1.31772
1.31728
1.31684
1.31642
1.31601
1.31561
1.31523
1.31485
1.31448
1.31412
1.31377
1.31343
1.31311
1.31279
1.31248
1.31217
1.31188
1.3116
1.31132
1.31105
1.3108
1.31054
1.3103
1.31007
1.30984
1.30962
1.3094
1.30919
1.30899
1.3088
1.30861
1.30843
1.30826
1.30809
1.30792
1.30777
1.30763
1.30748
1.30734
1.30724
1.30713
1.30699
1.30692
1.3069
1.30676
1.3066
1.30676
1.30682
1.30631
1.30632
1.30721
1.3066
1.30493
1.30659
1.30827
1.30359
1.30157
1.30695
1.30762
1.335
1.33465
1.33448
1.33411
1.33336
1.33281
1.33235
1.33164
1.331
1.33045
1.32983
1.3292
1.32864
1.32807
1.3275
1.32697
1.32645
1.32594
1.32545
1.32499
1.32454
1.32411
1.3237
1.3233
1.32293
1.32257
1.32223
1.3219
1.3216
1.32131
1.32104
1.32079
1.32055
1.32033
1.32013
1.31994
1.31977
1.31961
1.31947
1.31935
1.31923
1.31914
1.31905
1.31898
1.31893
1.31889
1.31886
1.31884
1.31884
1.31885
1.31888
1.31892
1.31897
1.31904
1.31912
1.31921
1.31933
1.31945
1.3196
1.31976
1.31994
1.32013
1.32035
1.32058
1.32084
1.32112
1.32141
1.32174
1.32209
1.32246
1.32286
1.32328
1.32374
1.32422
1.32473
1.32527
1.32585
1.32645
1.32708
1.32775
1.32844
1.32917
1.32992
1.3307
1.33151
1.33234
1.3332
1.33408
1.33498
1.33591
1.33684
1.3378
1.33876
1.33974
1.34072
1.34171
1.3427
1.34369
1.34467
1.34565
1.34661
1.34757
1.34851
1.34943
1.35033
1.35121
1.35206
1.35288
1.35368
1.35444
1.35517
1.35587
1.35653
1.35716
1.35775
1.3583
1.35882
1.3593
1.35975
1.36017
1.36055
1.3609
1.36121
1.36151
1.36177
1.36201
1.36222
1.36241
1.36258
1.36273
1.36286
1.36298
1.36307
1.36316
1.36324
1.3633
1.36335
1.3634
1.36343
1.36346
1.36348
1.3635
1.36351
1.36352
1.36352
1.36352
1.36352
1.36351
1.3635
1.36349
1.36348
1.36347
1.36346
1.36345
1.36343
1.36342
1.3634
1.36339
1.36337
1.36336
1.36335
1.36333
1.36332
1.36331
1.3633
1.3633
1.36329
1.36328
1.36328
1.36328
1.36328
1.36328
1.36328
1.36328
1.36328
1.36329
1.36329
1.3633
1.36331
1.36332
1.36333
1.36334
1.36335
1.36336
1.36337
1.36338
1.36339
1.36341
1.36342
1.36344
1.36345
1.36347
1.36349
1.3635
1.36352
1.36354
1.36356
1.36358
1.3636
1.36362
1.36364
1.36366
1.36368
1.36371
1.36373
1.36375
1.36377
1.36379
1.3638
1.36382
1.36384
1.36386
1.36387
1.36389
1.3639
1.36391
1.36392
1.36393
1.36394
1.36395
1.36396
1.36397
1.36398
1.36399
1.36399
1.364
1.36401
1.36401
1.36402
1.36402
1.36403
1.36403
1.36403
1.36403
1.36403
1.36403
1.36403
1.36402
1.36401
1.364
1.36398
1.36396
1.36394
1.36392
1.36388
1.36385
1.36381
1.36377
1.36372
1.36366
1.3636
1.36354
1.36347
1.3634
1.36332
1.36324
1.36315
1.36306
1.36296
1.36287
1.36276
1.36266
1.36255
1.36243
1.36232
1.36219
1.36207
1.36194
1.3618
1.36166
1.36152
1.36136
1.3612
1.36103
1.36084
1.36065
1.36044
1.36022
1.35998
1.35973
1.35946
1.35916
1.35884
1.35849
1.35812
1.35772
1.3573
1.35684
1.35635
1.35582
1.35527
1.35468
1.35406
1.3534
1.35272
1.352
1.35126
1.35049
1.3497
1.34888
1.34804
1.34718
1.34631
1.34543
1.34453
1.34363
1.34272
1.3418
1.34089
1.33998
1.33907
1.33816
1.33727
1.33638
1.3355
1.33463
1.33378
1.33294
1.33212
1.33131
1.33051
1.32974
1.32898
1.32824
1.32751
1.32681
1.32612
1.32545
1.3248
1.32417
1.32355
1.32295
1.32236
1.32179
1.32124
1.3207
1.32018
1.31967
1.31918
1.3187
1.31823
1.31777
1.31733
1.3169
1.31648
1.31607
1.31567
1.31528
1.3149
1.31454
1.31418
1.31383
1.31349
1.31317
1.31285
1.31254
1.31223
1.31194
1.31166
1.31138
1.31111
1.31085
1.3106
1.31036
1.31012
1.30989
1.30967
1.30946
1.30925
1.30905
1.30885
1.30866
1.30848
1.30831
1.30814
1.30798
1.30782
1.30767
1.30754
1.3074
1.30728
1.30719
1.30709
1.30695
1.30693
1.30695
1.30676
1.30665
1.30697
1.30693
1.3063
1.30678
1.30778
1.30627
1.30536
1.30875
1.30809
1.30321
1.30656
1.3091
1.33589
1.33544
1.33488
1.33422
1.33367
1.3331
1.33238
1.33171
1.33113
1.33047
1.32982
1.32923
1.32864
1.32804
1.32748
1.32694
1.32641
1.3259
1.32542
1.32495
1.3245
1.32407
1.32366
1.32327
1.32289
1.32254
1.3222
1.32188
1.32158
1.32129
1.32103
1.32078
1.32054
1.32033
1.32012
1.31994
1.31977
1.31962
1.31948
1.31935
1.31924
1.31914
1.31906
1.31899
1.31894
1.3189
1.31887
1.31885
1.31885
1.31886
1.31888
1.31892
1.31897
1.31904
1.31912
1.31921
1.31932
1.31945
1.31959
1.31975
1.31992
1.32012
1.32033
1.32056
1.32081
1.32109
1.32138
1.3217
1.32204
1.32241
1.32281
1.32323
1.32368
1.32416
1.32466
1.3252
1.32577
1.32637
1.327
1.32766
1.32835
1.32907
1.32982
1.33059
1.3314
1.33223
1.33309
1.33397
1.33487
1.3358
1.33674
1.33769
1.33866
1.33964
1.34062
1.34162
1.34261
1.3436
1.34459
1.34558
1.34655
1.34751
1.34846
1.34939
1.3503
1.35118
1.35204
1.35287
1.35368
1.35445
1.35519
1.35589
1.35656
1.35719
1.35778
1.35834
1.35886
1.35935
1.35979
1.36021
1.36059
1.36094
1.36126
1.36154
1.36181
1.36204
1.36225
1.36244
1.36261
1.36275
1.36288
1.363
1.36309
1.36318
1.36325
1.36331
1.36336
1.3634
1.36344
1.36346
1.36348
1.3635
1.36351
1.36352
1.36352
1.36352
1.36351
1.36351
1.3635
1.36349
1.36348
1.36347
1.36345
1.36344
1.36343
1.36341
1.3634
1.36338
1.36337
1.36336
1.36334
1.36333
1.36332
1.36331
1.3633
1.36329
1.36329
1.36328
1.36328
1.36328
1.36328
1.36328
1.36328
1.36328
1.36328
1.36329
1.36329
1.3633
1.36331
1.36332
1.36333
1.36334
1.36334
1.36336
1.36337
1.36338
1.36339
1.3634
1.36342
1.36343
1.36345
1.36346
1.36348
1.3635
1.36351
1.36353
1.36355
1.36357
1.36359
1.36361
1.36363
1.36365
1.36367
1.36369
1.36371
1.36374
1.36375
1.36377
1.36379
1.36381
1.36383
1.36384
1.36386
1.36387
1.36389
1.3639
1.36391
1.36392
1.36393
1.36394
1.36395
1.36396
1.36397
1.36398
1.36398
1.36399
1.364
1.364
1.36401
1.36401
1.36402
1.36402
1.36402
1.36402
1.36402
1.36402
1.36402
1.36401
1.364
1.36399
1.36397
1.36395
1.36393
1.36391
1.36387
1.36384
1.3638
1.36376
1.36371
1.36365
1.36359
1.36353
1.36346
1.36339
1.36331
1.36323
1.36314
1.36305
1.36295
1.36285
1.36275
1.36264
1.36253
1.36242
1.3623
1.36218
1.36205
1.36192
1.36178
1.36164
1.36149
1.36134
1.36118
1.361
1.36082
1.36063
1.36042
1.3602
1.35996
1.3597
1.35942
1.35913
1.3588
1.35846
1.35808
1.35768
1.35724
1.35678
1.35628
1.35575
1.35519
1.35459
1.35397
1.35331
1.35261
1.35189
1.35114
1.35037
1.34957
1.34874
1.3479
1.34704
1.34617
1.34528
1.34438
1.34348
1.34257
1.34166
1.34075
1.33984
1.33893
1.33803
1.33713
1.33625
1.33538
1.33451
1.33366
1.33283
1.33201
1.33121
1.33042
1.32966
1.3289
1.32817
1.32746
1.32676
1.32608
1.32542
1.32477
1.32414
1.32354
1.32294
1.32236
1.3218
1.32126
1.32072
1.32021
1.3197
1.31921
1.31874
1.31827
1.31782
1.31738
1.31695
1.31654
1.31613
1.31574
1.31535
1.31498
1.31461
1.31426
1.31391
1.31358
1.31325
1.31293
1.31262
1.31232
1.31203
1.31174
1.31147
1.3112
1.31094
1.31069
1.31045
1.31021
1.30998
1.30976
1.30955
1.30934
1.30914
1.30895
1.30876
1.30858
1.3084
1.30824
1.30808
1.30793
1.30778
1.30765
1.30754
1.30741
1.3073
1.30726
1.30719
1.30704
1.30706
1.30721
1.30702
1.30682
1.30738
1.3076
1.30665
1.30712
1.30896
1.3076
1.30593
1.30924
1.31109
1.30812
1.30782
1.33692
1.3361
1.33535
1.3346
1.33398
1.33324
1.33246
1.33183
1.33117
1.33045
1.32982
1.32921
1.32858
1.32799
1.32743
1.32687
1.32634
1.32584
1.32535
1.32488
1.32443
1.324
1.32359
1.3232
1.32283
1.32248
1.32215
1.32183
1.32154
1.32126
1.32099
1.32075
1.32052
1.3203
1.32011
1.31992
1.31976
1.31961
1.31947
1.31935
1.31924
1.31914
1.31906
1.31899
1.31894
1.3189
1.31887
1.31885
1.31885
1.31886
1.31889
1.31892
1.31897
1.31904
1.31911
1.31921
1.31931
1.31944
1.31957
1.31973
1.3199
1.32009
1.3203
1.32053
1.32077
1.32104
1.32134
1.32165
1.32199
1.32235
1.32274
1.32316
1.3236
1.32407
1.32457
1.32511
1.32567
1.32626
1.32689
1.32754
1.32823
1.32894
1.32969
1.33047
1.33127
1.3321
1.33296
1.33384
1.33474
1.33566
1.3366
1.33756
1.33853
1.33951
1.34051
1.3415
1.3425
1.3435
1.3445
1.34549
1.34647
1.34744
1.34839
1.34933
1.35025
1.35115
1.35202
1.35286
1.35367
1.35445
1.3552
1.35591
1.35658
1.35722
1.35782
1.35838
1.35891
1.3594
1.35985
1.36026
1.36064
1.36099
1.36131
1.36159
1.36185
1.36208
1.36229
1.36248
1.36264
1.36278
1.36291
1.36302
1.36312
1.3632
1.36326
1.36333
1.36337
1.36341
1.36344
1.36347
1.36349
1.3635
1.36351
1.36352
1.36352
1.36352
1.36351
1.36351
1.3635
1.36349
1.36348
1.36347
1.36345
1.36344
1.36342
1.36341
1.3634
1.36338
1.36337
1.36336
1.36334
1.36333
1.36332
1.36331
1.3633
1.3633
1.36329
1.36329
1.36328
1.36328
1.36328
1.36328
1.36328
1.36328
1.36329
1.36329
1.3633
1.36331
1.36331
1.36332
1.36333
1.36334
1.36335
1.36336
1.36337
1.36338
1.36339
1.3634
1.36342
1.36343
1.36344
1.36346
1.36347
1.36349
1.36351
1.36353
1.36354
1.36356
1.36358
1.3636
1.36362
1.36364
1.36366
1.36369
1.3637
1.36373
1.36374
1.36376
1.36378
1.3638
1.36382
1.36383
1.36385
1.36386
1.36388
1.36389
1.3639
1.36391
1.36392
1.36393
1.36394
1.36395
1.36396
1.36397
1.36397
1.36398
1.36399
1.36399
1.364
1.364
1.36401
1.36401
1.36401
1.36401
1.36401
1.36401
1.36401
1.364
1.36399
1.36398
1.36396
1.36395
1.36392
1.3639
1.36387
1.36383
1.36379
1.36375
1.3637
1.36364
1.36358
1.36352
1.36345
1.36338
1.3633
1.36321
1.36313
1.36304
1.36294
1.36284
1.36274
1.36263
1.36252
1.3624
1.36229
1.36217
1.36204
1.36191
1.36177
1.36163
1.36148
1.36133
1.36116
1.36099
1.36081
1.36061
1.3604
1.36018
1.35994
1.35968
1.3594
1.3591
1.35877
1.35842
1.35804
1.35763
1.35719
1.35671
1.35621
1.35567
1.3551
1.35449
1.35385
1.35318
1.35248
1.35175
1.35099
1.35021
1.3494
1.34857
1.34772
1.34685
1.34598
1.34509
1.34419
1.34328
1.34237
1.34146
1.34054
1.33963
1.33873
1.33783
1.33694
1.33606
1.33519
1.33433
1.33349
1.33266
1.33186
1.33106
1.33028
1.32952
1.32878
1.32806
1.32735
1.32667
1.326
1.32534
1.32471
1.32409
1.32349
1.32291
1.32234
1.32179
1.32125
1.32073
1.32022
1.31973
1.31925
1.31878
1.31832
1.31788
1.31744
1.31702
1.31661
1.31621
1.31582
1.31544
1.31507
1.31471
1.31436
1.31401
1.31368
1.31336
1.31304
1.31274
1.31244
1.31215
1.31187
1.31159
1.31133
1.31107
1.31082
1.31058
1.31035
1.31012
1.3099
1.30969
1.30948
1.30928
1.30909
1.30891
1.30873
1.30856
1.3084
1.30825
1.30811
1.30797
1.30784
1.30774
1.30766
1.30755
1.30747
1.30749
1.30745
1.30732
1.30744
1.30768
1.30747
1.30742
1.30825
1.30834
1.30753
1.30876
1.31027
1.30891
1.30915
1.31171
1.31201
1.3127
1.33794
1.33668
1.33586
1.33504
1.33417
1.33335
1.33263
1.3319
1.33113
1.33045
1.3298
1.32913
1.3285
1.32791
1.32733
1.32677
1.32624
1.32573
1.32524
1.32477
1.32433
1.3239
1.3235
1.32311
1.32275
1.3224
1.32208
1.32177
1.32147
1.3212
1.32094
1.3207
1.32048
1.32027
1.32007
1.3199
1.31973
1.31959
1.31945
1.31933
1.31923
1.31913
1.31906
1.31899
1.31894
1.31889
1.31887
1.31885
1.31885
1.31886
1.31888
1.31892
1.31896
1.31903
1.3191
1.31919
1.3193
1.31942
1.31955
1.3197
1.31987
1.32006
1.32026
1.32048
1.32073
1.32099
1.32128
1.32159
1.32192
1.32227
1.32266
1.32307
1.32351
1.32397
1.32447
1.32499
1.32555
1.32614
1.32676
1.3274
1.32809
1.3288
1.32954
1.33031
1.33111
1.33194
1.3328
1.33367
1.33458
1.3355
1.33644
1.3374
1.33838
1.33936
1.34036
1.34136
1.34237
1.34337
1.34438
1.34538
1.34637
1.34735
1.34832
1.34926
1.3502
1.3511
1.35198
1.35284
1.35366
1.35445
1.35521
1.35593
1.35662
1.35726
1.35787
1.35843
1.35896
1.35945
1.35991
1.36032
1.3607
1.36105
1.36136
1.36165
1.3619
1.36213
1.36234
1.36252
1.36268
1.36282
1.36294
1.36305
1.36314
1.36322
1.36328
1.36334
1.36339
1.36343
1.36345
1.36348
1.3635
1.36351
1.36352
1.36352
1.36352
1.36352
1.36351
1.36351
1.3635
1.36349
1.36348
1.36346
1.36345
1.36344
1.36342
1.36341
1.3634
1.36338
1.36337
1.36336
1.36334
1.36333
1.36332
1.36331
1.36331
1.3633
1.36329
1.36329
1.36329
1.36329
1.36328
1.36329
1.36329
1.36329
1.36329
1.3633
1.3633
1.36331
1.36332
1.36333
1.36333
1.36334
1.36335
1.36336
1.36337
1.36338
1.36339
1.3634
1.36342
1.36343
1.36344
1.36346
1.36347
1.36349
1.36351
1.36352
1.36354
1.36356
1.36358
1.3636
1.36362
1.36364
1.36366
1.36368
1.3637
1.36372
1.36374
1.36376
1.36377
1.36379
1.36381
1.36383
1.36384
1.36386
1.36387
1.36388
1.36389
1.3639
1.36391
1.36392
1.36393
1.36394
1.36395
1.36396
1.36396
1.36397
1.36398
1.36399
1.36399
1.364
1.364
1.364
1.36401
1.36401
1.36401
1.364
1.364
1.36399
1.36398
1.36397
1.36396
1.36394
1.36392
1.36389
1.36386
1.36382
1.36378
1.36374
1.36369
1.36363
1.36358
1.36351
1.36344
1.36337
1.36329
1.36321
1.36312
1.36303
1.36293
1.36283
1.36273
1.36262
1.36251
1.3624
1.36228
1.36216
1.36203
1.3619
1.36177
1.36162
1.36148
1.36132
1.36116
1.36099
1.3608
1.3606
1.3604
1.36017
1.35993
1.35966
1.35938
1.35907
1.35874
1.35838
1.35799
1.35757
1.35712
1.35664
1.35612
1.35557
1.35499
1.35437
1.35372
1.35303
1.35232
1.35158
1.35081
1.35001
1.34919
1.34835
1.3475
1.34662
1.34574
1.34484
1.34394
1.34303
1.34212
1.34121
1.34029
1.33938
1.33848
1.33758
1.3367
1.33582
1.33496
1.3341
1.33327
1.33245
1.33164
1.33086
1.33009
1.32934
1.32861
1.3279
1.3272
1.32653
1.32587
1.32523
1.32461
1.32401
1.32342
1.32285
1.3223
1.32176
1.32123
1.32072
1.32023
1.31974
1.31927
1.31881
1.31837
1.31793
1.31751
1.3171
1.31669
1.3163
1.31592
1.31554
1.31518
1.31483
1.31448
1.31414
1.31382
1.3135
1.31319
1.31288
1.31259
1.3123
1.31203
1.31176
1.3115
1.31124
1.311
1.31076
1.31053
1.3103
1.31009
1.30988
1.30968
1.30948
1.3093
1.30912
1.30895
1.30878
1.30863
1.30848
1.30835
1.30824
1.30813
1.30801
1.30795
1.30792
1.30783
1.30779
1.30791
1.30794
1.3078
1.30806
1.30851
1.30826
1.30827
1.30953
1.30979
1.30893
1.3104
1.31253
1.312
1.31203
1.31487
1.31694
1.33877
1.33729
1.3363
1.33532
1.33434
1.3335
1.33269
1.33186
1.3311
1.3304
1.32969
1.32901
1.32839
1.32778
1.32718
1.32663
1.3261
1.32558
1.3251
1.32464
1.3242
1.32377
1.32338
1.323
1.32264
1.3223
1.32198
1.32168
1.32139
1.32112
1.32087
1.32064
1.32042
1.32022
1.32003
1.31986
1.3197
1.31956
1.31943
1.31931
1.31921
1.31912
1.31904
1.31898
1.31893
1.31889
1.31886
1.31884
1.31884
1.31885
1.31887
1.31891
1.31895
1.31901
1.31909
1.31917
1.31928
1.31939
1.31952
1.31967
1.31984
1.32002
1.32022
1.32043
1.32067
1.32093
1.32121
1.32151
1.32184
1.32219
1.32257
1.32297
1.3234
1.32386
1.32435
1.32486
1.32541
1.32599
1.3266
1.32725
1.32792
1.32863
1.32936
1.33013
1.33093
1.33175
1.33261
1.33348
1.33439
1.33531
1.33625
1.33722
1.3382
1.33918
1.34018
1.34119
1.3422
1.34322
1.34423
1.34524
1.34624
1.34724
1.34822
1.34918
1.35012
1.35104
1.35194
1.3528
1.35364
1.35445
1.35522
1.35595
1.35664
1.3573
1.35791
1.35849
1.35902
1.35951
1.35997
1.36039
1.36077
1.36111
1.36143
1.36171
1.36196
1.36219
1.36239
1.36257
1.36272
1.36286
1.36298
1.36308
1.36317
1.36324
1.36331
1.36336
1.3634
1.36344
1.36347
1.36349
1.36351
1.36352
1.36352
1.36353
1.36353
1.36352
1.36352
1.36351
1.3635
1.36349
1.36348
1.36347
1.36345
1.36344
1.36343
1.36341
1.3634
1.36339
1.36337
1.36336
1.36335
1.36334
1.36333
1.36332
1.36331
1.36331
1.3633
1.3633
1.36329
1.36329
1.36329
1.36329
1.3633
1.3633
1.3633
1.36331
1.36331
1.36332
1.36333
1.36333
1.36334
1.36335
1.36336
1.36337
1.36338
1.36339
1.3634
1.36341
1.36342
1.36343
1.36345
1.36346
1.36347
1.36349
1.36351
1.36352
1.36354
1.36356
1.36358
1.3636
1.36361
1.36364
1.36365
1.36368
1.36369
1.36371
1.36373
1.36375
1.36377
1.36379
1.3638
1.36382
1.36383
1.36385
1.36386
1.36388
1.36389
1.3639
1.36391
1.36392
1.36393
1.36394
1.36394
1.36395
1.36396
1.36397
1.36397
1.36398
1.36399
1.36399
1.364
1.364
1.364
1.364
1.364
1.364
1.36399
1.36399
1.36398
1.36397
1.36395
1.36393
1.36391
1.36388
1.36385
1.36382
1.36378
1.36373
1.36368
1.36363
1.36357
1.3635
1.36344
1.36336
1.36328
1.3632
1.36311
1.36302
1.36293
1.36283
1.36272
1.36262
1.36251
1.3624
1.36228
1.36216
1.36203
1.3619
1.36177
1.36163
1.36148
1.36132
1.36116
1.36099
1.3608
1.36061
1.3604
1.36017
1.35992
1.35966
1.35937
1.35905
1.35871
1.35835
1.35795
1.35752
1.35706
1.35656
1.35603
1.35546
1.35486
1.35423
1.35356
1.35286
1.35213
1.35137
1.35059
1.34978
1.34895
1.3481
1.34723
1.34635
1.34547
1.34456
1.34365
1.34274
1.34183
1.34091
1.34
1.33909
1.33819
1.33729
1.33641
1.33553
1.33468
1.33383
1.333
1.33219
1.33139
1.33061
1.32986
1.32912
1.3284
1.3277
1.32702
1.32635
1.32572
1.32509
1.32448
1.32389
1.32333
1.32277
1.32223
1.3217
1.32119
1.3207
1.32022
1.31975
1.31929
1.31884
1.31841
1.31799
1.31758
1.31717
1.31678
1.3164
1.31603
1.31567
1.31531
1.31496
1.31463
1.3143
1.31398
1.31367
1.31336
1.31307
1.31278
1.3125
1.31223
1.31196
1.31171
1.31146
1.31122
1.31098
1.31076
1.31053
1.31032
1.31012
1.30993
1.30974
1.30956
1.30938
1.30922
1.30906
1.30892
1.30879
1.30867
1.30856
1.30848
1.3084
1.30832
1.30831
1.30834
1.30829
1.30831
1.30854
1.30863
1.30856
1.30902
1.30958
1.30938
1.30976
1.31116
1.31146
1.31139
1.31298
1.31456
1.31542
1.31677
1.31839
1.33937
1.33775
1.33662
1.33549
1.33449
1.33357
1.33264
1.3318
1.33103
1.33027
1.32953
1.32887
1.32822
1.32759
1.32701
1.32645
1.32591
1.32541
1.32493
1.32447
1.32403
1.32362
1.32323
1.32286
1.32251
1.32218
1.32187
1.32157
1.3213
1.32104
1.32079
1.32057
1.32036
1.32016
1.31998
1.31981
1.31966
1.31952
1.3194
1.31929
1.31919
1.3191
1.31903
1.31896
1.31891
1.31887
1.31885
1.31883
1.31883
1.31884
1.31886
1.31889
1.31894
1.319
1.31907
1.31915
1.31925
1.31936
1.31949
1.31964
1.31979
1.31997
1.32017
1.32038
1.32061
1.32086
1.32113
1.32143
1.32174
1.32209
1.32246
1.32285
1.32328
1.32373
1.3242
1.32471
1.32526
1.32582
1.32643
1.32707
1.32773
1.32843
1.32917
1.32992
1.33072
1.33154
1.33239
1.33326
1.33417
1.33509
1.33603
1.337
1.33798
1.33897
1.33998
1.34099
1.34201
1.34304
1.34406
1.34508
1.34609
1.34709
1.34809
1.34906
1.35002
1.35096
1.35187
1.35275
1.35361
1.35443
1.35521
1.35596
1.35666
1.35733
1.35796
1.35854
1.35908
1.35958
1.36004
1.36045
1.36083
1.36118
1.36149
1.36177
1.36202
1.36225
1.36244
1.36262
1.36277
1.3629
1.36301
1.36312
1.3632
1.36327
1.36333
1.36338
1.36342
1.36346
1.36348
1.3635
1.36352
1.36353
1.36353
1.36353
1.36353
1.36353
1.36352
1.36352
1.36351
1.3635
1.36348
1.36347
1.36346
1.36345
1.36343
1.36342
1.36341
1.36339
1.36338
1.36337
1.36336
1.36335
1.36334
1.36333
1.36332
1.36332
1.36331
1.36331
1.36331
1.36331
1.36331
1.36331
1.36331
1.36331
1.36332
1.36332
1.36333
1.36333
1.36334
1.36335
1.36335
1.36336
1.36337
1.36338