# vtk DataFile Version 2.0
LBE two cylinders
ASCII
DATASET STRUCTURED_POINTS
DIMENSIONS 400 100 1
ASPECT_RATIO 1 1 1
ORIGIN 0 0 0
POINT_DATA 40000
SCALARS rho double 1
LOOKUP_TABLE default
1.3386
1.33587
1.33614
1.33616
1.33522
1.33469
1.33436
1.33367
1.33304
1.33249
1.33188
1.33124
1.33065
1.33007
1.32947
1.32891
1.32835
1.32781
1.32729
1.32679
1.3263
1.32584
1.32539
1.32496
1.32456
1.32417
1.3238
1.32345
1.32312
1.32281
1.32251
1.32224
1.32198
1.32175
1.32152
1.32132
1.32113
1.32096
1.32081
1.32067
1.32055
1.32045
1.32036
1.32028
1.32023
1.32018
1.32016
1.32015
1.32015
1.32017
1.32021
1.32027
1.32034
1.32043
1.32053
1.32066
1.3208
1.32096
1.32114
1.32134
1.32156
1.3218
1.32207
1.32235
1.32266
1.32299
1.32334
1.32372
1.32412
1.32455
1.325
1.32548
1.32599
1.32653
1.32709
1.32768
1.3283
1.32894
1.32962
1.33032
1.33104
1.3318
1.33258
1.33338
1.33421
1.33507
1.33594
1.33683
1.33774
1.33867
1.33962
1.34057
1.34154
1.34251
1.34348
1.34447
1.34545
1.34642
1.3474
1.34836
1.34931
1.35025
1.35118
1.35208
1.35297
1.35383
1.35467
1.35548
1.35626
1.35701
1.35772
1.35841
1.35906
1.35968
1.36026
1.36081
1.36132
1.3618
1.36224
1.36266
1.36304
1.36339
1.36371
1.36401
1.36428
1.36452
1.36474
1.36494
1.36512
1.36528
1.36542
1.36555
1.36566
1.36576
1.36584
1.36592
1.36598
1.36604
1.36609
1.36613
1.36617
1.3662
1.36622
1.36624
1.36626
1.36627
1.36628
1.36629
1.3663
1.3663
1.3663
1.3663
1.3663
1.3663
1.3663
1.3663
1.3663
1.3663
1.36629
1.36629
1.36629
1.36628
1.36628
1.36628
1.36627
1.36627
1.36627
1.36627
1.36626
1.36626
1.36626
1.36626
1.36626
1.36625
1.36625
1.36625
1.36625
1.36625
1.36625
1.36625
1.36625
1.36625
1.36626
1.36626
1.36626
1.36626
1.36627
1.36627
1.36628
1.36628
1.36629
1.36629
1.3663
1.36631
1.36632
1.36633
1.36634
1.36635
1.36636
1.36637
1.36638
1.3664
1.36641
1.36643
1.36645
1.36647
1.36648
1.3665
1.36652
1.36655
1.36657
1.36659
1.36662
1.36664
1.36667
1.36669
1.36672
1.36675
1.36677
1.3668
1.36683
1.36686
1.36688
1.36691
1.36694
1.36696
1.36699
1.36701
1.36703
1.36705
1.36707
1.36709
1.3671
1.36711
1.36712
1.36712
1.36712
1.36712
1.36711
1.3671
1.36708
1.36705
1.36703
1.36699
1.36695
1.36691
1.36686
1.3668
1.36673
1.36667
1.36659
1.36651
1.36642
1.36633
1.36623
1.36613
1.36602
1.36591
1.3658
1.36568
1.36555
1.36542
1.36529
1.36515
1.36501
1.36487
1.36472
1.36457
1.36441
1.36424
1.36407
1.3639
1.36371
1.36352
1.36331
1.3631
1.36287
1.36263
1.36237
1.3621
1.3618
1.36149
1.36115
1.36079
1.3604
1.35998
1.35954
1.35906
1.35856
1.35802
1.35745
1.35685
1.35621
1.35555
1.35485
1.35413
1.35338
1.3526
1.35179
1.35097
1.35012
1.34926
1.34838
1.34749
1.34659
1.34568
1.34476
1.34384
1.34292
1.342
1.34108
1.34017
1.33926
1.33836
1.33747
1.33659
1.33571
1.33486
1.33401
1.33318
1.33236
1.33156
1.33077
1.33
1.32925
1.32851
1.32779
1.32708
1.32639
1.32572
1.32507
1.32443
1.32381
1.32321
1.32262
1.32205
1.32149
1.32095
1.32042
1.31991
1.31941
1.31893
1.31847
1.31801
1.31757
1.31714
1.31673
1.31633
1.31594
1.31557
1.3152
1.31485
1.31451
1.31418
1.31386
1.31356
1.31326
1.31298
1.3127
1.31244
1.31219
1.31194
1.31171
1.31149
1.31127
1.31107
1.31087
1.31069
1.31051
1.31034
1.31018
1.31004
1.30989
1.30976
1.30964
1.30953
1.30943
1.30934
1.30925
1.30917
1.30912
1.30907
1.309
1.30897
1.30901
1.30897
1.30887
1.30902
1.30919
1.30885
1.30873
1.30967
1.30956
1.30751
1.30848
1.31236
1.30775
1.29903
1.30956
1.31862
1.33672
1.33686
1.33637
1.33569
1.33538
1.33489
1.33429
1.3337
1.33315
1.33252
1.33191
1.33131
1.33071
1.33011
1.32953
1.32896
1.3284
1.32786
1.32734
1.32683
1.32635
1.32588
1.32543
1.325
1.3246
1.32421
1.32384
1.32349
1.32315
1.32284
1.32255
1.32227
1.32202
1.32178
1.32156
1.32135
1.32116
1.32099
1.32084
1.3207
1.32058
1.32047
1.32038
1.32031
1.32025
1.32021
1.32018
1.32017
1.32018
1.3202
1.32024
1.32029
1.32036
1.32045
1.32055
1.32068
1.32082
1.32098
1.32116
1.32136
1.32158
1.32182
1.32208
1.32236
1.32267
1.323
1.32335
1.32373
1.32413
1.32455
1.32501
1.32548
1.32599
1.32652
1.32708
1.32767
1.32829
1.32893
1.3296
1.3303
1.33102
1.33177
1.33255
1.33335
1.33418
1.33503
1.3359
1.33679
1.3377
1.33863
1.33957
1.34052
1.34148
1.34245
1.34343
1.34441
1.34538
1.34636
1.34733
1.3483
1.34925
1.35019
1.35111
1.35202
1.3529
1.35377
1.3546
1.35541
1.35619
1.35695
1.35767
1.35835
1.35901
1.35962
1.36021
1.36076
1.36128
1.36176
1.3622
1.36262
1.36301
1.36336
1.36368
1.36398
1.36425
1.3645
1.36472
1.36492
1.3651
1.36526
1.3654
1.36553
1.36565
1.36574
1.36583
1.36591
1.36597
1.36603
1.36608
1.36612
1.36616
1.36619
1.36622
1.36624
1.36625
1.36627
1.36628
1.36629
1.36629
1.3663
1.3663
1.3663
1.3663
1.3663
1.3663
1.3663
1.3663
1.36629
1.36629
1.36629
1.36628
1.36628
1.36628
1.36627
1.36627
1.36627
1.36626
1.36626
1.36626
1.36626
1.36625
1.36625
1.36625
1.36625
1.36625
1.36625
1.36625
1.36625
1.36625
1.36625
1.36625
1.36625
1.36625
1.36625
1.36625
1.36626
1.36626
1.36626
1.36627
1.36627
1.36628
1.36629
1.36629
1.3663
1.36631
1.36632
1.36633
1.36634
1.36635
1.36636
1.36637
1.36639
1.3664
1.36642
1.36644
1.36645
1.36647
1.36649
1.36651
1.36653
1.36655
1.36658
1.3666
1.36662
1.36665
1.36668
1.3667
1.36673
1.36675
1.36678
1.36681
1.36684
1.36686
1.36689
1.36691
1.36694
1.36696
1.36699
1.36701
1.36703
1.36705
1.36706
1.36707
1.36708
1.36709
1.36709
1.36709
1.36709
1.36708
1.36707
1.36705
1.36703
1.367
1.36696
1.36692
1.36688
1.36683
1.36677
1.36671
1.36664
1.36656
1.36648
1.36639
1.3663
1.3662
1.3661
1.36599
1.36588
1.36576
1.36564
1.36551
1.36538
1.36525
1.36511
1.36497
1.36482
1.36467
1.36452
1.36436
1.36419
1.36402
1.36384
1.36365
1.36345
1.36325
1.36303
1.3628
1.36256
1.3623
1.36202
1.36172
1.36141
1.36107
1.36071
1.36032
1.3599
1.35946
1.35898
1.35848
1.35794
1.35737
1.35678
1.35614
1.35548
1.35479
1.35407
1.35332
1.35255
1.35175
1.35093
1.35009
1.34923
1.34836
1.34747
1.34657
1.34567
1.34476
1.34384
1.34293
1.34201
1.3411
1.34019
1.33928
1.33838
1.33749
1.33662
1.33575
1.33489
1.33405
1.33322
1.3324
1.3316
1.33082
1.33005
1.32929
1.32856
1.32784
1.32713
1.32644
1.32577
1.32512
1.32448
1.32386
1.32326
1.32267
1.32209
1.32154
1.32099
1.32047
1.31995
1.31946
1.31897
1.3185
1.31805
1.31761
1.31718
1.31676
1.31636
1.31597
1.31559
1.31523
1.31488
1.31453
1.3142
1.31388
1.31358
1.31328
1.31299
1.31272
1.31245
1.3122
1.31195
1.31172
1.31149
1.31127
1.31107
1.31087
1.31068
1.3105
1.31033
1.31017
1.31002
1.30987
1.30974
1.30961
1.3095
1.30939
1.30929
1.3092
1.30912
1.30904
1.30899
1.30895
1.30889
1.30883
1.30886
1.30886
1.30874
1.30873
1.30899
1.30882
1.30833
1.30875
1.30942
1.30771
1.30623
1.30888
1.30832
1.29846
1.29299
1.33605
1.33703
1.33632
1.3356
1.33558
1.335
1.33428
1.33379
1.33323
1.33256
1.33195
1.33137
1.33074
1.33014
1.32956
1.32899
1.32843
1.32789
1.32736
1.32686
1.32637
1.3259
1.32545
1.32502
1.32461
1.32422
1.32385
1.3235
1.32317
1.32286
1.32256
1.32229
1.32203
1.32179
1.32157
1.32136
1.32117
1.321
1.32085
1.32071
1.32059
1.32048
1.32039
1.32032
1.32026
1.32022
1.32019
1.32018
1.32018
1.3202
1.32024
1.32029
1.32037
1.32045
1.32056
1.32068
1.32082
1.32098
1.32116
1.32136
1.32157
1.32181
1.32207
1.32235
1.32266
1.32298
1.32333
1.32371
1.32411
1.32453
1.32498
1.32546
1.32596
1.32649
1.32705
1.32763
1.32825
1.32888
1.32955
1.33025
1.33097
1.33172
1.3325
1.3333
1.33412
1.33497
1.33584
1.33673
1.33763
1.33856
1.3395
1.34045
1.34141
1.34238
1.34336
1.34434
1.34532
1.34629
1.34727
1.34823
1.34919
1.35013
1.35105
1.35196
1.35285
1.35372
1.35456
1.35537
1.35615
1.35691
1.35763
1.35832
1.35898
1.3596
1.36019
1.36074
1.36126
1.36174
1.36219
1.36261
1.363
1.36335
1.36368
1.36398
1.36425
1.3645
1.36472
1.36492
1.3651
1.36526
1.36541
1.36553
1.36565
1.36575
1.36583
1.36591
1.36598
1.36603
1.36608
1.36612
1.36616
1.36619
1.36622
1.36624
1.36625
1.36627
1.36628
1.36628
1.36629
1.36629
1.3663
1.3663
1.3663
1.3663
1.3663
1.36629
1.36629
1.36629
1.36629
1.36628
1.36628
1.36628
1.36627
1.36627
1.36627
1.36626
1.36626
1.36626
1.36625
1.36625
1.36625
1.36625
1.36625
1.36624
1.36624
1.36624
1.36624
1.36624
1.36624
1.36624
1.36624
1.36624
1.36624
1.36625
1.36625
1.36625
1.36625
1.36626
1.36626
1.36627
1.36627
1.36628
1.36628
1.36629
1.3663
1.36631
1.36632
1.36633
1.36634
1.36635
1.36636
1.36638
1.36639
1.36641
1.36642
1.36644
1.36646
1.36648
1.3665
1.36652
1.36654
1.36656
1.36658
1.36661
1.36663
1.36666
1.36668
1.36671
1.36674
1.36676
1.36679
1.36682
1.36684
1.36687
1.36689
1.36692
1.36694
1.36696
1.36699
1.367
1.36702
1.36704
1.36705
1.36706
1.36707
1.36707
1.36707
1.36707
1.36706
1.36704
1.36702
1.367
1.36697
1.36694
1.3669
1.36685
1.3668
1.36674
1.36668
1.36661
1.36654
1.36645
1.36637
1.36627
1.36618
1.36607
1.36596
1.36585
1.36573
1.36561
1.36548
1.36535
1.36521
1.36507
1.36493
1.36478
1.36463
1.36447
1.36431
1.36414
1.36397
1.36379
1.3636
1.3634
1.36319
1.36297
1.36274
1.3625
1.36224
1.36196
1.36166
1.36134
1.361
1.36064
1.36025
1.35984
1.35939
1.35892
1.35842
1.35788
1.35731
1.35672
1.35609
1.35543
1.35474
1.35402
1.35327
1.3525
1.35171
1.35089
1.35005
1.3492
1.34833
1.34744
1.34655
1.34565
1.34474
1.34383
1.34291
1.342
1.34109
1.34018
1.33928
1.33838
1.3375
1.33662
1.33576
1.3349
1.33406
1.33323
1.33242
1.33162
1.33084
1.33007
1.32932
1.32858
1.32786
1.32716
1.32647
1.3258
1.32515
1.32451
1.32389
1.32329
1.3227
1.32212
1.32157
1.32102
1.3205
1.31998
1.31948
1.319
1.31853
1.31807
1.31763
1.3172
1.31679
1.31638
1.31599
1.31561
1.31525
1.31489
1.31455
1.31422
1.3139
1.31359
1.31329
1.313
1.31272
1.31246
1.3122
1.31195
1.31172
1.31149
1.31127
1.31106
1.31086
1.31067
1.31049
1.31032
1.31015
1.31
1.30985
1.30971
1.30958
1.30947
1.30935
1.30925
1.30915
1.30907
1.30899
1.3089
1.30887
1.30884
1.30873
1.30868
1.30879
1.30871
1.30841
1.30865
1.30904
1.30818
1.30759
1.30944
1.30911
1.30432
1.30631
1.31313
1.30078
1.28865
1.33647
1.33655
1.33642
1.33616
1.33562
1.33496
1.33448
1.33389
1.33323
1.33262
1.33202
1.33138
1.33076
1.33017
1.32957
1.32899
1.32843
1.32789
1.32736
1.32685
1.32636
1.32589
1.32544
1.32501
1.3246
1.32421
1.32384
1.32349
1.32316
1.32285
1.32255
1.32228
1.32202
1.32178
1.32156
1.32135
1.32117
1.32099
1.32084
1.3207
1.32058
1.32047
1.32038
1.32031
1.32025
1.32021
1.32018
1.32017
1.32017
1.32019
1.32023
1.32028
1.32035
1.32044
1.32054
1.32066
1.3208
1.32096
1.32113
1.32133
1.32155
1.32178
1.32204
1.32232
1.32262
1.32294
1.32329
1.32366
1.32406
1.32448
1.32493
1.3254
1.3259
1.32643
1.32698
1.32756
1.32817
1.32881
1.32948
1.33017
1.33089
1.33164
1.33241
1.33321
1.33403
1.33488
1.33574
1.33663
1.33754
1.33847
1.33941
1.34036
1.34132
1.34229
1.34327
1.34425
1.34524
1.34622
1.34719
1.34816
1.34912
1.35007
1.351
1.35191
1.35281
1.35368
1.35452
1.35534
1.35613
1.35689
1.35762
1.35831
1.35897
1.3596
1.36019
1.36075
1.36127
1.36176
1.36221
1.36263
1.36301
1.36337
1.3637
1.364
1.36427
1.36451
1.36474
1.36494
1.36512
1.36528
1.36542
1.36555
1.36566
1.36576
1.36584
1.36592
1.36598
1.36604
1.36609
1.36613
1.36616
1.36619
1.36622
1.36624
1.36625
1.36627
1.36628
1.36628
1.36629
1.36629
1.3663
1.3663
1.3663
1.3663
1.36629
1.36629
1.36629
1.36629
1.36628
1.36628
1.36628
1.36627
1.36627
1.36627
1.36626
1.36626
1.36626
1.36625
1.36625
1.36625
1.36625
1.36624
1.36624
1.36624
1.36624
1.36624
1.36624
1.36624
1.36623
1.36624
1.36624
1.36624
1.36624
1.36624
1.36624
1.36624
1.36625
1.36625
1.36625
1.36626
1.36626
1.36627
1.36628
1.36628
1.36629
1.3663
1.36631
1.36632
1.36633
1.36634
1.36635
1.36637
1.36638
1.36639
1.36641
1.36643
1.36644
1.36646
1.36648
1.3665
1.36652
1.36655
1.36657
1.36659
1.36662
1.36664
1.36667
1.36669
1.36672
1.36674
1.36677
1.3668
1.36682
1.36685
1.36687
1.3669
1.36692
1.36694
1.36696
1.36698
1.367
1.36702
1.36703
1.36704
1.36704
1.36705
1.36705
1.36704
1.36703
1.36702
1.367
1.36698
1.36695
1.36692
1.36688
1.36683
1.36678
1.36672
1.36666
1.36659
1.36651
1.36643
1.36634
1.36625
1.36615
1.36605
1.36594
1.36582
1.3657
1.36558
1.36545
1.36532
1.36518
1.36504
1.3649
1.36475
1.36459
1.36444
1.36427
1.3641
1.36393
1.36374
1.36355
1.36336
1.36315
1.36293
1.36269
1.36245
1.36219
1.36191
1.36161
1.36129
1.36095
1.36059
1.3602
1.35978
1.35933
1.35886
1.35836
1.35782
1.35725
1.35665
1.35602
1.35536
1.35467
1.35395
1.35321
1.35244
1.35164
1.35082
1.34999
1.34913
1.34826
1.34738
1.34649
1.34559
1.34468
1.34377
1.34286
1.34195
1.34104
1.34013
1.33923
1.33834
1.33746
1.33658
1.33572
1.33487
1.33403
1.33321
1.3324
1.3316
1.33082
1.33006
1.32931
1.32857
1.32786
1.32716
1.32647
1.3258
1.32515
1.32452
1.3239
1.32329
1.32271
1.32214
1.32158
1.32104
1.32051
1.32
1.3195
1.31902
1.31855
1.31809
1.31765
1.31722
1.3168
1.3164
1.31601
1.31563
1.31526
1.31491
1.31456
1.31423
1.31391
1.3136
1.3133
1.31301
1.31273
1.31246
1.31221
1.31196
1.31172
1.31149
1.31127
1.31106
1.31086
1.31067
1.31049
1.31031
1.31015
1.30999
1.30984
1.3097
1.30957
1.30945
1.30933
1.30923
1.30913
1.30903
1.30897
1.3089
1.3088
1.30876
1.30878
1.30866
1.30853
1.30871
1.30878
1.30828
1.3083
1.30918
1.30856
1.30687
1.30851
1.31016
1.30543
1.30338
1.30874
1.30938
1.33726
1.33695
1.33679
1.33642
1.33568
1.33513
1.33465
1.33393
1.33327
1.33268
1.33203
1.33137
1.33077
1.33016
1.32955
1.32897
1.3284
1.32785
1.32732
1.32681
1.32632
1.32585
1.3254
1.32497
1.32456
1.32417
1.3238
1.32345
1.32312
1.32281
1.32251
1.32224
1.32198
1.32174
1.32152
1.32132
1.32113
1.32096
1.32081
1.32067
1.32055
1.32044
1.32035
1.32028
1.32022
1.32018
1.32015
1.32014
1.32014
1.32016
1.3202
1.32025
1.32032
1.3204
1.3205
1.32062
1.32076
1.32092
1.32109
1.32128
1.3215
1.32173
1.32198
1.32226
1.32256
1.32288
1.32322
1.32359
1.32398
1.3244
1.32484
1.32531
1.32581
1.32633
1.32688
1.32746
1.32807
1.3287
1.32936
1.33005
1.33077
1.33152
1.33229
1.33309
1.33391
1.33475
1.33562
1.33651
1.33742
1.33834
1.33929
1.34024
1.34121
1.34218
1.34317
1.34415
1.34514
1.34612
1.34711
1.34808
1.34905
1.35
1.35094
1.35186
1.35276
1.35364
1.35449
1.35532
1.35612
1.35688
1.35762
1.35832
1.35899
1.35962
1.36021
1.36077
1.3613
1.36179
1.36224
1.36266
1.36305
1.36341
1.36373
1.36403
1.3643
1.36455
1.36477
1.36497
1.36514
1.3653
1.36544
1.36557
1.36568
1.36578
1.36586
1.36593
1.366
1.36605
1.3661
1.36614
1.36617
1.3662
1.36622
1.36624
1.36626
1.36627
1.36628
1.36629
1.36629
1.36629
1.3663
1.3663
1.3663
1.3663
1.36629
1.36629
1.36629
1.36628
1.36628
1.36628
1.36627
1.36627
1.36627
1.36626
1.36626
1.36626
1.36625
1.36625
1.36625
1.36624
1.36624
1.36624
1.36624
1.36623
1.36623
1.36623
1.36623
1.36623
1.36623
1.36623
1.36623
1.36623
1.36623
1.36623
1.36623
1.36624
1.36624
1.36624
1.36625
1.36625
1.36626
1.36626
1.36627
1.36627
1.36628
1.36629
1.3663
1.36631
1.36632
1.36633
1.36634
1.36635
1.36637
1.36638
1.3664
1.36641
1.36643
1.36645
1.36647
1.36649
1.36651
1.36653
1.36655
1.36657
1.3666
1.36662
1.36665
1.36667
1.3667
1.36672
1.36675
1.36678
1.3668
1.36683
1.36685
1.36688
1.3669
1.36692
1.36694
1.36696
1.36698
1.36699
1.36701
1.36702
1.36702
1.36703
1.36703
1.36702
1.36701
1.367
1.36698
1.36696
1.36693
1.3669
1.36686
1.36681
1.36676
1.3667
1.36664
1.36657
1.36649
1.36641
1.36632
1.36623
1.36613
1.36602
1.36591
1.3658
1.36568
1.36556
1.36543
1.36529
1.36516
1.36501
1.36487
1.36472
1.36456
1.36441
1.36424
1.36407
1.3639
1.36371
1.36352
1.36332
1.36311
1.36289
1.36266
1.36241
1.36214
1.36186
1.36156
1.36124
1.3609
1.36053
1.36014
1.35972
1.35927
1.35879
1.35829
1.35775
1.35717
1.35657
1.35594
1.35527
1.35458
1.35386
1.35311
1.35233
1.35153
1.35071
1.34987
1.34902
1.34815
1.34726
1.34637
1.34547
1.34457
1.34366
1.34275
1.34184
1.34093
1.34003
1.33913
1.33824
1.33736
1.33649
1.33563
1.33479
1.33395
1.33313
1.33233
1.33153
1.33076
1.33
1.32925
1.32852
1.32781
1.32712
1.32644
1.32577
1.32513
1.32449
1.32388
1.32328
1.32269
1.32213
1.32157
1.32103
1.32051
1.32
1.3195
1.31902
1.31855
1.3181
1.31766
1.31723
1.31682
1.31641
1.31602
1.31564
1.31528
1.31492
1.31458
1.31425
1.31393
1.31362
1.31332
1.31303
1.31275
1.31248
1.31222
1.31198
1.31174
1.31151
1.31129
1.31108
1.31088
1.31069
1.3105
1.31033
1.31016
1.31001
1.30986
1.30972
1.30959
1.30946
1.30935
1.30925
1.30915
1.30906
1.30897
1.30893
1.30886
1.30876
1.30877
1.30882
1.30866
1.30857
1.3089
1.30887
1.30825
1.30872
1.30972
1.30819
1.30725
1.31063
1.30994
1.30501
1.30834
1.31087
1.33817
1.33774
1.33719
1.33653
1.33599
1.3354
1.33467
1.33397
1.33337
1.33268
1.332
1.33137
1.33073
1.3301
1.32949
1.32891
1.32833
1.32778
1.32725
1.32674
1.32625
1.32577
1.32532
1.32489
1.32449
1.3241
1.32373
1.32338
1.32305
1.32274
1.32245
1.32218
1.32192
1.32168
1.32147
1.32126
1.32108
1.32091
1.32076
1.32062
1.3205
1.3204
1.32031
1.32023
1.32017
1.32013
1.3201
1.32009
1.32009
1.32011
1.32015
1.3202
1.32027
1.32035
1.32045
1.32057
1.3207
1.32085
1.32102
1.32122
1.32143
1.32166
1.32191
1.32218
1.32247
1.32279
1.32313
1.32349
1.32388
1.32429
1.32473
1.3252
1.32569
1.32621
1.32675
1.32733
1.32793
1.32856
1.32922
1.32991
1.33062
1.33136
1.33213
1.33293
1.33375
1.3346
1.33546
1.33635
1.33727
1.33819
1.33914
1.3401
1.34107
1.34205
1.34304
1.34403
1.34502
1.34601
1.347
1.34799
1.34896
1.34992
1.35087
1.3518
1.35271
1.3536
1.35446
1.3553
1.3561
1.35688
1.35762
1.35833
1.359
1.35964
1.36024
1.36081
1.36134
1.36183
1.36229
1.36271
1.3631
1.36345
1.36378
1.36408
1.36435
1.36459
1.36481
1.36501
1.36518
1.36534
1.36548
1.3656
1.36571
1.3658
1.36588
1.36596
1.36602
1.36607
1.36611
1.36615
1.36618
1.36621
1.36623
1.36625
1.36626
1.36628
1.36628
1.36629
1.36629
1.3663
1.3663
1.3663
1.3663
1.36629
1.36629
1.36629
1.36629
1.36628
1.36628
1.36627
1.36627
1.36627
1.36626
1.36626
1.36626
1.36625
1.36625
1.36625
1.36624
1.36624
1.36624
1.36623
1.36623
1.36623
1.36623
1.36623
1.36623
1.36622
1.36622
1.36622
1.36622
1.36622
1.36622
1.36623
1.36623
1.36623
1.36623
1.36623
1.36624
1.36624
1.36625
1.36625
1.36626
1.36626
1.36627
1.36628
1.36629
1.3663
1.36631
1.36632
1.36633
1.36634
1.36636
1.36637
1.36638
1.3664
1.36642
1.36643
1.36645
1.36647
1.36649
1.36651
1.36653
1.36656
1.36658
1.3666
1.36663
1.36665
1.36668
1.3667
1.36673
1.36676
1.36678
1.36681
1.36683
1.36685
1.36688
1.3669
1.36692
1.36694
1.36696
1.36697
1.36698
1.36699
1.367
1.36701
1.36701
1.367
1.36699
1.36698
1.36696
1.36694
1.36691
1.36688
1.36684
1.36679
1.36674
1.36668
1.36662
1.36655
1.36647
1.36639
1.3663
1.36621
1.36611
1.366
1.36589
1.36578
1.36566
1.36553
1.3654
1.36527
1.36513
1.36499
1.36485
1.3647
1.36454
1.36438
1.36422
1.36405
1.36387
1.36369
1.3635
1.3633
1.36308
1.36286
1.36263
1.36238
1.36211
1.36183
1.36153
1.3612
1.36085
1.36048
1.36009
1.35966
1.3592
1.35872
1.3582
1.35766
1.35708
1.35647
1.35583
1.35515
1.35445
1.35372
1.35297
1.35218
1.35138
1.35056
1.34971
1.34885
1.34798
1.34709
1.3462
1.3453
1.34439
1.34348
1.34257
1.34166
1.34076
1.33986
1.33896
1.33808
1.3372
1.33633
1.33548
1.33464
1.33381
1.33299
1.33219
1.33141
1.33064
1.32989
1.32915
1.32843
1.32772
1.32703
1.32636
1.3257
1.32506
1.32444
1.32383
1.32324
1.32266
1.32209
1.32155
1.32101
1.32049
1.31999
1.3195
1.31902
1.31856
1.31811
1.31767
1.31724
1.31683
1.31643
1.31604
1.31567
1.3153
1.31495
1.31461
1.31428
1.31396
1.31365
1.31335
1.31306
1.31279
1.31252
1.31226
1.31201
1.31178
1.31155
1.31133
1.31112
1.31092
1.31073
1.31055
1.31038
1.31021
1.31006
1.30991
1.30977
1.30964
1.30953
1.30942
1.30931
1.30923
1.30916
1.30907
1.309
1.309
1.30897
1.30885
1.30889
1.30907
1.3089
1.30871
1.30929
1.30951
1.30856
1.30902
1.31085
1.30946
1.30777
1.31106
1.31287
1.30987
1.30954
1.33922
1.3384
1.33766
1.33691
1.33628
1.33552
1.33473
1.33407
1.33338
1.33264
1.33197
1.33132
1.33065
1.33001
1.3294
1.3288
1.32822
1.32767
1.32714
1.32662
1.32613
1.32566
1.32521
1.32478
1.32438
1.32399
1.32362
1.32328
1.32295
1.32264
1.32236
1.32209
1.32183
1.3216
1.32138
1.32118
1.321
1.32083
1.32068
1.32055
1.32043
1.32033
1.32024
1.32017
1.32011
1.32007
1.32004
1.32003
1.32003
1.32005
1.32008
1.32013
1.32019
1.32028
1.32037
1.32049
1.32062
1.32077
1.32094
1.32113
1.32133
1.32156
1.32181
1.32207
1.32236
1.32268
1.32301
1.32337
1.32375
1.32416
1.32459
1.32505
1.32554
1.32605
1.32659
1.32717
1.32776
1.32839
1.32904
1.32973
1.33044
1.33118
1.33195
1.33274
1.33356
1.33441
1.33527
1.33617
1.33708
1.33801
1.33896
1.33992
1.3409
1.34188
1.34288
1.34387
1.34488
1.34588
1.34688
1.34787
1.34886
1.34983
1.35079
1.35173
1.35265
1.35355
1.35442
1.35527
1.35609
1.35688
1.35763
1.35835
1.35903
1.35968
1.36028
1.36085
1.36139
1.36188
1.36234
1.36277
1.36316
1.36351
1.36384
1.36413
1.3644
1.36464
1.36486
1.36505
1.36523
1.36538
1.36552
1.36564
1.36574
1.36583
1.36591
1.36598
1.36604
1.36609
1.36613
1.36617
1.3662
1.36622
1.36624
1.36626
1.36627
1.36628
1.36629
1.36629
1.3663
1.3663
1.3663
1.3663
1.3663
1.36629
1.36629
1.36629
1.36628
1.36628
1.36628
1.36627
1.36627
1.36626
1.36626
1.36626
1.36625
1.36625
1.36624
1.36624
1.36624
1.36624
1.36623
1.36623
1.36623
1.36623
1.36622
1.36622
1.36622
1.36622
1.36622
1.36622
1.36622
1.36622
1.36622
1.36622
1.36622
1.36622
1.36622
1.36623
1.36623
1.36623
1.36624
1.36624
1.36625
1.36626
1.36626
1.36627
1.36628
1.36629
1.3663
1.36631
1.36632
1.36633
1.36634
1.36636
1.36637
1.36639
1.3664
1.36642
1.36644
1.36646
1.36648
1.3665
1.36652
1.36654
1.36656
1.36659
1.36661
1.36664
1.36666
1.36668
1.36671
1.36674
1.36676
1.36679
1.36681
1.36683
1.36686
1.36688
1.3669
1.36692
1.36694
1.36695
1.36696
1.36697
1.36698
1.36698
1.36698
1.36698
1.36697
1.36696
1.36694
1.36692
1.36689
1.36686
1.36682
1.36677
1.36672
1.36666
1.3666
1.36653
1.36645
1.36637
1.36628
1.36619
1.36609
1.36598
1.36587
1.36576
1.36564
1.36551
1.36538
1.36525
1.36512
1.36497
1.36483
1.36468
1.36452
1.36437
1.3642
1.36403
1.36385
1.36367
1.36348
1.36328
1.36307
1.36284
1.3626
1.36235
1.36209
1.3618
1.36149
1.36116
1.36081
1.36043
1.36003
1.35959
1.35913
1.35864
1.35811
1.35755
1.35696
1.35634
1.35569
1.355
1.35429
1.35355
1.35278
1.35199
1.35118
1.35035
1.3495
1.34863
1.34775
1.34687
1.34597
1.34506
1.34415
1.34324
1.34233
1.34143
1.34052
1.33962
1.33873
1.33785
1.33697
1.33611
1.33526
1.33442
1.3336
1.33279
1.332
1.33122
1.33046
1.32972
1.32899
1.32828
1.32758
1.3269
1.32624
1.32559
1.32496
1.32435
1.32375
1.32316
1.3226
1.32204
1.3215
1.32098
1.32046
1.31997
1.31948
1.31901
1.31856
1.31811
1.31768
1.31726
1.31685
1.31646
1.31607
1.3157
1.31534
1.31499
1.31465
1.31433
1.31401
1.3137
1.31341
1.31312
1.31285
1.31258
1.31233
1.31208
1.31185
1.31162
1.31141
1.3112
1.311
1.31081
1.31064
1.31047
1.31031
1.31015
1.31001
1.30988
1.30976
1.30964
1.30955
1.30945
1.30936
1.3093
1.30927
1.3092
1.30915
1.30921
1.30921
1.30911
1.30925
1.30952
1.30932
1.30928
1.31012
1.31021
1.30938
1.31061
1.3121
1.31071
1.31092
1.31346
1.31373
1.31437
1.34025
1.33899
1.33816
1.33733
1.33645
1.33561
1.33487
1.33411
1.33331
1.33259
1.33191
1.3312
1.33052
1.32989
1.32926
1.32865
1.32807
1.32752
1.32698
1.32647
1.32598
1.32551
1.32506
1.32464
1.32423
1.32385
1.32349
1.32315
1.32282
1.32252
1.32224
1.32197
1.32172
1.32149
1.32128
1.32108
1.3209
1.32074
1.32059
1.32046
1.32034
1.32024
1.32015
1.32008
1.32003
1.31998
1.31996
1.31994
1.31995
1.31996
1.32
1.32004
1.32011
1.32019
1.32028
1.3204
1.32053
1.32067
1.32084
1.32102
1.32122
1.32145
1.32169
1.32195
1.32224
1.32254
1.32287
1.32322
1.3236
1.324
1.32443
1.32489
1.32536
1.32587
1.32641
1.32697
1.32756
1.32818
1.32883
1.32951
1.33022
1.33096
1.33172
1.33252
1.33334
1.33418
1.33505
1.33594
1.33686
1.33779
1.33874
1.33971
1.34069
1.34169
1.34269
1.34369
1.34471
1.34572
1.34673
1.34773
1.34873
1.34971
1.35068
1.35164
1.35257
1.35349
1.35438
1.35524
1.35607
1.35687
1.35763
1.35837
1.35906
1.35971
1.36033
1.36091
1.36144
1.36194
1.36241
1.36283
1.36322
1.36358
1.36391
1.3642
1.36447
1.3647
1.36492
1.36511
1.36528
1.36543
1.36556
1.36568
1.36578
1.36587
1.36594
1.36601
1.36606
1.36611
1.36615
1.36618
1.36621
1.36623
1.36625
1.36627
1.36628
1.36629
1.36629
1.3663
1.3663
1.3663
1.3663
1.3663
1.3663
1.36629
1.36629
1.36629
1.36628
1.36628
1.36627
1.36627
1.36627
1.36626
1.36626
1.36625
1.36625
1.36625
1.36624
1.36624
1.36623
1.36623
1.36623
1.36623
1.36622
1.36622
1.36622
1.36622
1.36622
1.36621
1.36621
1.36621
1.36621
1.36621
1.36621
1.36621
1.36621
1.36622
1.36622
1.36622
1.36622
1.36623
1.36623
1.36624
1.36624
1.36625
1.36625
1.36626
1.36627
1.36628
1.36629
1.3663
1.36631
1.36632
1.36633
1.36634
1.36636
1.36637
1.36639
1.36641
1.36642
1.36644
1.36646
1.36648
1.3665
1.36652
1.36655
1.36657
1.36659
1.36662
1.36664
1.36667
1.36669
1.36672
1.36674
1.36677
1.36679
1.36681
1.36684
1.36686
1.36688
1.3669
1.36691
1.36693
1.36694
1.36695
1.36696
1.36696
1.36696
1.36696
1.36695
1.36694
1.36692
1.36689
1.36687
1.36683
1.36679
1.36675
1.3667
1.36664
1.36657
1.3665
1.36643
1.36635
1.36626
1.36616
1.36607
1.36596
1.36585
1.36574
1.36562
1.36549
1.36537
1.36523
1.3651
1.36496
1.36481
1.36466
1.36451
1.36436
1.36419
1.36402
1.36385
1.36366
1.36347
1.36327
1.36306
1.36283
1.36259
1.36234
1.36206
1.36177
1.36146
1.36113
1.36077
1.36038
1.35997
1.35952
1.35905
1.35854
1.358
1.35743
1.35683
1.35619
1.35552
1.35482
1.3541
1.35335
1.35257
1.35176
1.35094
1.3501
1.34924
1.34837
1.34748
1.34658
1.34568
1.34477
1.34386
1.34295
1.34204
1.34113
1.34023
1.33933
1.33844
1.33756
1.33669
1.33583
1.33498
1.33415
1.33334
1.33254
1.33175
1.33098
1.33023
1.3295
1.32878
1.32808
1.32739
1.32672
1.32607
1.32544
1.32482
1.32422
1.32363
1.32306
1.3225
1.32196
1.32143
1.32092
1.32042
1.31993
1.31946
1.319
1.31855
1.31811
1.31769
1.31728
1.31688
1.31649
1.31611
1.31575
1.31539
1.31505
1.31472
1.31439
1.31408
1.31378
1.31349
1.31321
1.31294
1.31268
1.31243
1.31219
1.31195
1.31173
1.31152
1.31132
1.31112
1.31094
1.31077
1.3106
1.31045
1.3103
1.31017
1.31004
1.30993
1.30982
1.30973
1.30966
1.30959
1.30952
1.3095
1.30951
1.30947
1.30945
1.30961
1.30967
1.30956
1.30984
1.31031
1.31007
1.31008
1.31134
1.31159
1.31072
1.31217
1.31428
1.31371
1.31371
1.31652
1.31855
1.34109
1.33959
1.3386
1.33759
1.3366
1.33574
1.3349
1.33404
1.33324
1.33251
1.33176
1.33103
1.33037
1.32971
1.32907
1.32846
1.32788
1.32732
1.32678
1.32627
1.32578
1.32532
1.32488
1.32446
1.32406
1.32368
1.32332
1.32299
1.32267
1.32237
1.32209
1.32183
1.32159
1.32136
1.32115
1.32096
1.32079
1.32063
1.32048
1.32035
1.32024
1.32014
1.32005
1.31998
1.31993
1.31989
1.31986
1.31985
1.31985
1.31987
1.3199
1.31995
1.32001
1.32009
1.32018
1.32029
1.32042
1.32056
1.32072
1.3209
1.3211
1.32131
1.32155
1.32181
1.32209
1.32239
1.32271
1.32306
1.32343
1.32382
1.32424
1.32469
1.32516
1.32566
1.32619
1.32675
1.32734
1.32795
1.32859
1.32927
1.32997
1.3307
1.33147
1.33226
1.33307
1.33392
1.33479
1.33568
1.3366
1.33754
1.33849
1.33947
1.34046
1.34145
1.34246
1.34348
1.3445
1.34552
1.34654
1.34756
1.34857
1.34957
1.35056
1.35153
1.35248
1.35341
1.35431
1.35519
1.35604
1.35685
1.35763
1.35838
1.35908
1.35975
1.36037
1.36096
1.3615
1.36201
1.36248
1.3629
1.3633
1.36366
1.36398
1.36427
1.36454
1.36477
1.36498
1.36517
1.36533
1.36548
1.36561
1.36572
1.36582
1.3659
1.36598
1.36604
1.36609
1.36614
1.36617
1.3662
1.36623
1.36625
1.36627
1.36628
1.36629
1.3663
1.3663
1.3663
1.3663
1.3663
1.3663
1.3663
1.3663
1.36629
1.36629
1.36629
1.36628
1.36628
1.36627
1.36627
1.36626
1.36626
1.36625
1.36625
1.36625
1.36624
1.36624
1.36623
1.36623
1.36623
1.36622
1.36622
1.36622
1.36622
1.36621
1.36621
1.36621
1.36621
1.36621
1.36621
1.36621
1.36621
1.36621
1.36621
1.36621
1.36621
1.36621
1.36621
1.36622
1.36622
1.36622
1.36623
1.36623
1.36624
1.36625
1.36625
1.36626
1.36627
1.36628
1.36629
1.3663
1.36631
1.36632
1.36633
1.36635
1.36636
1.36638
1.36639
1.36641
1.36643
1.36645
1.36647
1.36649
1.36651
1.36653
1.36655
1.36658
1.3666
1.36662
1.36665
1.36667
1.3667
1.36672
1.36675
1.36677
1.36679
1.36681
1.36684
1.36686
1.36687
1.36689
1.36691
1.36692
1.36693
1.36693
1.36694
1.36694
1.36693
1.36692
1.36691
1.36689
1.36687
1.36684
1.36681
1.36677
1.36672
1.36667
1.36661
1.36655
1.36648
1.3664
1.36632
1.36623
1.36614
1.36604
1.36594
1.36583
1.36571
1.3656
1.36547
1.36535
1.36522
1.36508
1.36494
1.3648
1.36465
1.3645
1.36435
1.36418
1.36402
1.36384
1.36366
1.36347
1.36327
1.36305
1.36282
1.36259
1.36233
1.36205
1.36175
1.36144
1.36109
1.36072
1.36033
1.3599
1.35945
1.35896
1.35844
1.35788
1.35729
1.35667
1.35602
1.35533
1.35462
1.35388
1.35311
1.35231
1.3515
1.35066
1.34981
1.34894
1.34806
1.34716
1.34626
1.34535
1.34444
1.34353
1.34261
1.3417
1.34079
1.33988
1.33899
1.3381
1.33722
1.33635
1.3355
1.33465
1.33383
1.33302
1.33223
1.33145
1.33069
1.32995
1.32923
1.32852
1.32783
1.32716
1.32651
1.32587
1.32525
1.32465
1.32406
1.32348
1.32293
1.32238
1.32185
1.32134
1.32084
1.32035
1.31988
1.31942
1.31897
1.31853
1.31811
1.3177
1.3173
1.31691
1.31653
1.31616
1.3158
1.31546
1.31512
1.3148
1.31448
1.31418
1.31388
1.3136
1.31332
1.31306
1.3128
1.31256
1.31232
1.3121
1.31188
1.31167
1.31148
1.31129
1.31111
1.31094
1.31078
1.31064
1.3105
1.31037
1.31026
1.31016
1.31007
1.30999
1.30992
1.30988
1.30985
1.30981
1.30984
1.30991
1.30989
1.30995
1.31021
1.31032
1.31028
1.31075
1.31132
1.31113
1.31151
1.3129
1.31318
1.31309
1.31466
1.31621
1.31702
1.31834
1.31992
1.34168
1.34004
1.33889
1.33774
1.33672
1.33577
1.33481
1.33394
1.33314
1.33233
1.33155
1.33084
1.33015
1.32947
1.32883
1.32823
1.32764
1.32708
1.32655
1.32604
1.32556
1.3251
1.32466
1.32425
1.32385
1.32348
1.32313
1.3228
1.32249
1.3222
1.32193
1.32167
1.32144
1.32122
1.32101
1.32083
1.32065
1.3205
1.32036
1.32023
1.32012
1.32002
1.31994
1.31987
1.31982
1.31978
1.31975
1.31974
1.31974
1.31976
1.31979
1.31983
1.3199
1.31997
1.32006
1.32017
1.32029
1.32043
1.32059
1.32076
1.32095
1.32116
1.3214
1.32165
1.32192
1.32221
1.32253
1.32287
1.32323
1.32362
1.32403
1.32447
1.32494
1.32543
1.32595
1.3265
1.32708
1.32768
1.32832
1.329
1.32969
1.33042
1.33118
1.33196
1.33278
1.33362
1.33449
1.33538
1.33631
1.33724
1.3382
1.33919
1.34018
1.34118
1.3422
1.34323
1.34426
1.34529
1.34633
1.34736
1.34838
1.3494
1.3504
1.35139
1.35236
1.3533
1.35423
1.35513
1.35599
1.35682
1.35762
1.35838
1.3591
1.35978
1.36042
1.36101
1.36156
1.36208
1.36255
1.36298
1.36337
1.36373
1.36406
1.36434
1.36461
1.36484
1.36505
1.36523
1.3654
1.36553
1.36566
1.36577
1.36586
1.36594
1.36601
1.36607
1.36612
1.36616
1.3662
1.36622
1.36625
1.36626
1.36628
1.36629
1.3663
1.3663
1.36631
1.36631
1.36631
1.36631
1.3663
1.3663
1.3663
1.36629
1.36629
1.36629
1.36628
1.36628
1.36627
1.36627
1.36626
1.36626
1.36625
1.36625
1.36624
1.36624
1.36624
1.36623
1.36623
1.36622
1.36622
1.36622
1.36622
1.36621
1.36621
1.36621
1.36621
1.36621
1.3662
1.3662