# vtk DataFile Version 2.0
LBE two cylinders
ASCII
DATASET STRUCTURED_POINTS
DIMENSIONS 400 100 1
ASPECT_RATIO 1 1 1
ORIGIN 0 0 0
POINT_DATA 40000
SCALARS rho double 1
LOOKUP_TABLE default
1.33864
1.33593
1.3362
1.33621
1.33528
1.33475
1.33441
1.33373
1.33309
1.33254
1.33193
1.3313
1.33071
1.33012
1.32953
1.32896
1.3284
1.32786
1.32734
1.32683
1.32635
1.32588
1.32543
1.325
1.32459
1.3242
1.32383
1.32348
1.32315
1.32284
1.32255
1.32227
1.32201
1.32177
1.32155
1.32135
1.32116
1.32099
1.32083
1.32069
1.32057
1.32047
1.32038
1.3203
1.32024
1.3202
1.32017
1.32016
1.32017
1.32019
1.32023
1.32028
1.32036
1.32044
1.32055
1.32067
1.32082
1.32098
1.32116
1.32136
1.32158
1.32182
1.32208
1.32237
1.32267
1.323
1.32336
1.32373
1.32414
1.32457
1.32502
1.3255
1.32601
1.32655
1.32711
1.3277
1.32832
1.32896
1.32964
1.33034
1.33107
1.33182
1.3326
1.33341
1.33424
1.33509
1.33596
1.33686
1.33777
1.3387
1.33964
1.34059
1.34156
1.34253
1.34351
1.34449
1.34547
1.34644
1.34742
1.34838
1.34933
1.35027
1.3512
1.3521
1.35298
1.35385
1.35468
1.35549
1.35627
1.35702
1.35773
1.35842
1.35907
1.35968
1.36026
1.36081
1.36132
1.3618
1.36224
1.36266
1.36304
1.36339
1.36371
1.364
1.36427
1.36451
1.36473
1.36493
1.3651
1.36526
1.3654
1.36553
1.36564
1.36573
1.36582
1.36589
1.36595
1.36601
1.36605
1.36609
1.36612
1.36615
1.36617
1.36619
1.3662
1.36621
1.36622
1.36622
1.36623
1.36623
1.36623
1.36622
1.36622
1.36622
1.36621
1.36621
1.3662
1.3662
1.36619
1.36618
1.36618
1.36617
1.36617
1.36616
1.36615
1.36615
1.36614
1.36614
1.36613
1.36613
1.36613
1.36612
1.36612
1.36612
1.36611
1.36611
1.36611
1.36611
1.36611
1.36611
1.36611
1.36611
1.36611
1.36611
1.36612
1.36612
1.36612
1.36613
1.36613
1.36614
1.36615
1.36615
1.36616
1.36617
1.36618
1.36619
1.3662
1.36621
1.36623
1.36624
1.36626
1.36627
1.36629
1.36631
1.36632
1.36634
1.36636
1.36638
1.36641
1.36643
1.36645
1.36648
1.3665
1.36653
1.36656
1.36659
1.36661
1.36664
1.36667
1.3667
1.36673
1.36676
1.36679
1.36682
1.36685
1.36688
1.3669
1.36693
1.36695
1.36698
1.367
1.36701
1.36703
1.36704
1.36705
1.36706
1.36706
1.36706
1.36705
1.36704
1.36703
1.367
1.36698
1.36694
1.36691
1.36686
1.36681
1.36676
1.36669
1.36663
1.36655
1.36647
1.36638
1.36629
1.36619
1.36609
1.36598
1.36587
1.36575
1.36563
1.36551
1.36538
1.36524
1.3651
1.36496
1.36482
1.36467
1.36451
1.36435
1.36419
1.36402
1.36384
1.36366
1.36346
1.36326
1.36304
1.36281
1.36257
1.36232
1.36204
1.36175
1.36143
1.36109
1.36073
1.36034
1.35993
1.35948
1.35901
1.35851
1.35797
1.3574
1.3568
1.35617
1.3555
1.35481
1.35408
1.35333
1.35255
1.35175
1.35093
1.35008
1.34922
1.34835
1.34746
1.34656
1.34565
1.34473
1.34381
1.34289
1.34197
1.34106
1.34014
1.33924
1.33834
1.33745
1.33656
1.33569
1.33484
1.33399
1.33316
1.33234
1.33154
1.33076
1.32999
1.32923
1.3285
1.32778
1.32707
1.32638
1.32571
1.32506
1.32442
1.3238
1.3232
1.32261
1.32204
1.32148
1.32094
1.32042
1.31991
1.31941
1.31893
1.31846
1.31801
1.31757
1.31714
1.31673
1.31632
1.31594
1.31556
1.3152
1.31485
1.31451
1.31418
1.31386
1.31355
1.31326
1.31297
1.3127
1.31244
1.31218
1.31194
1.31171
1.31148
1.31127
1.31107
1.31087
1.31069
1.31051
1.31034
1.31018
1.31004
1.3099
1.30977
1.30964
1.30953
1.30943
1.30934
1.30925
1.30917
1.30912
1.30907
1.309
1.30897
1.30901
1.30896
1.30887
1.30901
1.30918
1.30884
1.30872
1.30966
1.30955
1.30749
1.30845
1.31234
1.30773
1.299
1.30953
1.31858
1.33677
1.33691
1.33642
1.33575
1.33544
1.33495
1.33434
1.33376
1.3332
1.33258
1.33196
1.33137
1.33076
1.33016
1.32958
1.32901
1.32845
1.32791
1.32738
1.32688
1.32639
1.32592
1.32547
1.32504
1.32463
1.32424
1.32387
1.32352
1.32319
1.32287
1.32258
1.3223
1.32204
1.3218
1.32158
1.32138
1.32119
1.32102
1.32086
1.32072
1.3206
1.32049
1.3204
1.32033
1.32027
1.32023
1.3202
1.32019
1.32019
1.32021
1.32025
1.32031
1.32038
1.32046
1.32057
1.32069
1.32084
1.321
1.32118
1.32137
1.32159
1.32183
1.32209
1.32238
1.32268
1.32301
1.32337
1.32374
1.32414
1.32457
1.32502
1.3255
1.32601
1.32654
1.3271
1.32769
1.32831
1.32895
1.32962
1.33032
1.33105
1.3318
1.33258
1.33338
1.3342
1.33505
1.33592
1.33682
1.33772
1.33865
1.33959
1.34054
1.3415
1.34247
1.34345
1.34443
1.34541
1.34638
1.34735
1.34831
1.34927
1.35021
1.35113
1.35203
1.35292
1.35378
1.35462
1.35543
1.35621
1.35696
1.35767
1.35836
1.35901
1.35963
1.36021
1.36076
1.36128
1.36176
1.36221
1.36262
1.363
1.36336
1.36368
1.36398
1.36424
1.36449
1.36471
1.36491
1.36509
1.36525
1.36539
1.36551
1.36562
1.36572
1.36581
1.36588
1.36594
1.366
1.36605
1.36608
1.36612
1.36614
1.36617
1.36618
1.3662
1.36621
1.36622
1.36622
1.36622
1.36622
1.36622
1.36622
1.36622
1.36621
1.36621
1.3662
1.3662
1.36619
1.36619
1.36618
1.36617
1.36617
1.36616
1.36616
1.36615
1.36615
1.36614
1.36613
1.36613
1.36613
1.36612
1.36612
1.36611
1.36611
1.36611
1.36611
1.36611
1.3661
1.3661
1.3661
1.3661
1.36611
1.36611
1.36611
1.36611
1.36611
1.36612
1.36612
1.36613
1.36613
1.36614
1.36615
1.36615
1.36616
1.36617
1.36618
1.36619
1.3662
1.36622
1.36623
1.36625
1.36626
1.36628
1.36629
1.36631
1.36633
1.36635
1.36637
1.36639
1.36642
1.36644
1.36646
1.36649
1.36651
1.36654
1.36657
1.3666
1.36662
1.36665
1.36668
1.36671
1.36674
1.36677
1.3668
1.36683
1.36685
1.36688
1.3669
1.36693
1.36695
1.36697
1.36699
1.367
1.36702
1.36702
1.36703
1.36703
1.36703
1.36702
1.36701
1.367
1.36697
1.36695
1.36692
1.36688
1.36683
1.36678
1.36673
1.36666
1.3666
1.36652
1.36644
1.36635
1.36626
1.36616
1.36606
1.36595
1.36584
1.36572
1.3656
1.36547
1.36534
1.3652
1.36506
1.36492
1.36477
1.36462
1.36446
1.3643
1.36414
1.36396
1.36378
1.3636
1.3634
1.36319
1.36298
1.36275
1.3625
1.36224
1.36196
1.36167
1.36135
1.36101
1.36065
1.36026
1.35985
1.3594
1.35893
1.35843
1.35789
1.35733
1.35673
1.3561
1.35544
1.35475
1.35403
1.35328
1.35251
1.35171
1.35089
1.35005
1.34919
1.34832
1.34744
1.34654
1.34564
1.34473
1.34381
1.3429
1.34198
1.34107
1.34016
1.33926
1.33836
1.33747
1.33659
1.33573
1.33487
1.33403
1.3332
1.33239
1.33159
1.3308
1.33003
1.32928
1.32854
1.32782
1.32712
1.32643
1.32576
1.32511
1.32447
1.32385
1.32325
1.32266
1.32209
1.32153
1.32099
1.32046
1.31995
1.31945
1.31897
1.3185
1.31804
1.3176
1.31717
1.31676
1.31636
1.31597
1.31559
1.31522
1.31487
1.31453
1.3142
1.31388
1.31357
1.31328
1.31299
1.31271
1.31245
1.31219
1.31195
1.31171
1.31149
1.31127
1.31107
1.31087
1.31068
1.3105
1.31033
1.31017
1.31002
1.30987
1.30974
1.30961
1.3095
1.30939
1.30929
1.3092
1.30912
1.30904
1.30898
1.30895
1.30889
1.30883
1.30886
1.30886
1.30873
1.30873
1.30898
1.30881
1.30831
1.30873
1.30941
1.30769
1.3062
1.30885
1.3083
1.29843
1.29296
1.3361
1.33709
1.33637
1.33566
1.33563
1.33506
1.33434
1.33384
1.33329
1.33261
1.33201
1.33142
1.3308
1.33019
1.32962
1.32904
1.32848
1.32793
1.32741
1.3269
1.32641
1.32594
1.32549
1.32506
1.32465
1.32426
1.32389
1.32353
1.3232
1.32289
1.32259
1.32232
1.32206
1.32182
1.32159
1.32139
1.3212
1.32103
1.32087
1.32073
1.32061
1.3205
1.32041
1.32034
1.32028
1.32023
1.32021
1.3202
1.3202
1.32022
1.32026
1.32031
1.32038
1.32047
1.32057
1.3207
1.32084
1.32099
1.32117
1.32137
1.32159
1.32183
1.32209
1.32237
1.32267
1.323
1.32335
1.32372
1.32412
1.32455
1.325
1.32547
1.32598
1.32651
1.32707
1.32765
1.32827
1.32891
1.32957
1.33027
1.33099
1.33174
1.33252
1.33332
1.33414
1.33499
1.33586
1.33675
1.33766
1.33858
1.33952
1.34047
1.34143
1.3424
1.34338
1.34436
1.34534
1.34631
1.34729
1.34825
1.3492
1.35015
1.35107
1.35198
1.35287
1.35373
1.35457
1.35538
1.35617
1.35692
1.35764
1.35833
1.35899
1.35961
1.36019
1.36075
1.36126
1.36175
1.3622
1.36261
1.363
1.36335
1.36368
1.36397
1.36424
1.36449
1.36471
1.36491
1.36509
1.36525
1.36539
1.36551
1.36563
1.36572
1.36581
1.36588
1.36594
1.366
1.36605
1.36608
1.36612
1.36614
1.36617
1.36618
1.3662
1.36621
1.36621
1.36622
1.36622
1.36622
1.36622
1.36622
1.36622
1.36621
1.36621
1.3662
1.3662
1.36619
1.36618
1.36618
1.36617
1.36617
1.36616
1.36615
1.36615
1.36614
1.36614
1.36613
1.36613
1.36612
1.36612
1.36611
1.36611
1.36611
1.3661
1.3661
1.3661
1.3661
1.3661
1.3661
1.3661
1.3661
1.3661
1.3661
1.3661
1.36611
1.36611
1.36611
1.36612
1.36612
1.36613
1.36614
1.36615
1.36615
1.36616
1.36617
1.36618
1.36619
1.36621
1.36622
1.36623
1.36625
1.36626
1.36628
1.3663
1.36632
1.36634
1.36636
1.36638
1.3664
1.36642
1.36645
1.36647
1.3665
1.36652
1.36655
1.36658
1.36661
1.36663
1.36666
1.36669
1.36672
1.36675
1.36678
1.3668
1.36683
1.36686
1.36688
1.3669
1.36693
1.36695
1.36696
1.36698
1.36699
1.367
1.36701
1.36701
1.367
1.367
1.36699
1.36697
1.36695
1.36692
1.36689
1.36685
1.36681
1.36676
1.3667
1.36664
1.36657
1.36649
1.36641
1.36633
1.36623
1.36614
1.36603
1.36592
1.36581
1.36569
1.36556
1.36544
1.3653
1.36517
1.36503
1.36488
1.36473
1.36458
1.36442
1.36426
1.36409
1.36391
1.36373
1.36354
1.36334
1.36314
1.36292
1.36269
1.36244
1.36218
1.3619
1.36161
1.36129
1.36095
1.36059
1.3602
1.35978
1.35934
1.35887
1.35836
1.35783
1.35727
1.35667
1.35604
1.35538
1.35469
1.35398
1.35323
1.35246
1.35167
1.35085
1.35001
1.34916
1.34829
1.34741
1.34651
1.34561
1.34471
1.3438
1.34288
1.34197
1.34106
1.34015
1.33925
1.33836
1.33748
1.3366
1.33574
1.33488
1.33404
1.33322
1.3324
1.33161
1.33082
1.33006
1.3293
1.32857
1.32785
1.32715
1.32646
1.32579
1.32514
1.3245
1.32388
1.32328
1.32269
1.32212
1.32156
1.32102
1.32049
1.31998
1.31948
1.31899
1.31852
1.31807
1.31763
1.3172
1.31678
1.31638
1.31599
1.31561
1.31524
1.31489
1.31455
1.31421
1.31389
1.31358
1.31329
1.313
1.31272
1.31245
1.3122
1.31195
1.31171
1.31149
1.31127
1.31106
1.31086
1.31067
1.31049
1.31032
1.31015
1.31
1.30985
1.30971
1.30958
1.30947
1.30935
1.30925
1.30915
1.30907
1.30899
1.3089
1.30887
1.30883
1.30873
1.30868
1.30879
1.3087
1.30841
1.30864
1.30903
1.30817
1.30758
1.30943
1.30909
1.3043
1.30628
1.31311
1.30075
1.28862
1.33653
1.3366
1.33647
1.33621
1.33568
1.33502
1.33454
1.33395
1.33328
1.33267
1.33207
1.33143
1.33081
1.33022
1.32962
1.32904
1.32848
1.32793
1.3274
1.3269
1.32641
1.32593
1.32548
1.32505
1.32464
1.32425
1.32388
1.32352
1.32319
1.32288
1.32258
1.32231
1.32205
1.32181
1.32158
1.32138
1.32119
1.32102
1.32086
1.32072
1.3206
1.32049
1.3204
1.32033
1.32027
1.32022
1.3202
1.32019
1.32019
1.32021
1.32024
1.3203
1.32037
1.32045
1.32056
1.32068
1.32082
1.32097
1.32115
1.32135
1.32156
1.3218
1.32206
1.32233
1.32264
1.32296
1.32331
1.32368
1.32408
1.3245
1.32494
1.32542
1.32592
1.32644
1.327
1.32758
1.32819
1.32883
1.3295
1.33019
1.33091
1.33166
1.33243
1.33323
1.33405
1.3349
1.33577
1.33666
1.33756
1.33849
1.33943
1.34038
1.34135
1.34232
1.34329
1.34428
1.34526
1.34624
1.34721
1.34818
1.34914
1.35009
1.35102
1.35193
1.35282
1.35369
1.35453
1.35535
1.35614
1.3569
1.35763
1.35832
1.35898
1.35961
1.3602
1.36075
1.36127
1.36176
1.36221
1.36263
1.36301
1.36337
1.36369
1.36399
1.36426
1.3645
1.36473
1.36492
1.3651
1.36526
1.3654
1.36553
1.36564
1.36573
1.36582
1.36589
1.36595
1.36601
1.36605
1.36609
1.36612
1.36615
1.36617
1.36619
1.3662
1.36621
1.36621
1.36622
1.36622
1.36622
1.36622
1.36622
1.36621
1.36621
1.3662
1.3662
1.36619
1.36619
1.36618
1.36617
1.36617
1.36616
1.36616
1.36615
1.36614
1.36614
1.36613
1.36613
1.36612
1.36612
1.36611
1.36611
1.3661
1.3661
1.3661
1.3661
1.36609
1.36609
1.36609
1.36609
1.36609
1.36609
1.36609
1.36609
1.3661
1.3661
1.3661
1.36611
1.36611
1.36612
1.36612
1.36613
1.36614
1.36614
1.36615
1.36616
1.36617
1.36618
1.3662
1.36621
1.36622
1.36624
1.36625
1.36627
1.36629
1.3663
1.36632
1.36634
1.36636
1.36638
1.36641
1.36643
1.36646
1.36648
1.36651
1.36653
1.36656
1.36659
1.36661
1.36664
1.36667
1.3667
1.36673
1.36675
1.36678
1.36681
1.36683
1.36686
1.36688
1.3669
1.36692
1.36694
1.36695
1.36697
1.36698
1.36698
1.36698
1.36698
1.36698
1.36696
1.36695
1.36693
1.3669
1.36687
1.36683
1.36679
1.36674
1.36668
1.36662
1.36655
1.36647
1.36639
1.3663
1.36621
1.36611
1.36601
1.3659
1.36578
1.36566
1.36554
1.36541
1.36527
1.36514
1.36499
1.36485
1.3647
1.36454
1.36438
1.36422
1.36405
1.36387
1.36369
1.3635
1.3633
1.36309
1.36287
1.36264
1.36239
1.36213
1.36185
1.36155
1.36124
1.3609
1.36053
1.36014
1.35973
1.35928
1.35881
1.3583
1.35777
1.3572
1.35661
1.35598
1.35532
1.35463
1.35391
1.35316
1.35239
1.3516
1.35078
1.34995
1.34909
1.34822
1.34734
1.34645
1.34555
1.34465
1.34374
1.34283
1.34192
1.34101
1.34011
1.33921
1.33832
1.33744
1.33656
1.3357
1.33485
1.33402
1.33319
1.33238
1.33159
1.33081
1.33004
1.32929
1.32856
1.32785
1.32714
1.32646
1.32579
1.32514
1.32451
1.32389
1.32329
1.3227
1.32213
1.32157
1.32103
1.3205
1.31999
1.31949
1.31901
1.31854
1.31808
1.31764
1.31721
1.3168
1.31639
1.316
1.31562
1.31526
1.3149
1.31456
1.31423
1.3139
1.31359
1.3133
1.31301
1.31273
1.31246
1.3122
1.31196
1.31172
1.31149
1.31127
1.31106
1.31086
1.31067
1.31049
1.31031
1.31015
1.30999
1.30984
1.3097
1.30957
1.30945
1.30933
1.30923
1.30913
1.30903
1.30897
1.30889
1.30879
1.30876
1.30877
1.30866
1.30853
1.30871
1.30877
1.30827
1.30829
1.30917
1.30855
1.30686
1.30849
1.31014
1.30541
1.30336
1.30871
1.30936
1.33731
1.33701
1.33685
1.33648
1.33574
1.33518
1.33471
1.33399
1.33332
1.33274
1.33209
1.33143
1.33082
1.33021
1.3296
1.32902
1.32845
1.3279
1.32737
1.32686
1.32637
1.32589
1.32544
1.32501
1.3246
1.32421
1.32384
1.32348
1.32315
1.32284
1.32254
1.32227
1.32201
1.32177
1.32155
1.32134
1.32116
1.32099
1.32083
1.32069
1.32057
1.32046
1.32037
1.3203
1.32024
1.3202
1.32017
1.32016
1.32016
1.32018
1.32021
1.32026
1.32033
1.32042
1.32052
1.32064
1.32078
1.32093
1.32111
1.3213
1.32151
1.32175
1.322
1.32228
1.32257
1.3229
1.32324
1.32361
1.324
1.32442
1.32486
1.32533
1.32583
1.32635
1.3269
1.32748
1.32809
1.32872
1.32938
1.33008
1.33079
1.33154
1.33231
1.33311
1.33393
1.33478
1.33564
1.33653
1.33744
1.33837
1.33931
1.34026
1.34123
1.34221
1.34319
1.34417
1.34516
1.34615
1.34713
1.3481
1.34907
1.35002
1.35096
1.35188
1.35278
1.35365
1.35451
1.35533
1.35613
1.35689
1.35763
1.35833
1.35899
1.35962
1.36022
1.36078
1.3613
1.36179
1.36224
1.36266
1.36305
1.3634
1.36373
1.36402
1.36429
1.36454
1.36476
1.36495
1.36513
1.36529
1.36543
1.36555
1.36566
1.36575
1.36583
1.3659
1.36597
1.36602
1.36606
1.3661
1.36613
1.36615
1.36617
1.36619
1.3662
1.36621
1.36622
1.36622
1.36622
1.36622
1.36622
1.36622
1.36621
1.36621
1.3662
1.3662
1.36619
1.36618
1.36618
1.36617
1.36616
1.36616
1.36615
1.36614
1.36614
1.36613
1.36613
1.36612
1.36612
1.36611
1.36611
1.3661
1.3661
1.3661
1.36609
1.36609
1.36609
1.36609
1.36609
1.36609
1.36608
1.36609
1.36609
1.36609
1.36609
1.36609
1.36609
1.3661
1.3661
1.36611
1.36611
1.36612
1.36613
1.36613
1.36614
1.36615
1.36616
1.36617
1.36618
1.3662
1.36621
1.36622
1.36624
1.36625
1.36627
1.36629
1.36631
1.36633
1.36635
1.36637
1.36639
1.36641
1.36644
1.36646
1.36649
1.36651
1.36654
1.36657
1.36659
1.36662
1.36665
1.36668
1.3667
1.36673
1.36676
1.36679
1.36681
1.36684
1.36686
1.36688
1.3669
1.36692
1.36693
1.36694
1.36695
1.36696
1.36696
1.36696
1.36695
1.36694
1.36693
1.36691
1.36688
1.36685
1.36681
1.36676
1.36671
1.36666
1.3666
1.36653
1.36645
1.36637
1.36628
1.36619
1.36609
1.36598
1.36587
1.36576
1.36564
1.36551
1.36538
1.36525
1.36511
1.36497
1.36482
1.36467
1.36451
1.36435
1.36419
1.36402
1.36384
1.36366
1.36346
1.36326
1.36305
1.36283
1.3626
1.36235
1.36209
1.36181
1.36151
1.36119
1.36085
1.36048
1.36009
1.35967
1.35922
1.35874
1.35824
1.3577
1.35713
1.35652
1.35589
1.35523
1.35453
1.35381
1.35306
1.35229
1.35149
1.35067
1.34983
1.34898
1.34811
1.34723
1.34634
1.34544
1.34453
1.34363
1.34272
1.34181
1.3409
1.34
1.33911
1.33822
1.33734
1.33647
1.33561
1.33477
1.33393
1.33311
1.33231
1.33152
1.33074
1.32998
1.32924
1.32851
1.3278
1.32711
1.32643
1.32576
1.32512
1.32448
1.32387
1.32327
1.32269
1.32212
1.32156
1.32103
1.3205
1.31999
1.3195
1.31902
1.31855
1.31809
1.31765
1.31722
1.31681
1.31641
1.31602
1.31564
1.31527
1.31492
1.31457
1.31424
1.31392
1.31361
1.31331
1.31303
1.31275
1.31248
1.31222
1.31197
1.31174
1.31151
1.31129
1.31108
1.31088
1.31068
1.3105
1.31033
1.31016
1.31001
1.30986
1.30972
1.30959
1.30946
1.30935
1.30925
1.30915
1.30905
1.30897
1.30893
1.30886
1.30876
1.30877
1.30881
1.30866
1.30857
1.30889
1.30887
1.30824
1.30871
1.30971
1.30818
1.30723
1.31061
1.30992
1.30498
1.30832
1.31085
1.33822
1.3378
1.33725
1.33659
1.33605
1.33546
1.33473
1.33403
1.33342
1.33274
1.33205
1.33142
1.33079
1.33015
1.32954
1.32896
1.32838
1.32783
1.3273
1.32678
1.32629
1.32582
1.32536
1.32493
1.32452
1.32413
1.32376
1.32341
1.32308
1.32277
1.32248
1.3222
1.32195
1.32171
1.32149
1.32129
1.3211
1.32093
1.32078
1.32064
1.32052
1.32041
1.32032
1.32025
1.32019
1.32015
1.32012
1.32011
1.32011
1.32013
1.32016
1.32021
1.32028
1.32036
1.32046
1.32058
1.32072
1.32087
1.32104
1.32123
1.32144
1.32167
1.32192
1.32219
1.32249
1.3228
1.32315
1.32351
1.3239
1.32431
1.32475
1.32521
1.32571
1.32623
1.32677
1.32735
1.32795
1.32858
1.32924
1.32993
1.33064
1.33139
1.33216
1.33295
1.33377
1.33462
1.33549
1.33638
1.33729
1.33822
1.33916
1.34012
1.34109
1.34207
1.34306
1.34405
1.34504
1.34604
1.34702
1.34801
1.34898
1.34994
1.35089
1.35182
1.35273
1.35361
1.35448
1.35531
1.35612
1.35689
1.35763
1.35834
1.35901
1.35965
1.36025
1.36081
1.36134
1.36183
1.36229
1.36271
1.3631
1.36345
1.36378
1.36407
1.36434
1.36458
1.3648
1.36499
1.36517
1.36532
1.36546
1.36558
1.36569
1.36578
1.36586
1.36593
1.36598
1.36603
1.36608
1.36611
1.36614
1.36616
1.36618
1.3662
1.36621
1.36622
1.36622
1.36622
1.36622
1.36622
1.36622
1.36622
1.36621
1.36621
1.3662
1.36619
1.36619
1.36618
1.36617
1.36617
1.36616
1.36615
1.36615
1.36614
1.36613
1.36613
1.36612
1.36612
1.36611
1.36611
1.3661
1.3661
1.36609
1.36609
1.36609
1.36608
1.36608
1.36608
1.36608
1.36608
1.36608
1.36608
1.36608
1.36608
1.36608
1.36608
1.36609
1.36609
1.36609
1.3661
1.3661
1.36611
1.36612
1.36612
1.36613
1.36614
1.36615
1.36616
1.36617
1.36618
1.3662
1.36621
1.36623
1.36624
1.36626
1.36627
1.36629
1.36631
1.36633
1.36635
1.36637
1.3664
1.36642
1.36644
1.36647
1.36649
1.36652
1.36655
1.36657
1.3666
1.36663
1.36666
1.36668
1.36671
1.36674
1.36676
1.36679
1.36681
1.36684
1.36686
1.36688
1.36689
1.36691
1.36692
1.36693
1.36694
1.36694
1.36694
1.36693
1.36692
1.36691
1.36688
1.36686
1.36683
1.36679
1.36674
1.36669
1.36664
1.36657
1.3665
1.36643
1.36635
1.36626
1.36617
1.36607
1.36596
1.36585
1.36573
1.36561
1.36549
1.36536
1.36522
1.36509
1.36494
1.3648
1.36465
1.36449
1.36433
1.36416
1.36399
1.36382
1.36363
1.36344
1.36324
1.36303
1.36281
1.36257
1.36232
1.36205
1.36177
1.36147
1.36115
1.3608
1.36043
1.36003
1.35961
1.35915
1.35867
1.35815
1.35761
1.35703
1.35642
1.35578
1.35511
1.35441
1.35368
1.35292
1.35214
1.35134
1.35051
1.34967
1.34881
1.34794
1.34706
1.34616
1.34526
1.34436
1.34345
1.34254
1.34164
1.34073
1.33983
1.33894
1.33805
1.33718
1.33631
1.33546
1.33462
1.33379
1.33298
1.33218
1.33139
1.33062
1.32987
1.32914
1.32841
1.32771
1.32702
1.32635
1.32569
1.32505
1.32443
1.32382
1.32323
1.32265
1.32209
1.32154
1.32101
1.32049
1.31998
1.31949
1.31901
1.31855
1.3181
1.31766
1.31724
1.31682
1.31643
1.31604
1.31566
1.3153
1.31494
1.3146
1.31427
1.31395
1.31365
1.31335
1.31306
1.31278
1.31252
1.31226
1.31201
1.31178
1.31155
1.31133
1.31112
1.31092
1.31073
1.31055
1.31038
1.31021
1.31006
1.30991
1.30977
1.30964
1.30953
1.30942
1.30931
1.30922
1.30916
1.30907
1.30899
1.30899
1.30896
1.30884
1.30888
1.30906
1.30889
1.30871
1.30928
1.3095
1.30854
1.30901
1.31083
1.30944
1.30775
1.31104
1.31285
1.30985
1.30952
1.33928
1.33846
1.33772
1.33697
1.33634
1.33558
1.33479
1.33413
1.33344
1.33269
1.33202
1.33137
1.3307
1.33006
1.32945
1.32885
1.32827
1.32772
1.32718
1.32667
1.32617
1.3257
1.32525
1.32482
1.32441
1.32402
1.32366
1.32331
1.32298
1.32267
1.32238
1.32211
1.32186
1.32163
1.32141
1.32121
1.32102
1.32086
1.3207
1.32057
1.32045
1.32035
1.32026
1.32018
1.32013
1.32008
1.32005
1.32004
1.32004
1.32006
1.3201
1.32014
1.32021
1.32029
1.32039
1.3205
1.32064
1.32079
1.32096
1.32114
1.32135
1.32158
1.32182
1.32209
1.32238
1.32269
1.32303
1.32339
1.32377
1.32418
1.32461
1.32507
1.32556
1.32607
1.32661
1.32718
1.32778
1.32841
1.32906
1.32975
1.33046
1.3312
1.33197
1.33276
1.33358
1.33443
1.3353
1.33619
1.3371
1.33803
1.33898
1.33995
1.34092
1.34191
1.3429
1.3439
1.3449
1.3459
1.3469
1.34789
1.34888
1.34985
1.3508
1.35175
1.35267
1.35357
1.35444
1.35529
1.3561
1.35689
1.35764
1.35836
1.35904
1.35968
1.36029
1.36086
1.36139
1.36189
1.36234
1.36277
1.36316
1.36351
1.36384
1.36413
1.3644
1.36464
1.36485
1.36504
1.36521
1.36537
1.3655
1.36562
1.36572
1.36581
1.36588
1.36595
1.36601
1.36605
1.36609
1.36613
1.36615
1.36618
1.36619
1.36621
1.36621
1.36622
1.36623
1.36623
1.36623
1.36622
1.36622
1.36622
1.36621
1.36621
1.3662
1.36619
1.36619
1.36618
1.36617
1.36616
1.36616
1.36615
1.36614
1.36614
1.36613
1.36612
1.36612
1.36611
1.36611
1.3661
1.3661
1.36609
1.36609
1.36608
1.36608
1.36608
1.36608
1.36607
1.36607
1.36607
1.36607
1.36607
1.36607
1.36607
1.36607
1.36608
1.36608
1.36608
1.36608
1.36609
1.36609
1.3661
1.36611
1.36611
1.36612
1.36613
1.36614
1.36615
1.36616
1.36617
1.36618
1.3662
1.36621
1.36623
1.36624
1.36626
1.36628
1.3663
1.36632
1.36634
1.36636
1.36638
1.3664
1.36643
1.36645
1.36648
1.3665
1.36653
1.36655
1.36658
1.36661
1.36663
1.36666
1.36669
1.36672
1.36674
1.36677
1.36679
1.36681
1.36683
1.36685
1.36687
1.36689
1.3669
1.36691
1.36691
1.36692
1.36691
1.36691
1.3669
1.36688
1.36686
1.36684
1.3668
1.36677
1.36672
1.36667
1.36661
1.36655
1.36648
1.36641
1.36633
1.36624
1.36614
1.36604
1.36594
1.36583
1.36571
1.36559
1.36547
1.36534
1.3652
1.36507
1.36492
1.36478
1.36463
1.36447
1.36431
1.36415
1.36398
1.3638
1.36362
1.36342
1.36322
1.36301
1.36279
1.36255
1.3623
1.36203
1.36174
1.36143
1.36111
1.36075
1.36038
1.35997
1.35954
1.35908
1.35858
1.35806
1.3575
1.35691
1.35629
1.35564
1.35496
1.35424
1.35351
1.35274
1.35195
1.35114
1.35031
1.34946
1.3486
1.34772
1.34683
1.34593
1.34503
1.34412
1.34322
1.34231
1.3414
1.3405
1.3396
1.33871
1.33783
1.33695
1.33609
1.33524
1.33441
1.33359
1.33278
1.33199
1.33121
1.33045
1.3297
1.32898
1.32827
1.32757
1.32689
1.32623
1.32558
1.32495
1.32434
1.32374
1.32315
1.32259
1.32203
1.32149
1.32097
1.32046
1.31996
1.31948
1.31901
1.31855
1.3181
1.31767
1.31725
1.31685
1.31645
1.31607
1.3157
1.31533
1.31499
1.31465
1.31432
1.314
1.3137
1.3134
1.31312
1.31284
1.31258
1.31233
1.31208
1.31185
1.31162
1.3114
1.3112
1.311
1.31081
1.31063
1.31046
1.3103
1.31015
1.31001
1.30988
1.30976
1.30964
1.30955
1.30945
1.30936
1.3093
1.30926
1.30919
1.30915
1.30921
1.30921
1.3091
1.30925
1.30951
1.30931
1.30927
1.31011
1.3102
1.30936
1.31059
1.31208
1.31068
1.3109
1.31343
1.3137
1.31434
1.34032
1.33906
1.33823
1.3374
1.33651
1.33567
1.33493
1.33417
1.33337
1.33265
1.33196
1.33125
1.33058
1.32994
1.32931
1.3287
1.32812
1.32756
1.32702
1.32651
1.32602
1.32555
1.3251
1.32467
1.32427
1.32388
1.32352
1.32318
1.32285
1.32255
1.32226
1.322
1.32175
1.32152
1.3213
1.32111
1.32092
1.32076
1.32061
1.32048
1.32036
1.32026
1.32017
1.3201
1.32004
1.32
1.31997
1.31996
1.31996
1.31998
1.32001
1.32006
1.32012
1.3202
1.3203
1.32041
1.32054
1.32069
1.32085
1.32104
1.32124
1.32146
1.3217
1.32197
1.32225
1.32256
1.32289
1.32324
1.32362
1.32402
1.32445
1.3249
1.32538
1.32589
1.32643
1.32699
1.32758
1.32821
1.32886
1.32953
1.33024
1.33098
1.33174
1.33254
1.33336
1.3342
1.33507
1.33597
1.33688
1.33782
1.33877
1.33974
1.34072
1.34171
1.34271
1.34372
1.34473
1.34574
1.34675
1.34775
1.34875
1.34973
1.3507
1.35166
1.35259
1.35351
1.35439
1.35525
1.35608
1.35688
1.35765
1.35838
1.35907
1.35972
1.36033
1.36091
1.36145
1.36195
1.36241
1.36284
1.36322
1.36358
1.3639
1.3642
1.36446
1.3647
1.36491
1.3651
1.36527
1.36542
1.36555
1.36566
1.36576
1.36584
1.36592
1.36598
1.36603
1.36608
1.36611
1.36614
1.36617
1.36619
1.3662
1.36622
1.36622
1.36623
1.36623
1.36623
1.36623
1.36623
1.36622
1.36622
1.36621
1.36621
1.3662
1.36619
1.36618
1.36618
1.36617
1.36616
1.36615
1.36615
1.36614
1.36613
1.36613
1.36612
1.36611
1.36611
1.3661
1.3661
1.36609
1.36609
1.36608
1.36608
1.36608
1.36607
1.36607
1.36607
1.36607
1.36606
1.36606
1.36606
1.36606
1.36606
1.36607
1.36607
1.36607
1.36607
1.36608
1.36608
1.36609
1.36609
1.3661
1.3661
1.36611
1.36612
1.36613
1.36614
1.36615
1.36616
1.36617
1.36618
1.3662
1.36621
1.36623
1.36625
1.36626
1.36628
1.3663
1.36632
1.36634
1.36636
1.36638
1.36641
1.36643
1.36646
1.36648
1.36651
1.36653
1.36656
1.36659
1.36661
1.36664
1.36667
1.36669
1.36672
1.36674
1.36677
1.36679
1.36681
1.36683
1.36685
1.36686
1.36688
1.36688
1.36689
1.36689
1.36689
1.36688
1.36687
1.36686
1.36684
1.36681
1.36678
1.36674
1.3667
1.36665
1.36659
1.36653
1.36646
1.36638
1.3663
1.36621
1.36612
1.36602
1.36592
1.36581
1.36569
1.36557
1.36545
1.36532
1.36519
1.36505
1.36491
1.36476
1.36461
1.36446
1.3643
1.36414
1.36396
1.36379
1.36361
1.36341
1.36321
1.363
1.36277
1.36253
1.36228
1.36201
1.36172
1.36141
1.36107
1.36071
1.36033
1.35991
1.35947
1.35899
1.35849
1.35795
1.35738
1.35678
1.35614
1.35548
1.35478
1.35405
1.3533
1.35252
1.35172
1.3509
1.35006
1.3492
1.34833
1.34744
1.34655
1.34565
1.34474
1.34383
1.34292
1.34201
1.3411
1.3402
1.33931
1.33842
1.33754
1.33667
1.33581
1.33497
1.33414
1.33332
1.33252
1.33174
1.33097
1.33022
1.32949
1.32877
1.32807
1.32738
1.32671
1.32607
1.32543
1.32481
1.32421
1.32363
1.32305
1.32249
1.32195
1.32143
1.32091
1.32041
1.31992
1.31945
1.31899
1.31854
1.31811
1.31768
1.31727
1.31687
1.31648
1.31611
1.31574
1.31539
1.31504
1.31471
1.31439
1.31408
1.31378
1.31349
1.31321
1.31293
1.31267
1.31242
1.31218
1.31195
1.31173
1.31152
1.31131
1.31112
1.31094
1.31076
1.3106
1.31045
1.3103
1.31016
1.31004
1.30993
1.30982
1.30973
1.30966
1.30959
1.30952
1.3095
1.30951
1.30946
1.30945
1.3096
1.30966
1.30955
1.30983
1.3103
1.31006
1.31007
1.31133
1.31158
1.3107
1.31215
1.31425
1.31368
1.31368
1.31648
1.31852
1.34116
1.33966
1.33867
1.33766
1.33667
1.3358
1.33496
1.3341
1.3333
1.33257
1.33182
1.33109
1.33042
1.32976
1.32912
1.32851
1.32793
1.32736
1.32683
1.32632
1.32583
1.32536
1.32492
1.32449
1.32409
1.32371
1.32336
1.32302
1.3227
1.3224
1.32212
1.32186
1.32161
1.32139
1.32118
1.32098
1.32081
1.32065
1.3205
1.32037
1.32026
1.32016
1.32007
1.32
1.31994
1.3199
1.31988
1.31986
1.31986
1.31988
1.31991
1.31996
1.32002
1.3201
1.32019
1.3203
1.32043
1.32057
1.32073
1.32091
1.32111
1.32133
1.32156
1.32182
1.3221
1.3224
1.32273
1.32307
1.32344
1.32384
1.32426
1.32471
1.32518
1.32568
1.32621
1.32677
1.32736
1.32797
1.32861
1.32929
1.33
1.33073
1.33149
1.33228
1.3331
1.33394
1.33481
1.33571
1.33662
1.33756
1.33852
1.33949
1.34048
1.34148
1.34249
1.34351
1.34452
1.34555
1.34657
1.34758
1.34859
1.34959
1.35058
1.35155
1.3525
1.35343
1.35433
1.35521
1.35605
1.35687
1.35765
1.35839
1.35909
1.35976
1.36038
1.36097
1.36151
1.36202
1.36248
1.36291
1.3633
1.36366
1.36398
1.36427
1.36453
1.36476
1.36497
1.36516
1.36532
1.36547
1.3656
1.3657
1.3658
1.36588
1.36595
1.36601
1.36606
1.3661
1.36614
1.36616
1.36619
1.3662
1.36622
1.36623
1.36623
1.36624
1.36624
1.36624
1.36623
1.36623
1.36622
1.36622
1.36621
1.3662
1.3662
1.36619
1.36618
1.36617
1.36617
1.36616
1.36615
1.36614
1.36614
1.36613
1.36612
1.36612
1.36611
1.3661
1.3661
1.36609
1.36609
1.36608
1.36608
1.36607
1.36607
1.36607
1.36606
1.36606
1.36606
1.36606
1.36606
1.36606
1.36606
1.36606
1.36606
1.36606
1.36606
1.36606
1.36607
1.36607
1.36608
1.36608
1.36609
1.36609
1.3661
1.36611
1.36612
1.36613
1.36614
1.36615
1.36616
1.36617
1.36619
1.3662
1.36622
1.36623
1.36625
1.36627
1.36628
1.3663
1.36632
1.36635
1.36637
1.36639
1.36641
1.36644
1.36646
1.36649
1.36651
1.36654
1.36657
1.36659
1.36662
1.36664
1.36667
1.3667
1.36672
1.36674
1.36677
1.36679
1.36681
1.36682
1.36684
1.36685
1.36686
1.36686
1.36687
1.36686
1.36686
1.36685
1.36683
1.36681
1.36678
1.36675
1.36671
1.36667
1.36662
1.36656
1.3665
1.36643
1.36635
1.36627
1.36619
1.36609
1.36599
1.36589
1.36578
1.36567
1.36555
1.36543
1.3653
1.36517
1.36503
1.36489
1.36475
1.3646
1.36445
1.36429
1.36413
1.36396
1.36379
1.3636
1.36341
1.36321
1.36299
1.36277
1.36253
1.36227
1.36199
1.3617
1.36138
1.36104
1.36067
1.36027
1.35985
1.35939
1.3589
1.35838
1.35783
1.35724
1.35662
1.35597
1.35529
1.35457
1.35383
1.35306
1.35227
1.35145
1.35062
1.34977
1.3489
1.34802
1.34713
1.34623
1.34532
1.34441
1.3435
1.34258
1.34167
1.34076
1.33986
1.33896
1.33808
1.3372
1.33633
1.33548
1.33464
1.33382
1.33301
1.33221
1.33144
1.33068
1.32994
1.32922
1.32851
1.32782
1.32715
1.3265
1.32586
1.32524
1.32464
1.32405
1.32348
1.32292
1.32238
1.32185
1.32133
1.32083
1.32035
1.31987
1.31941
1.31896
1.31853
1.3181
1.31769
1.31729
1.3169
1.31652
1.31615
1.3158
1.31545
1.31512
1.31479
1.31448
1.31417
1.31388
1.31359
1.31332
1.31305
1.3128
1.31255
1.31232
1.31209
1.31188
1.31167
1.31147
1.31129
1.31111
1.31094
1.31078
1.31063
1.3105
1.31037
1.31026
1.31015
1.31007
1.30998
1.30992
1.30988
1.30985
1.30981
1.30983
1.3099
1.30989
1.30994
1.3102
1.31031
1.31027
1.31074
1.31131
1.31112
1.31149
1.31288
1.31316
1.31307
1.31464
1.31617
1.31699
1.3183
1.31988
1.34176
1.34011
1.33896
1.33781
1.33679
1.33584
1.33488
1.33401
1.3332
1.33239
1.33161
1.3309
1.3302
1.32952
1.32888
1.32828
1.32769
1.32713
1.32659
1.32608
1.3256
1.32514
1.3247
1.32428
1.32389
1.32352
1.32317
1.32283
1.32252
1.32223
1.32196
1.3217
1.32146
1.32124
1.32104
1.32085
1.32067
1.32052
1.32038
1.32025
1.32014
1.32004
1.31996
1.31989
1.31983
1.31979
1.31977
1.31975
1.31976
1.31977
1.3198
1.31985
1.31991
1.31998
1.32007
1.32018
1.3203
1.32044
1.3206
1.32078
1.32097
1.32118
1.32141
1.32166
1.32193
1.32223
1.32255
1.32288
1.32325
1.32364
1.32405
1.32448
1.32496
1.32545
1.32597
1.32652
1.3271
1.3277
1.32834
1.32902
1.32971
1.33044
1.3312
1.33199
1.3328
1.33365
1.33452
1.33541
1.33633
1.33727
1.33823
1.33921
1.3402
1.34121
1.34223
1.34326
1.34429
1.34532
1.34635
1.34738
1.34841
1.34942
1.35042
1.35141
1.35238
1.35332
1.35425
1.35514
1.35601
1.35684
1.35764
1.35839
1.35911
1.35979
1.36043
1.36102
1.36157
1.36208
1.36255
1.36298
1.36338
1.36374
1.36406
1.36434
1.36461
1.36484
1.36504
1.36522
1.36539
1.36552
1.36564
1.36575
1.36584
1.36592
1.36599
1.36604
1.36609
1.36613
1.36616
1.36618
1.3662
1.36622
1.36623
1.36624
1.36624
1.36624
1.36624
1.36624
1.36624
1.36623
1.36623
1.36622
1.36621
1.3662
1.3662
1.36619
1.36618
1.36617
1.36616
1.36616
1.36615
1.36614
1.36613
1.36613
1.36612
1.36611
1.3661
1.3661
1.36609
1.36609
1.36608
1.36608
1.36607
1.36607
1.36606
1.36606
1.36606
1.36606
1.36605
1.36605
1.36605
1.36605