# vtk DataFile Version 2.0
LBE two cylinders
ASCII
DATASET STRUCTURED_POINTS
DIMENSIONS 400 100 1
ASPECT_RATIO 1 1 1
ORIGIN 0 0 0
POINT_DATA 40000
SCALARS rho double 1
LOOKUP_TABLE default
1.33304
1.32991
1.33057
1.33098
1.33022
1.33006
1.33013
1.32977
1.32947
1.32929
1.329
1.32867
1.32838
1.32806
1.32772
1.32737
1.32702
1.32665
1.32627
1.32588
1.32548
1.32507
1.32466
1.32425
1.32383
1.3234
1.32298
1.32256
1.32213
1.32171
1.32129
1.32088
1.32047
1.32006
1.31966
1.31927
1.31889
1.31852
1.31818
1.31785
1.31756
1.3173
1.31708
1.3169
1.31677
1.31669
1.31667
1.31669
1.31676
1.31687
1.31702
1.31721
1.31742
1.31766
1.31791
1.31819
1.31847
1.31876
1.31907
1.31938
1.3197
1.32003
1.32037
1.32071
1.32107
1.32143
1.3218
1.32218
1.32258
1.32298
1.3234
1.32384
1.3243
1.32478
1.32529
1.32582
1.32639
1.32698
1.32761
1.32827
1.32897
1.32969
1.33045
1.33123
1.33204
1.33288
1.33374
1.33462
1.33552
1.33644
1.33737
1.33831
1.33926
1.34023
1.3412
1.34217
1.34316
1.34414
1.34513
1.34612
1.34711
1.3481
1.34908
1.35004
1.35099
1.35191
1.3528
1.35366
1.35447
1.35524
1.35595
1.35661
1.35722
1.35776
1.35825
1.35868
1.35905
1.35937
1.35964
1.35987
1.36006
1.36021
1.36032
1.36041
1.36047
1.3605
1.36051
1.36051
1.36049
1.36046
1.36041
1.36036
1.3603
1.36024
1.36018
1.36012
1.36005
1.35999
1.35994
1.35988
1.35983
1.35979
1.35975
1.35972
1.35969
1.35966
1.35965
1.35963
1.35963
1.35963
1.35964
1.35966
1.35968
1.35972
1.35977
1.35983
1.35991
1.36
1.36011
1.36024
1.36039
1.36056
1.36075
1.36097
1.36121
1.36147
1.36175
1.36206
1.36239
1.36274
1.3631
1.36348
1.36386
1.36425
1.36463
1.36501
1.36536
1.3657
1.36601
1.36629
1.36654
1.36675
1.36692
1.36705
1.36716
1.36724
1.36729
1.36732
1.36734
1.36734
1.36733
1.36732
1.36729
1.36725
1.3672
1.36713
1.36705
1.36696
1.36685
1.36673
1.3666
1.36646
1.36631
1.36617
1.36603
1.3659
1.36577
1.36566
1.36557
1.36548
1.36541
1.36535
1.3653
1.36525
1.3652
1.36515
1.36508
1.36501
1.36492
1.36482
1.3647
1.36457
1.36442
1.36426
1.36408
1.36388
1.36368
1.36345
1.36322
1.36298
1.36273
1.36247
1.3622
1.36193
1.36165
1.36138
1.36111
1.36084
1.36058
1.36032
1.36008
1.35985
1.35963
1.35944
1.35926
1.35909
1.35895
1.35884
1.35874
1.35866
1.35861
1.35857
1.35856
1.35856
1.35858
1.35862
1.35867
1.35874
1.35882
1.35892
1.35902
1.35914
1.35926
1.3594
1.35954
1.35969
1.35985
1.36001
1.36016
1.36032
1.36047
1.36061
1.36073
1.36084
1.36093
1.36098
1.36101
1.361
1.36096
1.36087
1.36073
1.36055
1.36032
1.36003
1.3597
1.35931
1.35887
1.35838
1.35784
1.35726
1.35663
1.35596
1.35525
1.35452
1.35375
1.35296
1.35216
1.35134
1.35051
1.34968
1.34884
1.348
1.34715
1.34631
1.34546
1.34461
1.34376
1.3429
1.34205
1.34118
1.34032
1.33944
1.33857
1.33769
1.33681
1.33593
1.33506
1.33419
1.33332
1.33246
1.33162
1.33079
1.32997
1.32917
1.32839
1.32764
1.3269
1.32619
1.3255
1.32484
1.3242
1.32359
1.323
1.32244
1.32189
1.32136
1.32085
1.32035
1.31986
1.31937
1.31889
1.31842
1.31794
1.31747
1.31699
1.31652
1.31605
1.31558
1.31512
1.31466
1.31421
1.31377
1.31334
1.31292
1.31251
1.31212
1.31173
1.31137
1.31102
1.3107
1.31039
1.31012
1.30988
1.30967
1.3095
1.30938
1.3093
1.30927
1.30929
1.30936
1.30947
1.30963
1.30982
1.31005
1.31031
1.31057
1.31085
1.31113
1.31139
1.31163
1.31185
1.31204
1.31215
1.31224
1.31233
1.31229
1.31211
1.31211
1.31207
1.31145
1.31096
1.31146
1.31091
1.30833
1.30861
1.3118
1.30664
1.29726
1.30682
1.31503
1.33084
1.33105
1.33074
1.33033
1.33031
1.33018
1.32989
1.32965
1.32944
1.32915
1.32884
1.32856
1.32824
1.32791
1.32758
1.32723
1.32688
1.32651
1.32614
1.32576
1.32537
1.32497
1.32457
1.32416
1.32376
1.32334
1.32293
1.32252
1.3221
1.32169
1.32128
1.32087
1.32047
1.32007
1.31967
1.31929
1.31891
1.31855
1.31821
1.31789
1.3176
1.31734
1.31712
1.31694
1.31681
1.31673
1.3167
1.31672
1.31678
1.31689
1.31703
1.31721
1.31742
1.31765
1.3179
1.31816
1.31844
1.31873
1.31903
1.31934
1.31967
1.31999
1.32033
1.32068
1.32103
1.32139
1.32177
1.32215
1.32254
1.32295
1.32337
1.32381
1.32426
1.32475
1.32525
1.32579
1.32635
1.32695
1.32757
1.32823
1.32892
1.32965
1.3304
1.33118
1.33199
1.33283
1.33368
1.33456
1.33546
1.33638
1.33731
1.33825
1.33921
1.34017
1.34114
1.34212
1.34311
1.3441
1.34509
1.34608
1.34707
1.34806
1.34904
1.35
1.35094
1.35186
1.35276
1.35361
1.35442
1.35519
1.3559
1.35656
1.35716
1.35771
1.3582
1.35863
1.359
1.35933
1.3596
1.35983
1.36002
1.36017
1.36029
1.36038
1.36044
1.36048
1.3605
1.3605
1.36048
1.36045
1.36041
1.36036
1.36031
1.36025
1.36019
1.36013
1.36007
1.36001
1.35996
1.35991
1.35986
1.35982
1.35978
1.35975
1.35972
1.3597
1.35968
1.35967
1.35967
1.35967
1.35968
1.3597
1.35973
1.35976
1.35981
1.35988
1.35996
1.36005
1.36016
1.36029
1.36044
1.36062
1.36081
1.36102
1.36126
1.36152
1.3618
1.36211
1.36243
1.36277
1.36313
1.3635
1.36387
1.36425
1.36462
1.36499
1.36534
1.36567
1.36597
1.36625
1.3665
1.36671
1.36688
1.36702
1.36714
1.36722
1.36728
1.36732
1.36734
1.36734
1.36734
1.36732
1.36729
1.36725
1.3672
1.36714
1.36706
1.36697
1.36686
1.36674
1.36661
1.36647
1.36633
1.36618
1.36605
1.36591
1.36579
1.36568
1.36558
1.3655
1.36542
1.36536
1.3653
1.36525
1.36519
1.36513
1.36506
1.36498
1.36489
1.36479
1.36467
1.36453
1.36438
1.36422
1.36404
1.36385
1.36364
1.36342
1.36319
1.36295
1.3627
1.36245
1.36218
1.36192
1.36165
1.36138
1.36111
1.36084
1.36058
1.36033
1.36009
1.35986
1.35965
1.35945
1.35928
1.35912
1.35898
1.35886
1.35876
1.35868
1.35863
1.35859
1.35858
1.35858
1.3586
1.35864
1.35869
1.35875
1.35883
1.35892
1.35902
1.35914
1.35926
1.35939
1.35953
1.35968
1.35983
1.35998
1.36013
1.36028
1.36042
1.36055
1.36067
1.36077
1.36084
1.3609
1.36092
1.3609
1.36085
1.36076
1.36062
1.36044
1.3602
1.35992
1.35959
1.3592
1.35877
1.35829
1.35775
1.35718
1.35655
1.35589
1.3552
1.35447
1.35371
1.35293
1.35213
1.35132
1.3505
1.34967
1.34883
1.34799
1.34715
1.3463
1.34546
1.34461
1.34376
1.3429
1.34205
1.34118
1.34032
1.33945
1.33857
1.3377
1.33682
1.33595
1.33507
1.3342
1.33334
1.33249
1.33165
1.33082
1.33
1.3292
1.32843
1.32767
1.32693
1.32622
1.32553
1.32486
1.32422
1.32361
1.32301
1.32244
1.32189
1.32135
1.32083
1.32033
1.31983
1.31934
1.31886
1.31838
1.31791
1.31743
1.31696
1.31649
1.31602
1.31556
1.3151
1.31465
1.3142
1.31377
1.31334
1.31292
1.31252
1.31213
1.31175
1.31138
1.31104
1.31071
1.31041
1.31014
1.3099
1.30969
1.30952
1.30939
1.3093
1.30926
1.30927
1.30932
1.30942
1.30955
1.30973
1.30993
1.31016
1.3104
1.31065
1.3109
1.31114
1.31136
1.31155
1.31171
1.31184
1.3119
1.3119
1.31192
1.31185
1.31159
1.31138
1.31136
1.31086
1.30997
1.30991
1.31008
1.30781
1.30567
1.30761
1.30647
1.29594
1.28983
1.32986
1.33111
1.33045
1.32994
1.33032
1.33006
1.32961
1.32948
1.32926
1.32888
1.32858
1.3283
1.32795
1.32761
1.32729
1.32694
1.32658
1.32623
1.32586
1.32549
1.32512
1.32474
1.32435
1.32396
1.32357
1.32318
1.32278
1.32239
1.32199
1.32159
1.3212
1.3208
1.32041
1.32002
1.31964
1.31926
1.31889
1.31854
1.3182
1.31788
1.3176
1.31734
1.31712
1.31694
1.31681
1.31673
1.31669
1.3167
1.31675
1.31685
1.31699
1.31716
1.31736
1.31758
1.31782
1.31808
1.31836
1.31865
1.31895
1.31926
1.31958
1.3199
1.32024
1.32059
1.32094
1.32131
1.32168
1.32206
1.32246
1.32287
1.32329
1.32373
1.32419
1.32467
1.32517
1.32571
1.32627
1.32686
1.32749
1.32815
1.32883
1.32955
1.33031
1.33109
1.33189
1.33273
1.33359
1.33447
1.33537
1.33629
1.33722
1.33817
1.33913
1.3401
1.34109
1.34207
1.34307
1.34407
1.34507
1.34607
1.34707
1.34806
1.34904
1.35001
1.35096
1.35188
1.35277
1.35362
1.35443
1.35519
1.35591
1.35656
1.35716
1.35771
1.35819
1.35862
1.359
1.35932
1.35959
1.35982
1.36001
1.36017
1.36029
1.36038
1.36044
1.36048
1.3605
1.3605
1.36049
1.36046
1.36043
1.36038
1.36033
1.36028
1.36023
1.36017
1.36011
1.36006
1.36001
1.35996
1.35992
1.35988
1.35984
1.35981
1.35979
1.35977
1.35975
1.35974
1.35974
1.35974
1.35975
1.35977
1.3598
1.35984
1.3599
1.35996
1.36004
1.36014
1.36025
1.36038
1.36053
1.36071
1.3609
1.36111
1.36135
1.36161
1.36189
1.36218
1.3625
1.36283
1.36318
1.36353
1.36389
1.36426
1.36462
1.36497
1.36531
1.36564
1.36593
1.36621
1.36645
1.36666
1.36684
1.36699
1.36711
1.3672
1.36727
1.36732
1.36735
1.36736
1.36736
1.36735
1.36732
1.36728
1.36723
1.36717
1.36709
1.367
1.36689
1.36677
1.36664
1.3665
1.36636
1.36622
1.36608
1.36595
1.36583
1.36571
1.36561
1.36552
1.36545
1.36538
1.36531
1.36525
1.36519
1.36512
1.36504
1.36496
1.36486
1.36475
1.36463
1.36449
1.36434
1.36418
1.364
1.36381
1.36361
1.36339
1.36317
1.36293
1.36269
1.36244
1.36218
1.36192
1.36165
1.36139
1.36112
1.36086
1.36061
1.36036
1.36012
1.3599
1.35969
1.35949
1.35932
1.35916
1.35902
1.35891
1.35881
1.35873
1.35868
1.35864
1.35863
1.35863
1.35865
1.35868
1.35873
1.35879
1.35887
1.35896
1.35906
1.35917
1.35929
1.35942
1.35955
1.35969
1.35983
1.35998
1.36012
1.36026
1.3604
1.36052
1.36063
1.36072
1.36079
1.36083
1.36085
1.36083
1.36077
1.36067
1.36053
1.36035
1.36012
1.35984
1.35951
1.35913
1.3587
1.35823
1.3577
1.35713
1.35652
1.35587
1.35518
1.35446
1.35371
1.35293
1.35214
1.35133
1.35051
1.34968
1.34884
1.348
1.34716
1.34631
1.34546
1.34461
1.34375
1.34289
1.34203
1.34116
1.34029
1.33942
1.33854
1.33767
1.33679
1.33591
1.33504
1.33417
1.33331
1.33246
1.33162
1.33079
1.32998
1.32918
1.3284
1.32765
1.32691
1.32619
1.3255
1.32483
1.32418
1.32356
1.32296
1.32238
1.32182
1.32128
1.32075
1.32023
1.31973
1.31924
1.31875
1.31827
1.3178
1.31733
1.31686
1.31639
1.31593
1.31548
1.31503
1.31459
1.31415
1.31372
1.3133
1.31289
1.31249
1.3121
1.31173
1.31137
1.31103
1.31071
1.31041
1.31013
1.30989
1.30968
1.3095
1.30936
1.30927
1.30921
1.3092
1.30923
1.3093
1.30941
1.30955
1.30972
1.30991
1.31012
1.31034
1.31055
1.31075
1.31095
1.31111
1.31123
1.31135
1.31143
1.31138
1.31133
1.31137
1.31117
1.31069
1.31067
1.31075
1.30954
1.3085
1.30984
1.309
1.30366
1.30495
1.31109
1.29825
1.28578
1.32987
1.33005
1.33018
1.33027
1.33002
1.32964
1.32949
1.32923
1.32884
1.32853
1.32823
1.32787
1.32752
1.32719
1.32684
1.32649
1.32614
1.32579
1.32544
1.32508
1.32473
1.32436
1.324
1.32364
1.32327
1.3229
1.32253
1.32216
1.32179
1.32141
1.32104
1.32066
1.32029
1.31991
1.31954
1.31918
1.31882
1.31847
1.31814
1.31783
1.31755
1.31729
1.31707
1.31689
1.31676
1.31666
1.31662
1.31662
1.31667
1.31676
1.31689
1.31705
1.31724
1.31745
1.31769
1.31795
1.31822
1.3185
1.3188
1.31911
1.31944
1.31977
1.32011
1.32045
1.32081
1.32118
1.32155
1.32193
1.32233
1.32274
1.32316
1.3236
1.32406
1.32454
1.32504
1.32558
1.32614
1.32673
1.32735
1.32801
1.3287
1.32941
1.33016
1.33094
1.33175
1.33259
1.33345
1.33433
1.33524
1.33616
1.3371
1.33806
1.33904
1.34002
1.34102
1.34202
1.34303
1.34404
1.34506
1.34608
1.34709
1.34809
1.34908
1.35005
1.35101
1.35193
1.35282
1.35368
1.35449
1.35525
1.35596
1.35661
1.35721
1.35775
1.35823
1.35865
1.35902
1.35934
1.35961
1.35984
1.36003
1.36018
1.3603
1.36039
1.36045
1.36049
1.36052
1.36052
1.36051
1.36049
1.36046
1.36042
1.36038
1.36033
1.36028
1.36023
1.36018
1.36013
1.36008
1.36004
1.36
1.35997
1.35993
1.35991
1.35988
1.35987
1.35985
1.35985
1.35985
1.35985
1.35986
1.35989
1.35992
1.35996
1.36001
1.36008
1.36016
1.36026
1.36037
1.36051
1.36066
1.36083
1.36103
1.36124
1.36147
1.36173
1.362
1.36229
1.3626
1.36292
1.36325
1.36359
1.36393
1.36428
1.36463
1.36496
1.36529
1.3656
1.36589
1.36616
1.3664
1.36661
1.3668
1.36695
1.36708
1.36719
1.36727
1.36732
1.36736
1.36739
1.36739
1.36739
1.36737
1.36733
1.36728
1.36722
1.36714
1.36705
1.36694
1.36682
1.36669
1.36656
1.36642
1.36628
1.36614
1.366
1.36588
1.36576
1.36566
1.36557
1.36548
1.3654
1.36533
1.36526
1.36519
1.36511
1.36503
1.36494
1.36483
1.36472
1.36459
1.36446
1.3643
1.36414
1.36396
1.36378
1.36358
1.36337
1.36315
1.36292
1.36268
1.36244
1.36218
1.36193
1.36167
1.36141
1.36115
1.36089
1.36064
1.3604
1.36017
1.35995
1.35974
1.35955
1.35938
1.35922
1.35909
1.35897
1.35888
1.3588
1.35875
1.35871
1.3587
1.3587
1.35872
1.35875
1.3588
1.35886
1.35894
1.35903
1.35912
1.35923
1.35935
1.35947
1.3596
1.35973
1.35987
1.36001
1.36014
1.36027
1.3604
1.36051
1.36061
1.36069
1.36075
1.36079
1.36079
1.36077
1.36071
1.3606
1.36046
1.36028
1.36005
1.35977
1.35944
1.35907
1.35865
1.35818
1.35766
1.3571
1.3565
1.35585
1.35517
1.35445
1.35371
1.35294
1.35214
1.35133
1.35051
1.34968
1.34884
1.34799
1.34714
1.34629
1.34543
1.34457
1.34371
1.34284
1.34197
1.3411
1.34022
1.33934
1.33846
1.33758
1.3367
1.33582
1.33495
1.33408
1.33322
1.33237
1.33153
1.3307
1.32989
1.3291
1.32832
1.32756
1.32682
1.3261
1.32541
1.32473
1.32408
1.32345
1.32284
1.32225
1.32169
1.32114
1.3206
1.32008
1.31957
1.31907
1.31858
1.3181
1.31762
1.31715
1.31669
1.31624
1.31579
1.31534
1.3149
1.31447
1.31405
1.31363
1.31322
1.31282
1.31243
1.31205
1.31168
1.31133
1.31099
1.31067
1.31037
1.3101
1.30986
1.30964
1.30946
1.30931
1.3092
1.30913
1.30909
1.3091
1.30914
1.30921
1.30931
1.30945
1.3096
1.30976
1.30993
1.31011
1.31027
1.31043
1.31058
1.31069
1.31073
1.31079
1.31086
1.31075
1.31057
1.31063
1.31054
1.30983
1.30955
1.31008
1.30909
1.30698
1.30807
1.30914
1.30389
1.30127
1.30592
1.30597
1.33002
1.32993
1.33014
1.33013
1.32962
1.32939
1.32925
1.3288
1.32841
1.32813
1.32774
1.32734
1.327
1.32664
1.32627
1.32592
1.32558
1.32523
1.32489
1.32455
1.32421
1.32387
1.32354
1.3232
1.32287
1.32253
1.32219
1.32184
1.3215
1.32115
1.3208
1.32044
1.32009
1.31974
1.31938
1.31903
1.31869
1.31835
1.31803
1.31773
1.31745
1.31719
1.31697
1.31679
1.31665
1.31656
1.31651
1.3165
1.31654
1.31662
1.31674
1.31689
1.31707
1.31728
1.31751
1.31776
1.31803
1.31831
1.31861
1.31892
1.31925
1.31958
1.31992
1.32027
1.32063
1.321
1.32137
1.32176
1.32215
1.32256
1.32298
1.32342
1.32388
1.32436
1.32487
1.3254
1.32596
1.32655
1.32717
1.32782
1.32851
1.32923
1.32998
1.33075
1.33156
1.3324
1.33327
1.33415
1.33507
1.336
1.33696
1.33793
1.33892
1.33992
1.34094
1.34196
1.34299
1.34402
1.34506
1.34609
1.34712
1.34814
1.34914
1.35012
1.35108
1.35202
1.35291
1.35377
1.35458
1.35534
1.35604
1.35669
1.35728
1.35782
1.35829
1.35871
1.35907
1.35939
1.35965
1.35988
1.36006
1.36021
1.36032
1.36041
1.36048
1.36052
1.36054
1.36055
1.36054
1.36053
1.3605
1.36047
1.36043
1.36039
1.36035
1.3603
1.36026
1.36022
1.36018
1.36015
1.36011
1.36008
1.36006
1.36004
1.36002
1.36
1.35999
1.35999
1.35999
1.36
1.36001
1.36004
1.36007
1.36011
1.36017
1.36024
1.36032
1.36042
1.36054
1.36067
1.36083
1.361
1.36119
1.3614
1.36163
1.36188
1.36214
1.36242
1.36272
1.36302
1.36334
1.36366
1.36398
1.36431
1.36463
1.36495
1.36526
1.36556
1.36584
1.3661
1.36633
1.36655
1.36674
1.36691
1.36705
1.36716
1.36726
1.36733
1.36738
1.36742
1.36743
1.36743
1.36742
1.36739
1.36734
1.36728
1.36721
1.36712
1.36701
1.36689
1.36677
1.36663
1.36649
1.36635
1.36621
1.36608
1.36595
1.36583
1.36572
1.36562
1.36553
1.36545
1.36536
1.36528
1.3652
1.36511
1.36502
1.36492
1.36481
1.36469
1.36456
1.36442
1.36427
1.36411
1.36394
1.36375
1.36356
1.36336
1.36314
1.36292
1.36269
1.36245
1.36221
1.36196
1.36171
1.36146
1.3612
1.36095
1.36071
1.36047
1.36024
1.36003
1.35983
1.35964
1.35947
1.35932
1.35918
1.35907
1.35898
1.3589
1.35885
1.35882
1.3588
1.3588
1.35882
1.35886
1.3589
1.35897
1.35904
1.35913
1.35922
1.35933
1.35944
1.35956
1.35968
1.35981
1.35994
1.36007
1.36019
1.36032
1.36043
1.36053
1.36062
1.36069
1.36074
1.36077
1.36076
1.36073
1.36066
1.36055
1.3604
1.36022
1.35998
1.35971
1.35939
1.35902
1.3586
1.35814
1.35763
1.35707
1.35647
1.35583
1.35515
1.35444
1.3537
1.35293
1.35213
1.35132
1.35049
1.34966
1.34881
1.34795
1.34709
1.34623
1.34536
1.34449
1.34362
1.34274
1.34186
1.34097
1.34009
1.3392
1.33831
1.33742
1.33654
1.33566
1.33478
1.33392
1.33305
1.33221
1.33137
1.33054
1.32973
1.32894
1.32816
1.3274
1.32667
1.32595
1.32525
1.32457
1.32391
1.32328
1.32266
1.32207
1.32149
1.32093
1.32039
1.31986
1.31934
1.31884
1.31835
1.31787
1.3174
1.31693
1.31648
1.31603
1.31559
1.31516
1.31474
1.31432
1.31391
1.31351
1.31311
1.31272
1.31234
1.31197
1.31161
1.31126
1.31093
1.31062
1.31032
1.31005
1.3098
1.30958
1.30939
1.30923
1.3091
1.30901
1.30895
1.30892
1.30893
1.30897
1.30903
1.30912
1.30923
1.30935
1.30947
1.30961
1.30974
1.30985
1.30996
1.31007
1.31013
1.31012
1.31017
1.31022
1.31002
1.30984
1.31002
1.30979
1.30892
1.30909
1.30971
1.30779
1.30639
1.3092
1.30794
1.30247
1.30518
1.30701
1.33014
1.33019
1.33
1.32967
1.32946
1.32922
1.32875
1.32832
1.328
1.32757
1.32713
1.32675
1.32637
1.32597
1.3256
1.32525
1.32489
1.32455
1.32422
1.3239
1.32358
1.32327
1.32296
1.32265
1.32235
1.32204
1.32173
1.32142
1.32111
1.32079
1.32047
1.32014
1.31982
1.31948
1.31915
1.31882
1.31849
1.31817
1.31786
1.31756
1.31729
1.31704
1.31683
1.31664
1.3165
1.3164
1.31634
1.31633
1.31636
1.31643
1.31654
1.31668
1.31685
1.31705
1.31728
1.31753
1.31779
1.31808
1.31837
1.31869
1.31901
1.31935
1.31969
1.32004
1.3204
1.32077
1.32115
1.32153
1.32193
1.32234
1.32276
1.3232
1.32366
1.32414
1.32464
1.32517
1.32573
1.32632
1.32694
1.32759
1.32828
1.32899
1.32974
1.33052
1.33133
1.33218
1.33305
1.33394
1.33487
1.33582
1.33678
1.33778
1.33878
1.3398
1.34084
1.34189
1.34294
1.344
1.34505
1.34611
1.34715
1.34819
1.34921
1.3502
1.35117
1.35211
1.35301
1.35387
1.35468
1.35544
1.35614
1.35679
1.35737
1.3579
1.35837
1.35878
1.35914
1.35945
1.35971
1.35992
1.3601
1.36025
1.36036
1.36045
1.36051
1.36056
1.36058
1.36059
1.36059
1.36058
1.36056
1.36053
1.3605
1.36047
1.36044
1.3604
1.36037
1.36034
1.36031
1.36028
1.36026
1.36023
1.36021
1.3602
1.36018
1.36017
1.36017
1.36017
1.36017
1.36018
1.3602
1.36022
1.36026
1.3603
1.36036
1.36043
1.36052
1.36062
1.36074
1.36088
1.36103
1.3612
1.36139
1.3616
1.36182
1.36206
1.36231
1.36258
1.36286
1.36314
1.36344
1.36374
1.36404
1.36435
1.36465
1.36494
1.36523
1.36551
1.36578
1.36603
1.36626
1.36648
1.36667
1.36685
1.367
1.36713
1.36724
1.36733
1.36739
1.36744
1.36747
1.36748
1.36748
1.36745
1.36741
1.36736
1.36729
1.3672
1.3671
1.36698
1.36686
1.36672
1.36659
1.36645
1.36631
1.36617
1.36604
1.36592
1.3658
1.3657
1.3656
1.3655
1.3654
1.36531
1.36522
1.36512
1.36502
1.36491
1.36479
1.36467
1.36454
1.36439
1.36424
1.36409
1.36392
1.36374
1.36355
1.36336
1.36315
1.36294
1.36272
1.36249
1.36226
1.36202
1.36177
1.36153
1.36128
1.36104
1.3608
1.36057
1.36034
1.36013
1.35993
1.35975
1.35958
1.35943
1.3593
1.35919
1.3591
1.35903
1.35898
1.35894
1.35893
1.35893
1.35895
1.35899
1.35903
1.3591
1.35917
1.35925
1.35935
1.35945
1.35956
1.35967
1.35979
1.35991
1.36004
1.36016
1.36027
1.36039
1.36049
1.36058
1.36066
1.36071
1.36075
1.36076
1.36075
1.3607
1.36062
1.36051
1.36035
1.36016
1.35992
1.35965
1.35932
1.35896
1.35854
1.35808
1.35758
1.35702
1.35643
1.35579
1.35512
1.3544
1.35366
1.35289
1.35209
1.35127
1.35044
1.34959
1.34873
1.34787
1.347
1.34612
1.34524
1.34436
1.34347
1.34258
1.34168
1.34079
1.33989
1.33899
1.33809
1.3372
1.33631
1.33542
1.33454
1.33367
1.33281
1.33196
1.33112
1.3303
1.32949
1.3287
1.32793
1.32717
1.32643
1.32571
1.32501
1.32433
1.32368
1.32304
1.32242
1.32182
1.32123
1.32067
1.32012
1.31959
1.31907
1.31856
1.31807
1.31759
1.31712
1.31667
1.31622
1.31579
1.31536
1.31495
1.31454
1.31414
1.31375
1.31336
1.31298
1.3126
1.31223
1.31187
1.31152
1.31118
1.31085
1.31054
1.31025
1.30997
1.30972
1.30949
1.30929
1.30912
1.30898
1.30886
1.30878
1.30872
1.30869
1.30869
1.30872
1.30876
1.30882
1.3089
1.30899
1.30907
1.30917
1.30928
1.30934
1.3094
1.3095
1.30955
1.30947
1.30951
1.30965
1.3094
1.3091
1.30949
1.30948
1.30828
1.30841
1.30981
1.308
1.30586
1.30852
1.30967
1.30615
1.30512
1.33041
1.33022
1.32989
1.32952
1.32927
1.32882
1.32828
1.32791
1.32747
1.32694
1.32651
1.3261
1.32565
1.32523
1.32486
1.32448
1.32413
1.32379
1.32347
1.32316
1.32286
1.32257
1.32229
1.32201
1.32174
1.32146
1.32119
1.32091
1.32063
1.32035
1.32006
1.31976
1.31946
1.31916
1.31885
1.31854
1.31823
1.31792
1.31763
1.31735
1.31708
1.31684
1.31663
1.31645
1.3163
1.3162
1.31614
1.31612
1.31614
1.3162
1.3163
1.31643
1.3166
1.31679
1.31701
1.31725
1.31752
1.3178
1.3181
1.31841
1.31874
1.31907
1.31942
1.31977
1.32014
1.32051
1.32089
1.32127
1.32167
1.32208
1.3225
1.32294
1.3234
1.32387
1.32438
1.32491
1.32546
1.32605
1.32667
1.32732
1.328
1.32872
1.32947
1.33025
1.33107
1.33192
1.33279
1.3337
1.33464
1.3356
1.33659
1.3376
1.33862
1.33967
1.34073
1.3418
1.34288
1.34396
1.34504
1.34611
1.34718
1.34823
1.34927
1.35028
1.35126
1.35221
1.35311
1.35398
1.35479
1.35555
1.35625
1.35689
1.35747
1.358
1.35846
1.35886
1.35921
1.35951
1.35977
1.35998
1.36016
1.3603
1.36041
1.36049
1.36056
1.3606
1.36063
1.36064
1.36065
1.36064
1.36063
1.36061
1.36059
1.36057
1.36054
1.36052
1.3605
1.36048
1.36046
1.36044
1.36042
1.36041
1.3604
1.36039
1.36038
1.36038
1.36038
1.36038
1.36039
1.36041
1.36043
1.36045
1.36049
1.36054
1.3606
1.36067
1.36076
1.36086
1.36098
1.36112
1.36127
1.36144
1.36162
1.36182
1.36204
1.36227
1.36251
1.36276
1.36302
1.36328
1.36355
1.36383
1.36411
1.36439
1.36466
1.36494
1.3652
1.36546
1.36572
1.36596
1.36619
1.3664
1.3666
1.36678
1.36694
1.36709
1.36721
1.36732
1.3674
1.36746
1.36751
1.36753
1.36753
1.36752
1.36749
1.36744
1.36737
1.36729
1.36719
1.36708
1.36696
1.36683
1.3667
1.36656
1.36642
1.36628
1.36615
1.36602
1.3659
1.36578
1.36567
1.36556
1.36546
1.36535
1.36524
1.36514
1.36502
1.36491
1.36478
1.36466
1.36452
1.36438
1.36423
1.36408
1.36392
1.36375
1.36357
1.36338
1.36319
1.36299
1.36277
1.36256
1.36233
1.3621
1.36187
1.36163
1.36139
1.36115
1.36092
1.3607
1.36048
1.36027
1.36008
1.3599
1.35973
1.35958
1.35946
1.35935
1.35926
1.35919
1.35914
1.35911
1.35909
1.35909
1.35912
1.35915
1.3592
1.35926
1.35933
1.35942
1.35951
1.35961
1.35971
1.35982
1.35994
1.36005
1.36016
1.36028
1.36039
1.36048
1.36057
1.36065
1.36071
1.36076
1.36078
1.36078
1.36075
1.36069
1.3606
1.36047
1.36031
1.36011
1.35987
1.35959
1.35926
1.35889
1.35848
1.35802
1.35751
1.35696
1.35637
1.35573
1.35506
1.35434
1.3536
1.35282
1.35202
1.35119
1.35035
1.34949
1.34863
1.34775
1.34686
1.34597
1.34508
1.34418
1.34328
1.34237
1.34146
1.34055
1.33964
1.33873
1.33782
1.33692
1.33602
1.33512
1.33424
1.33336
1.3325
1.33165
1.33081
1.32999
1.32919
1.32839
1.32762
1.32687
1.32613
1.32541
1.32471
1.32403
1.32337
1.32273
1.32211
1.32151
1.32092
1.32035
1.3198
1.31927
1.31875
1.31825
1.31776
1.31728
1.31682
1.31638
1.31594
1.31552
1.31511
1.31471
1.31432
1.31394
1.31356
1.31319
1.31282
1.31246
1.31211
1.31175
1.31141
1.31108
1.31075
1.31044
1.31015
1.30987
1.30962
1.30939
1.30917
1.30899
1.30883
1.30869
1.30858
1.30849
1.30843
1.30839
1.30838
1.30838
1.3084
1.30844
1.30849
1.30855
1.3086
1.30868
1.30876
1.30879
1.30883
1.30895
1.30898
1.30888
1.309
1.30919
1.30888
1.30871
1.30933
1.30916
1.30806
1.30891
1.30994
1.30809
1.30778
1.30964
1.30926
1.30915
1.33072
1.33016
1.32982
1.32944
1.3289
1.32837
1.32792
1.32741
1.32682
1.32632
1.32585
1.32534
1.32487
1.32446
1.32404
1.32365
1.32329
1.32296
1.32264
1.32234
1.32206
1.32179
1.32153
1.32128
1.32104
1.32079
1.32055
1.32031
1.32006
1.31981
1.31955
1.31929
1.31902
1.31875
1.31847
1.31818
1.3179
1.31761
1.31734
1.31707
1.31682
1.31659
1.31638
1.3162
1.31606
1.31596
1.3159
1.31587
1.31589
1.31594
1.31603
1.31615
1.31631
1.3165
1.31671
1.31695
1.31721
1.31749
1.31779
1.3181
1.31843
1.31877
1.31911
1.31947
1.31984
1.32021
1.32058
1.32097
1.32137
1.32178
1.3222
1.32264
1.32309
1.32357
1.32408
1.3246
1.32516
1.32575
1.32636
1.32701
1.3277
1.32842
1.32917
1.32995
1.33078
1.33163
1.33252
1.33344
1.33439
1.33537
1.33637
1.3374
1.33845
1.33952
1.3406
1.3417
1.3428
1.3439
1.34501
1.3461
1.34719
1.34826
1.34931
1.35034
1.35133
1.35229
1.3532
1.35407
1.35489
1.35565
1.35635
1.35699
1.35757
1.35809
1.35855
1.35895
1.35929
1.35959
1.35984
1.36004
1.36021
1.36035
1.36046
1.36055
1.36061
1.36065
1.36069
1.3607
1.36071
1.36072
1.36071
1.3607
1.36069
1.36068
1.36067
1.36066
1.36065
1.36064
1.36063
1.36063
1.36062
1.36062
1.36062
1.36062
1.36062
1.36062
1.36063
1.36064
1.36065
1.36067
1.36069
1.36072
1.36076
1.36081
1.36088
1.36095
1.36104
1.36114
1.36126
1.3614
1.36155
1.36171
1.36189
1.36208
1.36228
1.3625
1.36272
1.36295
1.36319
1.36343
1.36368
1.36393
1.36418
1.36443
1.36468
1.36493
1.36517
1.36541
1.36565
1.36588
1.3661
1.36631
1.36651
1.3667
1.36688
1.36703
1.36717
1.36729
1.36739
1.36747
1.36753
1.36757
1.36759
1.36758
1.36756
1.36752
1.36746
1.36739
1.3673
1.36719
1.36708
1.36695
1.36682
1.36668
1.36654
1.3664
1.36627
1.36613
1.366
1.36588
1.36575
1.36563
1.36551
1.3654
1.36528
1.36516
1.36503
1.36491
1.36478
1.36465
1.36452
1.36438
1.36423
1.36408
1.36393
1.36377
1.3636
1.36343
1.36324
1.36305
1.36285
1.36264
1.36243
1.36221
1.36198
1.36176
1.36153
1.3613
1.36107
1.36085
1.36064
1.36044
1.36025
1.36007
1.35991
1.35976
1.35964
1.35953
1.35944
1.35937
1.35932
1.35929
1.35928
1.35928
1.35931
1.35934
1.35939
1.35945
1.35952
1.35961
1.3597
1.35979
1.35989
1.36
1.36011
1.36022
1.36032
1.36042
1.36052
1.36061
1.36069
1.36075
1.36079
1.36082
1.36083
1.36081
1.36077
1.36069
1.36059
1.36045
1.36027
1.36006
1.35981
1.35952
1.35919
1.35882
1.35841
1.35794
1.35744
1.35689
1.35629
1.35565
1.35497
1.35426
1.3535
1.35272
1.35191
1.35108
1.35023
1.34936
1.34848
1.34759
1.34669
1.34578
1.34487
1.34396
1.34304
1.34212
1.34119
1.34027
1.33935
1.33842
1.3375
1.33658
1.33567
1.33477
1.33388
1.333
1.33213
1.33127
1.33043
1.32961
1.3288
1.32801
1.32724
1.32649
1.32575
1.32503
1.32434
1.32366
1.323
1.32236
1.32174
1.32113
1.32055
1.31998
1.31943
1.3189
1.31838
1.31789
1.3174
1.31694
1.31649
1.31605
1.31563
1.31523
1.31484
1.31445
1.31408
1.31372
1.31336
1.313
1.31265
1.31231
1.31196
1.31162
1.31129
1.31096
1.31064
1.31033
1.31004
1.30976
1.3095
1.30925
1.30903
1.30883
1.30865
1.3085
1.30836
1.30825
1.30816
1.30809
1.30803
1.308
1.30799
1.30799
1.308
1.30804
1.30808
1.30811
1.30818
1.30826
1.30828
1.30832
1.3085
1.30856
1.30843
1.30864
1.30901
1.30865
1.30849
1.30951
1.30948
1.30829
1.30932
1.31091
1.30985
1.30924
1.31134
1.31262
1.33092
1.33022
1.32974
1.3292
1.32858
1.32803
1.32747
1.32683
1.32623
1.32571
1.32514
1.32459
1.32411
1.32365
1.3232
1.3228
1.32243
1.32208
1.32177
1.32148
1.3212
1.32095
1.32071
1.32049
1.32027
1.32005
1.31984
1.31963
1.31942
1.3192
1.31897
1.31874
1.3185
1.31826
1.31801
1.31775
1.31749
1.31724
1.31698
1.31673
1.3165
1.31628
1.31609
1.31592
1.31578
1.31568
1.31562
1.31559
1.3156
1.31565
1.31573
1.31585
1.316
1.31617
1.31638
1.31661
1.31687
1.31715
1.31744
1.31776
1.31809
1.31842
1.31877
1.31913
1.3195
1.31987
1.32025
1.32064
1.32104
1.32144
1.32187
1.32231
1.32276
1.32324
1.32374
1.32426
1.32482
1.32541
1.32602
1.32668
1.32736
1.32808
1.32884
1.32963
1.33046
1.33132
1.33222
1.33315
1.33412
1.33512
1.33614
1.33719
1.33826
1.33935
1.34046
1.34158
1.3427
1.34383
1.34496
1.34607
1.34718
1.34827
1.34934
1.35038
1.35138
1.35235
1.35327
1.35415
1.35497
1.35573
1.35644
1.35708
1.35766
1.35817
1.35863
1.35903
1.35937
1.35966
1.3599
1.36011
1.36028
1.36041
1.36052
1.3606
1.36067
1.36071
1.36075
1.36078
1.36079
1.3608
1.36081
1.36081
1.36081
1.36081
1.36082
1.36082
1.36082
1.36083
1.36083
1.36084
1.36085
1.36086
1.36087
1.36088
1.36089
1.3609
1.36091
1.36093
1.36095
1.36097
1.361
1.36104
1.36108
1.36113
1.3612
1.36127
1.36136
1.36146
1.36158
1.36171
1.36185
1.36201
1.36218
1.36236
1.36255
1.36275
1.36295
1.36316
1.36338
1.3636
1.36382
1.36404
1.36426
1.36448
1.3647
1.36493
1.36515
1.36537
1.36558
1.3658
1.36601
1.36622
1.36642
1.36662
1.3668
1.36697
1.36712
1.36726
1.36737
1.36747
1.36754
1.3676
1.36763
1.36764
1.36763
1.3676
1.36755
1.36749
1.3674
1.36731
1.36719
1.36707
1.36694
1.36681
1.36667
1.36653
1.36639
1.36625
1.36611
1.36598
1.36584
1.36571
1.36558
1.36545
1.36532
1.36519
1.36505
1.36492
1.36479
1.36466
1.36452
1.36439
1.36425
1.36411
1.36396
1.36381
1.36365
1.36349
1.36332
1.36314
1.36295
1.36276
1.36256
1.36235
1.36214
1.36192
1.3617
1.36148
1.36126
1.36105
1.36084
1.36064
1.36045
1.36028
1.36012
1.35998
1.35985
1.35975
1.35966
1.35959
1.35954
1.35951
1.3595
1.35951
1.35953
1.35956
1.35961
1.35967
1.35975
1.35983
1.35992
1.36001
1.36011
1.36021
1.36031
1.36041
1.36051
1.3606
1.36068
1.36076
1.36082
1.36087
1.3609
1.36091
1.3609
1.36086
1.36081
1.36071
1.36059
1.36044
1.36025
1.36003
1.35977
1.35947
1.35913
1.35875
1.35833
1.35786
1.35735
1.35679
1.35619
1.35555
1.35487
1.35414
1.35339
1.3526
1.35178
1.35093
1.35007
1.34919
1.3483
1.3474
1.34649
1.34556
1.34464
1.34371
1.34278
1.34184
1.34091
1.33997
1.33903
1.33809
1.33716
1.33623
1.33531
1.33439
1.33349
1.3326
1.33172
1.33086
1.33002
1.32919
1.32838
1.32759
1.32682
1.32606
1.32533
1.32461
1.32391
1.32323
1.32257
1.32193
1.32131
1.32071
1.32012
1.31956
1.31902
1.31849
1.31798
1.31749
1.31702
1.31657
1.31613
1.31571
1.31531
1.31492
1.31454
1.31418
1.31383
1.31348
1.31314
1.3128
1.31247
1.31213
1.3118
1.31147
1.31114
1.31082
1.3105
1.31019
1.3099
1.30962
1.30935
1.3091
1.30887
1.30866
1.30846
1.30829
1.30813
1.30799
1.30787
1.30777
1.30769
1.30763
1.30759
1.30756
1.30755
1.30755
1.30759
1.30762
1.30765
1.30773
1.30785
1.30787
1.30795
1.30821
1.30829
1.30821
1.3086
1.30904
1.30871
1.30889
1.30999
1.30997
1.30953
1.31061
1.31164
1.31184
1.31249
1.31336
1.331
1.33021
1.32958
1.3289
1.32827
1.32763
1.32692
1.32626
1.32565
1.32501
1.32439
1.32384
1.32331
1.32279
1.32234
1.32192
1.32153
1.32117
1.32086
1.32057
1.3203
1.32006
1.31984
1.31963
1.31943
1.31924
1.31906
1.31888
1.31869
1.31851
1.31831
1.31812
1.31791
1.3177
1.31748
1.31725
1.31702
1.31679
1.31656
1.31634
1.31612
1.31592
1.31574
1.31559
1.31546
1.31536
1.3153
1.31527
1.31528
1.31532
1.3154
1.31551
1.31565
1.31582
1.31602
1.31625
1.3165
1.31678
1.31707
1.31738
1.31771
1.31805
1.3184
1.31876
1.31913
1.31951
1.31989
1.32028
1.32067
1.32109
1.32151
1.32194
1.3224
1.32288
1.32338
1.32391
1.32447
1.32505
1.32567
1.32632
1.32701
1.32773
1.3285
1.32929
1.33013
1.33101
1.33192
1.33287
1.33385
1.33486
1.3359
1.33697
1.33806
1.33918
1.34031
1.34144
1.34259
1.34374
1.34488
1.34602
1.34715
1.34825
1.34933
1.35038
1.3514
1.35237
1.35331
1.35419
1.35502
1.35579
1.3565
1.35715
1.35773
1.35825
1.3587
1.3591
1.35944
1.35973
1.35998
1.36018
1.36034
1.36048
1.36059
1.36067
1.36074
1.36079
1.36083
1.36086
1.36089
1.3609
1.36092
1.36094
1.36095
1.36096
1.36098
1.361
1.36102
1.36104
1.36106
1.36108
1.3611
1.36112
1.36115
1.36117
1.36119
1.36121
1.36123
1.36126
1.36128
1.36131
1.36135
1.36139
1.36143
1.36149
1.36156
1.36163
1.36172
1.36182
1.36193
1.36206
1.3622
1.36234
1.3625
1.36267
1.36284
1.36302
1.3632
1.36339
1.36358
1.36377
1.36396
1.36415
1.36435
1.36454
1.36473
1.36493
1.36512
1.36532
1.36552